; ITP file created by ByteFF-joint-25, 2026-02-17 09:41:15.637949

[ atomtypes ]
;name           bonded.type        at.num        mass        charge   ptype           sigma         epsilon
 c0bf                                   6      0.0000       0.00000       A     3.39774e-01     4.50890e-01    ;  uncertainty sigma = 0.000006, epsilon = 0.000514
 o1bf                                   8      0.0000       0.00000       A     3.15641e-01     3.03850e-01    ;  uncertainty sigma = 0.000015, epsilon = 0.000455
 c2bf                                   6      0.0000       0.00000       A     3.31526e-01     4.13474e-01    ;  uncertainty sigma = 0.000006, epsilon = 0.000721
 c3bf                                   6      0.0000       0.00000       A     3.31529e-01     4.13640e-01    ;  uncertainty sigma = 0.000005, epsilon = 0.000792
 c4bf                                   6      0.0000       0.00000       A     3.31525e-01     4.13354e-01    ;  uncertainty sigma = 0.000006, epsilon = 0.000662
 c5bf                                   6      0.0000       0.00000       A     3.31528e-01     4.13588e-01    ;  uncertainty sigma = 0.000010, epsilon = 0.000818
 n6bf                                   7      0.0000       0.00000       A     3.27852e-01     6.46169e-01    ;  uncertainty sigma = 0.000043, epsilon = 0.003219
 c7bf                                   6      0.0000       0.00000       A     3.31526e-01     4.13887e-01    ;  uncertainty sigma = 0.000017, epsilon = 0.001682
 n8bf                                   7      0.0000       0.00000       A     3.38466e-01     3.93319e-01    ;  uncertainty sigma = 0.000031, epsilon = 0.000671
 c9bf                                   6      0.0000       0.00000       A     3.31556e-01     4.13456e-01    ;  uncertainty sigma = 0.000023, epsilon = 0.000743
 c10bf                                  6      0.0000       0.00000       A     3.31559e-01     4.13603e-01    ;  uncertainty sigma = 0.000013, epsilon = 0.001559
 n11bf                                  7      0.0000       0.00000       A     3.20547e-01     8.53303e-01    ;  uncertainty sigma = 0.000017, epsilon = 0.000844
 c12bf                                  6      0.0000       0.00000       A     3.31503e-01     4.12978e-01    ;  uncertainty sigma = 0.000012, epsilon = 0.001136
 c13bf                                  6      0.0000       0.00000       A     3.31531e-01     4.13187e-01    ;  uncertainty sigma = 0.000008, epsilon = 0.000699
 n14bf                                  7      0.0000       0.00000       A     3.38427e-01     3.92895e-01    ;  uncertainty sigma = 0.000039, epsilon = 0.000415
 c15bf                                  6      0.0000       0.00000       A     3.31554e-01     4.12537e-01    ;  uncertainty sigma = 0.000015, epsilon = 0.000432
 c16bf                                  6      0.0000       0.00000       A     3.31502e-01     4.13183e-01    ;  uncertainty sigma = 0.000016, epsilon = 0.000910
 c17bf                                  6      0.0000       0.00000       A     3.31522e-01     4.13343e-01    ;  uncertainty sigma = 0.000008, epsilon = 0.000592
 c18bf                                  6      0.0000       0.00000       A     3.31520e-01     4.13240e-01    ;  uncertainty sigma = 0.000004, epsilon = 0.000529
 c19bf                                  6      0.0000       0.00000       A     3.31514e-01     4.13104e-01    ;  uncertainty sigma = 0.000004, epsilon = 0.001368
 f20bf                                  9      0.0000       0.00000       A     3.03397e-01     3.48150e-01    ;  uncertainty sigma = 0.000020, epsilon = 0.000875
 c21bf                                  6      0.0000       0.00000       A     3.31507e-01     4.13214e-01    ;  uncertainty sigma = 0.000015, epsilon = 0.001030
 c22bf                                  6      0.0000       0.00000       A     3.31507e-01     4.13098e-01    ;  uncertainty sigma = 0.000016, epsilon = 0.001054
 c23bf                                  6      0.0000       0.00000       A     3.31536e-01     4.12760e-01    ;  uncertainty sigma = 0.000026, epsilon = 0.000858
 o24bf                                  8      0.0000       0.00000       A     3.04794e-01     6.12196e-01    ;  uncertainty sigma = 0.000022, epsilon = 0.001603
 n25bf                                  7      0.0000       0.00000       A     3.35995e-01     3.54451e-01    ;  uncertainty sigma = 0.000048, epsilon = 0.003042
 c26bf                                  6      0.0000       0.00000       A     3.31516e-01     4.13129e-01    ;  uncertainty sigma = 0.000010, epsilon = 0.000957
 c27bf                                  6      0.0000       0.00000       A     3.31531e-01     4.13728e-01    ;  uncertainty sigma = 0.000008, epsilon = 0.001049
 o28bf                                  8      0.0000       0.00000       A     3.15636e-01     3.03949e-01    ;  uncertainty sigma = 0.000015, epsilon = 0.000670
 c29bf                                  6      0.0000       0.00000       A     3.39774e-01     4.50890e-01    ;  uncertainty sigma = 0.000006, epsilon = 0.000514
 h30bf                                  1      0.0000       0.00000       A     2.42205e-01     8.67538e-02    ;  uncertainty sigma = 0.000015, epsilon = 0.000624
 h31bf                                  1      0.0000       0.00000       A     2.42205e-01     8.67538e-02    ;  uncertainty sigma = 0.000015, epsilon = 0.000624
 h32bf                                  1      0.0000       0.00000       A     2.42205e-01     8.67538e-02    ;  uncertainty sigma = 0.000015, epsilon = 0.000624
 h33bf                                  1      0.0000       0.00000       A     2.62570e-01     6.70700e-02    ;  uncertainty sigma = 0.000012, epsilon = 0.000330
 h34bf                                  1      0.0000       0.00000       A     2.62564e-01     6.70248e-02    ;  uncertainty sigma = 0.000015, epsilon = 0.000426
 h35bf                                  1      0.0000       0.00000       A     1.10708e-01     4.06502e-02    ;  uncertainty sigma = 0.000118, epsilon = 0.000465
 h36bf                                  1      0.0000       0.00000       A     2.53612e-01     6.73648e-02    ;  uncertainty sigma = 0.000081, epsilon = 0.000889
 h37bf                                  1      0.0000       0.00000       A     2.53649e-01     6.68496e-02    ;  uncertainty sigma = 0.000023, epsilon = 0.000657
 h38bf                                  1      0.0000       0.00000       A     2.53645e-01     6.69492e-02    ;  uncertainty sigma = 0.000020, epsilon = 0.000834
 h39bf                                  1      0.0000       0.00000       A     2.62564e-01     6.70275e-02    ;  uncertainty sigma = 0.000012, epsilon = 0.000609
 h40bf                                  1      0.0000       0.00000       A     2.62567e-01     6.70545e-02    ;  uncertainty sigma = 0.000010, epsilon = 0.000436
 h41bf                                  1      0.0000       0.00000       A     2.62569e-01     6.75313e-02    ;  uncertainty sigma = 0.000011, epsilon = 0.000936
 h42bf                                  1      0.0000       0.00000       A     1.10644e-01     4.14126e-02    ;  uncertainty sigma = 0.000051, epsilon = 0.000340
 h43bf                                  1      0.0000       0.00000       A     1.10644e-01     4.14126e-02    ;  uncertainty sigma = 0.000051, epsilon = 0.000340
 h44bf                                  1      0.0000       0.00000       A     2.62560e-01     6.71373e-02    ;  uncertainty sigma = 0.000017, epsilon = 0.000539
 h45bf                                  1      0.0000       0.00000       A     2.42205e-01     8.67537e-02    ;  uncertainty sigma = 0.000015, epsilon = 0.000624
 h46bf                                  1      0.0000       0.00000       A     2.42205e-01     8.67537e-02    ;  uncertainty sigma = 0.000015, epsilon = 0.000624
 h47bf                                  1      0.0000       0.00000       A     2.42205e-01     8.67537e-02    ;  uncertainty sigma = 0.000015, epsilon = 0.000624

[ moleculetype ]
;name             nrexcl
 MOL                   3

[ atoms ]
;       nr            type      resi   res      atom      cgnr      charge          mass ; qtot
         1            c0bf         1   UNL        c0         1     0.11960       12.0110 ; qtot    0.120
         2            o1bf         1   UNL        o1         2    -0.32010       15.9990 ; qtot   -0.201
         3            c2bf         1   UNL        c2         3     0.07584       12.0110 ; qtot   -0.125
         4            c3bf         1   UNL        c3         4    -0.15014       12.0110 ; qtot   -0.275
         5            c4bf         1   UNL        c4         5    -0.15106       12.0110 ; qtot   -0.426
         6            c5bf         1   UNL        c5         6     0.16694       12.0110 ; qtot   -0.259
         7            n6bf         1   UNL        n6         7    -0.73903       14.0070 ; qtot   -0.998
         8            c7bf         1   UNL        c7         8     0.75065       12.0110 ; qtot   -0.247
         9            n8bf         1   UNL        n8         9    -0.76815       14.0070 ; qtot   -1.015
        10            c9bf         1   UNL        c9        10     0.47401       12.0110 ; qtot   -0.541
        11           c10bf         1   UNL       c10        11    -0.21980       12.0110 ; qtot   -0.761
        12           n11bf         1   UNL       n11        12     0.05302       14.0070 ; qtot   -0.708
        13           c12bf         1   UNL       c12        13    -0.21243       12.0110 ; qtot   -0.921
        14           c13bf         1   UNL       c13        14     0.01175       12.0110 ; qtot   -0.909
        15           n14bf         1   UNL       n14        15    -0.27543       14.0070 ; qtot   -1.184
        16           c15bf         1   UNL       c15        16    -0.18460       12.0110 ; qtot   -1.369
        17           c16bf         1   UNL       c16        17    -0.13241       12.0110 ; qtot   -1.501
        18           c17bf         1   UNL       c17        18    -0.06948       12.0110 ; qtot   -1.571
        19           c18bf         1   UNL       c18        19    -0.17505       12.0110 ; qtot   -1.746
        20           c19bf         1   UNL       c19        20     0.16926       12.0110 ; qtot   -1.577
        21           f20bf         1   UNL       f20        21    -0.13855       18.9980 ; qtot   -1.715
        22           c21bf         1   UNL       c21        22    -0.18304       12.0110 ; qtot   -1.898
        23           c22bf         1   UNL       c22        23    -0.04481       12.0110 ; qtot   -1.943
        24           c23bf         1   UNL       c23        24     0.67893       12.0110 ; qtot   -1.264
        25           o24bf         1   UNL       o24        25    -0.59076       15.9990 ; qtot   -1.855
        26           n25bf         1   UNL       n25        26    -0.66189       14.0070 ; qtot   -2.517
        27           c26bf         1   UNL       c26        27    -0.20840       12.0110 ; qtot   -2.725
        28           c27bf         1   UNL       c27        28     0.11790       12.0110 ; qtot   -2.607
        29           o28bf         1   UNL       o28        29    -0.31927       15.9990 ; qtot   -2.926
        30           c29bf         1   UNL       c29        30     0.11995       12.0110 ; qtot   -2.807
        31           h30bf         1   UNL       h30        31     0.04337        1.0080 ; qtot   -2.763
        32           h31bf         1   UNL       h31        32     0.04337        1.0080 ; qtot   -2.720
        33           h32bf         1   UNL       h32        33     0.04337        1.0080 ; qtot   -2.676
        34           h33bf         1   UNL       h33        34     0.14091        1.0080 ; qtot   -2.536
        35           h34bf         1   UNL       h34        35     0.15302        1.0080 ; qtot   -2.383
        36           h35bf         1   UNL       h35        36     0.46165        1.0080 ; qtot   -1.921
        37           h36bf         1   UNL       h36        37     0.17424        1.0080 ; qtot   -1.747
        38           h37bf         1   UNL       h37        38     0.18619        1.0080 ; qtot   -1.560
        39           h38bf         1   UNL       h38        39     0.17120        1.0080 ; qtot   -1.389
        40           h39bf         1   UNL       h39        40     0.14862        1.0080 ; qtot   -1.241
        41           h40bf         1   UNL       h40        41     0.15702        1.0080 ; qtot   -1.084
        42           h41bf         1   UNL       h41        42     0.16610        1.0080 ; qtot   -0.917
        43           h42bf         1   UNL       h42        43     0.31587        1.0080 ; qtot   -0.602
        44           h43bf         1   UNL       h43        44     0.31587        1.0080 ; qtot   -0.286
        45           h44bf         1   UNL       h44        45     0.15565        1.0080 ; qtot   -0.130
        46           h45bf         1   UNL       h45        46     0.04337        1.0080 ; qtot   -0.087
        47           h46bf         1   UNL       h46        47     0.04337        1.0080 ; qtot   -0.043
        48           h47bf         1   UNL       h47        48     0.04336        1.0080 ; qtot    0.000

[ bonds ]
;       ai        aj funct               r               k
         1         2     1        0.142504   247060.424561    ;  uncertainty r = 0.000030, k = 4.357279
         1        31     1        0.109559   311162.501807    ;  uncertainty r = 0.000020, k = 1.272505
         1        32     1        0.109559   311162.501807    ;  uncertainty r = 0.000020, k = 1.272505
         1        33     1        0.109559   311162.501807    ;  uncertainty r = 0.000020, k = 1.272505
         2         3     1        0.136892   321113.062012    ;  uncertainty r = 0.000059, k = 4.532937
         3         4     1        0.139488   349133.425439    ;  uncertainty r = 0.000031, k = 2.724656
         3        28     1        0.140227   349402.969629    ;  uncertainty r = 0.000054, k = 7.584627
         4         5     1        0.139369   369864.655127    ;  uncertainty r = 0.000071, k = 2.574425
         4        34     1        0.108705   336290.634375    ;  uncertainty r = 0.000024, k = 1.905467
         5         6     1        0.139713   352891.517529    ;  uncertainty r = 0.000095, k = 4.859039
         5        35     1        0.108700   336152.248779    ;  uncertainty r = 0.000031, k = 1.798265
         6         7     1        0.141333   346668.455957    ;  uncertainty r = 0.000119, k = 12.315044
         6        27     1        0.140236   355873.307031    ;  uncertainty r = 0.000083, k = 5.100092
         7         8     1        0.137988   330814.533252    ;  uncertainty r = 0.000224, k = 31.605630
         7        36     1        0.102091   426736.870264    ;  uncertainty r = 0.000039, k = 5.302920
         8         9     1        0.132294   443005.770996    ;  uncertainty r = 0.000186, k = 13.577353
         8        16     1        0.143016   286566.945654    ;  uncertainty r = 0.000095, k = 10.976562
         9        10     1        0.137509   259598.736670    ;  uncertainty r = 0.000250, k = 25.283716
        10        11     1        0.136955   381436.030127    ;  uncertainty r = 0.000105, k = 11.906471
        10        17     1        0.147203   263401.288867    ;  uncertainty r = 0.000142, k = 9.857358
        11        12     1        0.137882   325401.789697    ;  uncertainty r = 0.000063, k = 6.041351
        11        37     1        0.108486   340798.853516    ;  uncertainty r = 0.000072, k = 2.317266
        12        13     1        0.137812   342777.341064    ;  uncertainty r = 0.000099, k = 5.087994
        12        16     1        0.139016   307421.213135    ;  uncertainty r = 0.000151, k = 23.940608
        13        14     1        0.138713   413349.321582    ;  uncertainty r = 0.000044, k = 11.515297
        13        38     1        0.108153   341281.121826    ;  uncertainty r = 0.000029, k = 4.725656
        14        15     1        0.136694   264650.921777    ;  uncertainty r = 0.000104, k = 21.676773
        14        39     1        0.108374   336399.652295    ;  uncertainty r = 0.000052, k = 2.763013
        15        16     1        0.133277   447135.785547    ;  uncertainty r = 0.000097, k = 11.841721
        17        18     1        0.139961   346451.696973    ;  uncertainty r = 0.000060, k = 3.340173
        17        23     1        0.139439   340461.967969    ;  uncertainty r = 0.000035, k = 3.674521
        18        19     1        0.138967   375579.936816    ;  uncertainty r = 0.000067, k = 3.283387
        18        40     1        0.108667   333512.860840    ;  uncertainty r = 0.000025, k = 1.292458
        19        20     1        0.138999   359332.870313    ;  uncertainty r = 0.000050, k = 9.002606
        19        41     1        0.108789   335661.093555    ;  uncertainty r = 0.000019, k = 0.602598
        20        21     1        0.136088   335685.047363    ;  uncertainty r = 0.000116, k = 6.973950
        20        22     1        0.139747   328449.056348    ;  uncertainty r = 0.000081, k = 3.749221
        22        23     1        0.139522   349075.481738    ;  uncertainty r = 0.000102, k = 6.943566
        22        24     1        0.149939   235650.878223    ;  uncertainty r = 0.000121, k = 17.257387
        23        42     1        0.108585   332477.254443    ;  uncertainty r = 0.000014, k = 2.228420
        24        25     1        0.124024   889917.391797    ;  uncertainty r = 0.000106, k = 11.223694
        24        26     1        0.138910   489226.457813    ;  uncertainty r = 0.000144, k = 12.557355
        26        43     1        0.101647   427852.535498    ;  uncertainty r = 0.000060, k = 3.116562
        26        44     1        0.101647   427852.535498    ;  uncertainty r = 0.000060, k = 3.116562
        27        28     1        0.139270   345625.520410    ;  uncertainty r = 0.000054, k = 5.224456
        27        45     1        0.108746   339222.268994    ;  uncertainty r = 0.000057, k = 2.203703
        28        29     1        0.136641   322875.224707    ;  uncertainty r = 0.000095, k = 4.764590
        29        30     1        0.142472   247648.314355    ;  uncertainty r = 0.000036, k = 5.188422
        30        46     1        0.109559   311162.501807    ;  uncertainty r = 0.000020, k = 1.272491
        30        47     1        0.109559   311162.501807    ;  uncertainty r = 0.000020, k = 1.272497
        30        48     1        0.109559   311162.501807    ;  uncertainty r = 0.000020, k = 1.272491

[ angles ]
;       ai        aj        ak funct           theta             cth
         1         2         3     1      110.612503      514.276204    ;  uncertainty theta = 0.001142, k = 0.053109
         2         1        31     1      108.817703      445.633093    ;  uncertainty theta = 0.001397, k = 0.017155
         2         1        32     1      108.817703      445.633093    ;  uncertainty theta = 0.001397, k = 0.017155
         2         1        33     1      108.817703      445.633093    ;  uncertainty theta = 0.001397, k = 0.017155
         2         3         4     1      120.713829      429.663653    ;  uncertainty theta = 0.002887, k = 0.102450
         2         3        28     1      116.739212      371.002135    ;  uncertainty theta = 0.004292, k = 0.133275
         3         4         5     1      122.308617      511.833707    ;  uncertainty theta = 0.002874, k = 0.098838
         3         4        34     1      117.399475      269.501128    ;  uncertainty theta = 0.000644, k = 0.068639
         3        28        27     1      122.924828      372.294473    ;  uncertainty theta = 0.004880, k = 0.131595
         3        28        29     1      116.892052      375.388038    ;  uncertainty theta = 0.003912, k = 0.086739
         4         3        28     1      121.473427      368.904773    ;  uncertainty theta = 0.004194, k = 0.139265
         4         5         6     1      119.248634      497.970121    ;  uncertainty theta = 0.001680, k = 0.102369
         4         5        35     1      121.012962      296.103549    ;  uncertainty theta = 0.002653, k = 0.108838
         5         4        34     1      120.002708      276.762860    ;  uncertainty theta = 0.000635, k = 0.063553
         5         6         7     1      120.412048      523.951864    ;  uncertainty theta = 0.002787, k = 0.145671
         5         6        27     1      119.564781      370.288948    ;  uncertainty theta = 0.004616, k = 0.068311
         6         5        35     1      119.526833      271.877771    ;  uncertainty theta = 0.001413, k = 0.081499
         6         7         8     1      116.303787      381.015013    ;  uncertainty theta = 0.002927, k = 0.210540
         6         7        36     1      114.186111      355.760727    ;  uncertainty theta = 0.005751, k = 0.200139
         6        27        28     1      121.379723      503.759991    ;  uncertainty theta = 0.003678, k = 0.097545
         6        27        45     1      119.577965      269.429783    ;  uncertainty theta = 0.003301, k = 0.060634
         7         6        27     1      119.861717      533.495177    ;  uncertainty theta = 0.003869, k = 0.077420
         7         8         9     1      122.084122      743.704340    ;  uncertainty theta = 0.005979, k = 0.187139
         7         8        16     1      118.339066      493.433486    ;  uncertainty theta = 0.006804, k = 0.121645
         8         7        36     1      117.061234      430.294771    ;  uncertainty theta = 0.006370, k = 0.198641
         8         9        10     1      121.092026      437.385564    ;  uncertainty theta = 0.009289, k = 0.255263
         8        16        12     1      111.142784      333.997874    ;  uncertainty theta = 0.012736, k = 0.456018
         8        16        15     1      125.515465      293.448009    ;  uncertainty theta = 0.008643, k = 0.324338
         9         8        16     1      122.397110      559.508873    ;  uncertainty theta = 0.006110, k = 0.249098
         9        10        11     1      124.543556      546.714781    ;  uncertainty theta = 0.002872, k = 0.247730
         9        10        17     1      116.870193      453.189779    ;  uncertainty theta = 0.001957, k = 0.118752
        10        11        12     1      117.529312      532.909931    ;  uncertainty theta = 0.004092, k = 0.198409
        10        11        37     1      124.634438      233.175387    ;  uncertainty theta = 0.008734, k = 0.228842
        10        17        18     1      119.905045      404.402472    ;  uncertainty theta = 0.002560, k = 0.138937
        10        17        23     1      119.296005      399.447315    ;  uncertainty theta = 0.002597, k = 0.193835
        11        10        17     1      120.873863      374.041658    ;  uncertainty theta = 0.004770, k = 0.091339
        11        12        13     1      129.664673      428.594510    ;  uncertainty theta = 0.002270, k = 0.326701
        11        12        16     1      117.420059      429.560738    ;  uncertainty theta = 0.007263, k = 0.178528
        12        11        37     1      117.417358      315.021791    ;  uncertainty theta = 0.003619, k = 0.132846
        12        13        14     1      105.324829      767.668044    ;  uncertainty theta = 0.004981, k = 0.189091
        12        13        38     1      119.539230      282.399762    ;  uncertainty theta = 0.002926, k = 0.163946
        12        16        15     1      114.523727      791.406958    ;  uncertainty theta = 0.003446, k = 0.159720
        13        12        16     1      106.195152      846.636320    ;  uncertainty theta = 0.003800, k = 0.266753
        13        14        15     1      111.223167      865.900238    ;  uncertainty theta = 0.003390, k = 0.157111
        13        14        39     1      125.339600      238.965624    ;  uncertainty theta = 0.004247, k = 0.092338
        14        13        38     1      130.781433      240.351858    ;  uncertainty theta = 0.003259, k = 0.025087
        14        15        16     1      106.065872      820.721453    ;  uncertainty theta = 0.001716, k = 0.145916
        15        14        39     1      119.156937      297.238833    ;  uncertainty theta = 0.004129, k = 0.152925
        17        18        19     1      120.662674      522.574041    ;  uncertainty theta = 0.001605, k = 0.060514
        17        18        40     1      118.576355      268.607073    ;  uncertainty theta = 0.001407, k = 0.096239
        17        23        22     1      124.052773      497.573466    ;  uncertainty theta = 0.001347, k = 0.184990
        17        23        42     1      118.887619      265.731196    ;  uncertainty theta = 0.003049, k = 0.044835
        18        17        23     1      120.731262      433.443305    ;  uncertainty theta = 0.002928, k = 0.185517
        18        19        20     1      119.815369      479.732891    ;  uncertainty theta = 0.002441, k = 0.154800
        18        19        41     1      121.592850      278.532135    ;  uncertainty theta = 0.000972, k = 0.070063
        19        18        40     1      119.666664      288.196845    ;  uncertainty theta = 0.001414, k = 0.055463
        19        20        21     1      118.342239      519.857595    ;  uncertainty theta = 0.002995, k = 0.148012
        19        20        22     1      125.197632      370.819002    ;  uncertainty theta = 0.003153, k = 0.095839
        20        19        41     1      120.027748      275.329430    ;  uncertainty theta = 0.002609, k = 0.046084
        20        22        23     1      121.474014      430.751438    ;  uncertainty theta = 0.004073, k = 0.208023
        20        22        24     1      121.252457      366.584758    ;  uncertainty theta = 0.006500, k = 0.099562
        21        20        22     1      116.461914      485.698966    ;  uncertainty theta = 0.002304, k = 0.100229
        22        23        42     1      116.954811      258.347731    ;  uncertainty theta = 0.003871, k = 0.159340
        22        24        25     1      123.461960      490.644387    ;  uncertainty theta = 0.005283, k = 0.055915
        22        24        26     1      113.636414      444.977044    ;  uncertainty theta = 0.004994, k = 0.122661
        23        22        24     1      117.769371      388.618846    ;  uncertainty theta = 0.004354, k = 0.296612
        24        26        43     1      116.407913      323.246400    ;  uncertainty theta = 0.001542, k = 0.084600
        24        26        44     1      116.407913      323.246400    ;  uncertainty theta = 0.001542, k = 0.084600
        25        24        26     1      127.248215      904.714410    ;  uncertainty theta = 0.001856, k = 0.101754
        27        28        29     1      119.984230      446.391321    ;  uncertainty theta = 0.002825, k = 0.109279
        28        27        45     1      118.198837      267.442262    ;  uncertainty theta = 0.001362, k = 0.058522
        28        29        30     1      110.584335      514.931710    ;  uncertainty theta = 0.000760, k = 0.054259
        29        30        46     1      108.804810      446.467230    ;  uncertainty theta = 0.001256, k = 0.017592
        29        30        47     1      108.804810      446.467230    ;  uncertainty theta = 0.001256, k = 0.017592
        29        30        48     1      108.804810      446.467230    ;  uncertainty theta = 0.001256, k = 0.017592
        31         1        32     1      109.159256      331.008596    ;  uncertainty theta = 0.001734, k = 0.015289
        31         1        33     1      109.159256      331.008596    ;  uncertainty theta = 0.001734, k = 0.015289
        32         1        33     1      109.159256      331.008596    ;  uncertainty theta = 0.001734, k = 0.015289
        43        26        44     1      109.893188      264.743420    ;  uncertainty theta = 0.001735, k = 0.097683
        46        30        47     1      109.159256      331.008596    ;  uncertainty theta = 0.001734, k = 0.015290
        46        30        48     1      109.159256      331.008596    ;  uncertainty theta = 0.001734, k = 0.015290
        47        30        48     1      109.159256      331.008628    ;  uncertainty theta = 0.001734, k = 0.015290

[ dihedrals ] ; propers for gromacs 4.5 or higher, use funct 9
;       ai        aj        ak        al funct           phase               k        pn
         1         2         3         4     9        0.000000        1.161590         1    ;  uncertainty k = 0.424580
         1         2         3         4     9      180.000000        5.978609         2    ;  uncertainty k = 0.113714
         1         2         3         4     9        0.000000       -0.081692         3    ;  uncertainty k = 0.147719
         1         2         3         4     9      180.000000        0.002725         4    ;  uncertainty k = 0.132587
         1         2         3        28     9        0.000000        0.710048         1    ;  uncertainty k = 0.461814
         1         2         3        28     9      180.000000        5.168557         2    ;  uncertainty k = 0.168705
         1         2         3        28     9        0.000000        1.522737         3    ;  uncertainty k = 0.085019
         1         2         3        28     9      180.000000        0.086569         4    ;  uncertainty k = 0.079161
         2         3         4         5     9        0.000000        0.075453         1    ;  uncertainty k = 0.391184
         2         3         4         5     9      180.000000       11.200366         2    ;  uncertainty k = 0.281957
         2         3         4         5     9        0.000000        1.350673         3    ;  uncertainty k = 0.315697
         2         3         4         5     9      180.000000        1.737822         4    ;  uncertainty k = 0.262819
         2         3         4        34     9        0.000000       -0.165175         1    ;  uncertainty k = 0.217547
         2         3         4        34     9      180.000000        9.159951         2    ;  uncertainty k = 0.396817
         2         3         4        34     9        0.000000        0.851185         3    ;  uncertainty k = 0.126617
         2         3         4        34     9      180.000000        1.218800         4    ;  uncertainty k = 0.309716
         2         3        28        27     9        0.000000        0.515556         1    ;  uncertainty k = 0.299239
         2         3        28        27     9      180.000000        7.954903         2    ;  uncertainty k = 0.736958
         2         3        28        27     9        0.000000        1.164308         3    ;  uncertainty k = 0.363484
         2         3        28        27     9      180.000000        1.614907         4    ;  uncertainty k = 0.248125
         2         3        28        29     9        0.000000       -0.341456         1    ;  uncertainty k = 1.859913
         2         3        28        29     9      180.000000       13.064537         2    ;  uncertainty k = 0.569185
         2         3        28        29     9        0.000000        0.817588         3    ;  uncertainty k = 0.428631
         2         3        28        29     9      180.000000        1.204285         4    ;  uncertainty k = 0.526598
         3         2         1        31     9        0.000000        1.112847         1    ;  uncertainty k = 0.103175
         3         2         1        31     9      180.000000       -2.022644         2    ;  uncertainty k = 0.082864
         3         2         1        31     9        0.000000        1.040477         3    ;  uncertainty k = 0.039004
         3         2         1        31     9      180.000000        0.229250         4    ;  uncertainty k = 0.034227
         3         2         1        32     9        0.000000        1.112847         1    ;  uncertainty k = 0.103175
         3         2         1        32     9      180.000000       -2.022644         2    ;  uncertainty k = 0.082864
         3         2         1        32     9        0.000000        1.040477         3    ;  uncertainty k = 0.039004
         3         2         1        32     9      180.000000        0.229250         4    ;  uncertainty k = 0.034227
         3         2         1        33     9        0.000000        1.112847         1    ;  uncertainty k = 0.103175
         3         2         1        33     9      180.000000       -2.022644         2    ;  uncertainty k = 0.082864
         3         2         1        33     9        0.000000        1.040477         3    ;  uncertainty k = 0.039004
         3         2         1        33     9      180.000000        0.229250         4    ;  uncertainty k = 0.034227
         3         4         5         6     9        0.000000        0.022057         1    ;  uncertainty k = 0.194405
         3         4         5         6     9      180.000000       12.959076         2    ;  uncertainty k = 0.175269
         3         4         5         6     9        0.000000       -0.661284         3    ;  uncertainty k = 0.452963
         3         4         5         6     9      180.000000        0.977500         4    ;  uncertainty k = 0.267395
         3         4         5        35     9        0.000000        0.089133         1    ;  uncertainty k = 0.324049
         3         4         5        35     9      180.000000        7.832723         2    ;  uncertainty k = 0.398222
         3         4         5        35     9        0.000000        1.298747         3    ;  uncertainty k = 0.324375
         3         4         5        35     9      180.000000        1.779745         4    ;  uncertainty k = 0.055930
         3        28        27         6     9        0.000000        0.071802         1    ;  uncertainty k = 0.106893
         3        28        27         6     9      180.000000        8.578020         2    ;  uncertainty k = 0.448413
         3        28        27         6     9        0.000000        0.405195         3    ;  uncertainty k = 0.328173
         3        28        27         6     9      180.000000        1.390162         4    ;  uncertainty k = 0.291061
         3        28        27        45     9        0.000000        0.127329         1    ;  uncertainty k = 0.442115
         3        28        27        45     9      180.000000        6.705908         2    ;  uncertainty k = 0.374607
         3        28        27        45     9        0.000000        1.449705         3    ;  uncertainty k = 0.216502
         3        28        27        45     9      180.000000        1.651952         4    ;  uncertainty k = 0.099448
         3        28        29        30     9        0.000000        0.964833         1    ;  uncertainty k = 0.487894
         3        28        29        30     9      180.000000        5.588064         2    ;  uncertainty k = 0.185698
         3        28        29        30     9        0.000000        1.649424         3    ;  uncertainty k = 0.107622
         3        28        29        30     9      180.000000        0.043020         4    ;  uncertainty k = 0.050223
         4         3        28        27     9        0.000000       -0.246361         1    ;  uncertainty k = 0.323015
         4         3        28        27     9      180.000000        5.364289         2    ;  uncertainty k = 1.281071
         4         3        28        27     9        0.000000        0.277799         3    ;  uncertainty k = 0.286511
         4         3        28        27     9      180.000000        1.297118         4    ;  uncertainty k = 0.309451
         4         3        28        29     9        0.000000        0.651705         1    ;  uncertainty k = 0.176594
         4         3        28        29     9      180.000000        7.590394         2    ;  uncertainty k = 0.603024
         4         3        28        29     9        0.000000        1.174713         3    ;  uncertainty k = 0.330890
         4         3        28        29     9      180.000000        1.724084         4    ;  uncertainty k = 0.232454
         4         5         6         7     9        0.000000        0.058897         1    ;  uncertainty k = 0.517002
         4         5         6         7     9      180.000000        9.907040         2    ;  uncertainty k = 0.506714
         4         5         6         7     9        0.000000        0.979239         3    ;  uncertainty k = 0.327123
         4         5         6         7     9      180.000000        1.580944         4    ;  uncertainty k = 0.224706
         4         5         6        27     9        0.000000       -0.065841         1    ;  uncertainty k = 0.278588
         4         5         6        27     9      180.000000        9.979296         2    ;  uncertainty k = 0.397780
         4         5         6        27     9        0.000000       -0.194578         3    ;  uncertainty k = 0.190668
         4         5         6        27     9      180.000000        1.171069         4    ;  uncertainty k = 0.255361
         5         4         3        28     9        0.000000        0.085734         1    ;  uncertainty k = 0.237541
         5         4         3        28     9      180.000000        8.042168         2    ;  uncertainty k = 0.816838
         5         4         3        28     9        0.000000        0.289471         3    ;  uncertainty k = 0.178601
         5         4         3        28     9      180.000000        1.427392         4    ;  uncertainty k = 0.249188
         5         6         7         8     9        0.000000        1.717569         1    ;  uncertainty k = 0.660151
         5         6         7         8     9      180.000000        5.521741         2    ;  uncertainty k = 0.179949
         5         6         7         8     9        0.000000        0.912155         3    ;  uncertainty k = 0.268355
         5         6         7         8     9      180.000000        0.224590         4    ;  uncertainty k = 0.108908
         5         6         7        36     9        0.000000        2.355176         1    ;  uncertainty k = 0.449212
         5         6         7        36     9      180.000000        4.348203         2    ;  uncertainty k = 0.302695
         5         6         7        36     9        0.000000        0.613845         3    ;  uncertainty k = 0.145998
         5         6         7        36     9      180.000000        0.455801         4    ;  uncertainty k = 0.028343
         5         6        27        28     9        0.000000        0.019455         1    ;  uncertainty k = 0.133757
         5         6        27        28     9      180.000000        8.784468         2    ;  uncertainty k = 0.478984
         5         6        27        28     9        0.000000        0.119276         3    ;  uncertainty k = 0.283810
         5         6        27        28     9      180.000000        1.288078         4    ;  uncertainty k = 0.208847
         5         6        27        45     9        0.000000        0.155297         1    ;  uncertainty k = 0.281422
         5         6        27        45     9      180.000000        6.373831         2    ;  uncertainty k = 0.633801
         5         6        27        45     9        0.000000        1.253627         3    ;  uncertainty k = 0.220579
         5         6        27        45     9      180.000000        1.460767         4    ;  uncertainty k = 0.207379
         6         5         4        34     9        0.000000       -0.099823         1    ;  uncertainty k = 0.241524
         6         5         4        34     9      180.000000        7.800452         2    ;  uncertainty k = 0.321389
         6         5         4        34     9        0.000000        1.212039         3    ;  uncertainty k = 0.364603
         6         5         4        34     9      180.000000        1.643100         4    ;  uncertainty k = 0.155684
         6         7         8         9     9        0.000000        4.371472         1    ;  uncertainty k = 1.288133
         6         7         8         9     9      180.000000       10.778641         2    ;  uncertainty k = 0.228702
         6         7         8         9     9        0.000000        0.680673         3    ;  uncertainty k = 0.311323
         6         7         8         9     9      180.000000       -0.507606         4    ;  uncertainty k = 0.056382
         6         7         8        16     9        0.000000        7.039559         1    ;  uncertainty k = 0.599174
         6         7         8        16     9      180.000000        8.681781         2    ;  uncertainty k = 0.097887
         6         7         8        16     9        0.000000        0.920441         3    ;  uncertainty k = 0.381757
         6         7         8        16     9      180.000000       -0.164553         4    ;  uncertainty k = 0.221364
         6        27        28        29     9        0.000000        0.152072         1    ;  uncertainty k = 0.236865
         6        27        28        29     9      180.000000       11.350413         2    ;  uncertainty k = 0.544002
         6        27        28        29     9        0.000000        1.355669         3    ;  uncertainty k = 0.349766
         6        27        28        29     9      180.000000        1.696486         4    ;  uncertainty k = 0.237430
         7         6         5        35     9        0.000000       -0.291936         1    ;  uncertainty k = 0.233190
         7         6         5        35     9      180.000000        7.944711         2    ;  uncertainty k = 0.164350
         7         6         5        35     9        0.000000        0.918004         3    ;  uncertainty k = 0.228756
         7         6         5        35     9      180.000000        1.083856         4    ;  uncertainty k = 0.164907
         7         6        27        28     9        0.000000        0.148911         1    ;  uncertainty k = 0.574988
         7         6        27        28     9      180.000000        9.899588         2    ;  uncertainty k = 0.247388
         7         6        27        28     9        0.000000        1.000997         3    ;  uncertainty k = 0.351814
         7         6        27        28     9      180.000000        1.610986         4    ;  uncertainty k = 0.137508
         7         6        27        45     9        0.000000       -0.272934         1    ;  uncertainty k = 0.329125
         7         6        27        45     9      180.000000        7.865305         2    ;  uncertainty k = 0.242076
         7         6        27        45     9        0.000000        0.914516         3    ;  uncertainty k = 0.283703
         7         6        27        45     9      180.000000        1.068016         4    ;  uncertainty k = 0.243003
         7         8         9        10     9        0.000000        1.093749         1    ;  uncertainty k = 1.036215
         7         8         9        10     9      180.000000       17.904277         2    ;  uncertainty k = 0.458529
         7         8         9        10     9        0.000000        2.916476         3    ;  uncertainty k = 0.276349
         7         8         9        10     9      180.000000        1.662492         4    ;  uncertainty k = 0.298464
         7         8        16        12     9        0.000000       -0.953522         1    ;  uncertainty k = 0.960772
         7         8        16        12     9      180.000000        5.426483         2    ;  uncertainty k = 0.732995
         7         8        16        12     9        0.000000        0.463830         3    ;  uncertainty k = 0.276198
         7         8        16        12     9      180.000000        0.425035         4    ;  uncertainty k = 0.145521
         7         8        16        15     9        0.000000       -0.723785         1    ;  uncertainty k = 0.708754
         7         8        16        15     9      180.000000        4.584250         2    ;  uncertainty k = 1.077487
         7         8        16        15     9        0.000000        0.569780         3    ;  uncertainty k = 0.418447
         7         8        16        15     9      180.000000        0.322209         4    ;  uncertainty k = 0.225420
         8         7         6        27     9        0.000000        1.597949         1    ;  uncertainty k = 0.980885
         8         7         6        27     9      180.000000        5.574010         2    ;  uncertainty k = 0.231880
         8         7         6        27     9        0.000000        0.917733         3    ;  uncertainty k = 0.237919
         8         7         6        27     9      180.000000        0.218590         4    ;  uncertainty k = 0.147859
         8         9        10        11     9        0.000000        0.939473         1    ;  uncertainty k = 1.501292
         8         9        10        11     9      180.000000        5.478745         2    ;  uncertainty k = 1.436527
         8         9        10        11     9        0.000000        1.155133         3    ;  uncertainty k = 0.833321
         8         9        10        11     9      180.000000        0.505236         4    ;  uncertainty k = 0.531950
         8         9        10        17     9        0.000000        0.847267         1    ;  uncertainty k = 1.273930
         8         9        10        17     9      180.000000        9.165287         2    ;  uncertainty k = 0.730513
         8         9        10        17     9        0.000000        1.571870         3    ;  uncertainty k = 0.540714
         8         9        10        17     9      180.000000        0.416530         4    ;  uncertainty k = 0.287713
         8        16        12        11     9        0.000000       -0.074403         1    ;  uncertainty k = 0.950775
         8        16        12        11     9      180.000000        5.131695         2    ;  uncertainty k = 1.540544
         8        16        12        11     9        0.000000        1.364864         3    ;  uncertainty k = 0.461387
         8        16        12        11     9      180.000000        0.396564         4    ;  uncertainty k = 0.312989
         8        16        12        13     9        0.000000        0.340421         1    ;  uncertainty k = 0.792595
         8        16        12        13     9      180.000000        6.024515         2    ;  uncertainty k = 0.492566
         8        16        12        13     9        0.000000        0.209998         3    ;  uncertainty k = 0.527723
         8        16        12        13     9      180.000000        0.585310         4    ;  uncertainty k = 0.374830
         8        16        15        14     9        0.000000       -0.258736         1    ;  uncertainty k = 0.813751
         8        16        15        14     9      180.000000       16.417004         2    ;  uncertainty k = 0.455553
         8        16        15        14     9        0.000000        0.694004         3    ;  uncertainty k = 0.637623
         8        16        15        14     9      180.000000        1.345365         4    ;  uncertainty k = 0.597909
         9         8         7        36     9        0.000000        8.922955         1    ;  uncertainty k = 0.590684
         9         8         7        36     9      180.000000        9.664259         2    ;  uncertainty k = 0.294391
         9         8         7        36     9        0.000000        1.087484         3    ;  uncertainty k = 0.311608
         9         8         7        36     9      180.000000       -0.057210         4    ;  uncertainty k = 0.149117
         9         8        16        12     9        0.000000       -0.501338         1    ;  uncertainty k = 0.640960
         9         8        16        12     9      180.000000        6.017651         2    ;  uncertainty k = 0.720253
         9         8        16        12     9        0.000000       -0.364995         3    ;  uncertainty k = 0.314830
         9         8        16        12     9      180.000000        0.566313         4    ;  uncertainty k = 0.158573
         9         8        16        15     9        0.000000       -1.422782         1    ;  uncertainty k = 2.244569
         9         8        16        15     9      180.000000        4.485013         2    ;  uncertainty k = 0.589709
         9         8        16        15     9        0.000000        0.451575         3    ;  uncertainty k = 0.408180
         9         8        16        15     9      180.000000        0.387928         4    ;  uncertainty k = 0.297232
         9        10        11        12     9        0.000000        0.000363         1    ;  uncertainty k = 0.567485
         9        10        11        12     9      180.000000       21.321779         2    ;  uncertainty k = 0.622601
         9        10        11        12     9        0.000000        0.535648         3    ;  uncertainty k = 0.315066
         9        10        11        12     9      180.000000        0.534100         4    ;  uncertainty k = 0.517790
         9        10        11        37     9        0.000000        0.400300         1    ;  uncertainty k = 0.999409
         9        10        11        37     9      180.000000       12.773518         2    ;  uncertainty k = 0.371019
         9        10        11        37     9        0.000000        1.630575         3    ;  uncertainty k = 0.622599
         9        10        11        37     9      180.000000        1.089831         4    ;  uncertainty k = 0.430455
         9        10        17        18     9        0.000000       -0.697073         1    ;  uncertainty k = 1.509016
         9        10        17        18     9      180.000000        4.851493         2    ;  uncertainty k = 0.119025
         9        10        17        18     9        0.000000        0.395444         3    ;  uncertainty k = 0.173842
         9        10        17        18     9      180.000000        0.099000         4    ;  uncertainty k = 0.123197
         9        10        17        23     9        0.000000       -0.124072         1    ;  uncertainty k = 1.447676
         9        10        17        23     9      180.000000        4.775159         2    ;  uncertainty k = 0.208025
         9        10        17        23     9        0.000000        0.333042         3    ;  uncertainty k = 0.129937
         9        10        17        23     9      180.000000        0.079886         4    ;  uncertainty k = 0.137914
        10         9         8        16     9        0.000000       -0.079278         1    ;  uncertainty k = 2.218226
        10         9         8        16     9      180.000000       13.592964         2    ;  uncertainty k = 0.610320
        10         9         8        16     9        0.000000        2.514815         3    ;  uncertainty k = 0.854000
        10         9         8        16     9      180.000000        1.355385         4    ;  uncertainty k = 0.396240
        10        11        12        13     9        0.000000        0.426659         1    ;  uncertainty k = 1.499796
        10        11        12        13     9      180.000000        4.652439         2    ;  uncertainty k = 0.599161
        10        11        12        13     9        0.000000        0.715391         3    ;  uncertainty k = 0.332561
        10        11        12        13     9      180.000000        0.335558         4    ;  uncertainty k = 0.092544
        10        11        12        16     9        0.000000       -0.092029         1    ;  uncertainty k = 1.657469
        10        11        12        16     9      180.000000        6.297307         2    ;  uncertainty k = 0.496588
        10        11        12        16     9        0.000000       -0.827331         3    ;  uncertainty k = 0.837728
        10        11        12        16     9      180.000000        0.591428         4    ;  uncertainty k = 0.145931
        10        17        18        19     9        0.000000        0.066914         1    ;  uncertainty k = 0.149869
        10        17        18        19     9      180.000000        9.070597         2    ;  uncertainty k = 0.608388
        10        17        18        19     9        0.000000        1.205291         3    ;  uncertainty k = 0.309947
        10        17        18        19     9      180.000000        1.744776         4    ;  uncertainty k = 0.246528
        10        17        18        40     9        0.000000        0.020587         1    ;  uncertainty k = 0.207766
        10        17        18        40     9      180.000000        7.010273         2    ;  uncertainty k = 0.359744
        10        17        18        40     9        0.000000        0.694093         3    ;  uncertainty k = 0.262248
        10        17        18        40     9      180.000000        1.144111         4    ;  uncertainty k = 0.180790
        10        17        23        22     9        0.000000        0.101522         1    ;  uncertainty k = 0.230148
        10        17        23        22     9      180.000000        8.375103         2    ;  uncertainty k = 0.522747
        10        17        23        22     9        0.000000        1.119886         3    ;  uncertainty k = 0.185022
        10        17        23        22     9      180.000000        1.772252         4    ;  uncertainty k = 0.182248
        10        17        23        42     9        0.000000        0.093477         1    ;  uncertainty k = 0.298941
        10        17        23        42     9      180.000000        7.270047         2    ;  uncertainty k = 0.206564
        10        17        23        42     9        0.000000        0.757241         3    ;  uncertainty k = 0.216985
        10        17        23        42     9      180.000000        1.292663         4    ;  uncertainty k = 0.171475
        11        10        17        18     9        0.000000       -0.077440         1    ;  uncertainty k = 0.473840
        11        10        17        18     9      180.000000        3.760917         2    ;  uncertainty k = 0.323084
        11        10        17        18     9        0.000000        0.777046         3    ;  uncertainty k = 0.221545
        11        10        17        18     9      180.000000       -0.335729         4    ;  uncertainty k = 0.134592
        11        10        17        23     9        0.000000       -0.307518         1    ;  uncertainty k = 0.585945
        11        10        17        23     9      180.000000        3.709264         2    ;  uncertainty k = 0.306147
        11        10        17        23     9        0.000000        0.920660         3    ;  uncertainty k = 0.209514
        11        10        17        23     9      180.000000       -0.323252         4    ;  uncertainty k = 0.142481
        11        12        13        14     9        0.000000        0.230793         1    ;  uncertainty k = 1.269739
        11        12        13        14     9      180.000000        9.569834         2    ;  uncertainty k = 0.766860
        11        12        13        14     9        0.000000        0.431848         3    ;  uncertainty k = 0.749472
        11        12        13        14     9      180.000000        0.562970         4    ;  uncertainty k = 0.317996
        11        12        13        38     9        0.000000        0.582735         1    ;  uncertainty k = 1.282918
        11        12        13        38     9      180.000000        2.797133         2    ;  uncertainty k = 1.416072
        11        12        13        38     9        0.000000        1.235337         3    ;  uncertainty k = 0.396602
        11        12        13        38     9      180.000000        0.134008         4    ;  uncertainty k = 0.120872
        11        12        16        15     9        0.000000        0.339778         1    ;  uncertainty k = 0.557633
        11        12        16        15     9      180.000000        8.702718         2    ;  uncertainty k = 0.552036
        11        12        16        15     9        0.000000        0.461034         3    ;  uncertainty k = 0.395644
        11        12        16        15     9      180.000000        0.883729         4    ;  uncertainty k = 0.214014
        12        11        10        17     9        0.000000        0.565550         1    ;  uncertainty k = 0.269275
        12        11        10        17     9      180.000000       17.781812         2    ;  uncertainty k = 0.392570
        12        11        10        17     9        0.000000        1.853542         3    ;  uncertainty k = 0.442721
        12        11        10        17     9      180.000000        0.747522         4    ;  uncertainty k = 0.223136
        12        13        14        15     9        0.000000       -0.424259         1    ;  uncertainty k = 0.720471
        12        13        14        15     9      180.000000       21.948844         2    ;  uncertainty k = 0.272817
        12        13        14        15     9        0.000000       -9.453916         3    ;  uncertainty k = 0.408148
        12        13        14        15     9      180.000000        1.578950         4    ;  uncertainty k = 0.654473
        12        13        14        39     9        0.000000        0.427383         1    ;  uncertainty k = 0.828520
        12        13        14        39     9      180.000000       13.870596         2    ;  uncertainty k = 0.182398
        12        13        14        39     9        0.000000        1.815389         3    ;  uncertainty k = 0.320274
        12        13        14        39     9      180.000000        0.903574         4    ;  uncertainty k = 0.223947
        12        16        15        14     9        0.000000       -0.698106         1    ;  uncertainty k = 0.543243
        12        16        15        14     9      180.000000       23.970051         2    ;  uncertainty k = 0.495895
        12        16        15        14     9        0.000000      -11.206153         3    ;  uncertainty k = 1.161985
        12        16        15        14     9      180.000000        1.981051         4    ;  uncertainty k = 0.603215
        13        12        11        37     9        0.000000        1.227128         1    ;  uncertainty k = 1.232867
        13        12        11        37     9      180.000000        2.938475         2    ;  uncertainty k = 1.102516
        13        12        11        37     9        0.000000        1.033215         3    ;  uncertainty k = 0.512498
        13        12        11        37     9      180.000000        0.184975         4    ;  uncertainty k = 0.169272
        13        12        16        15     9        0.000000       -0.600194         1    ;  uncertainty k = 0.427509
        13        12        16        15     9      180.000000       12.032075         2    ;  uncertainty k = 0.540572
        13        12        16        15     9        0.000000       -4.884606         3    ;  uncertainty k = 1.243656
        13        12        16        15     9      180.000000        1.176890         4    ;  uncertainty k = 0.463084
        13        14        15        16     9        0.000000       -0.719371         1    ;  uncertainty k = 0.806440
        13        14        15        16     9      180.000000       16.306391         2    ;  uncertainty k = 0.372137
        13        14        15        16     9        0.000000       -5.546726         3    ;  uncertainty k = 0.784851
        13        14        15        16     9      180.000000        2.138755         4    ;  uncertainty k = 0.319469
        14        13        12        16     9        0.000000        0.425340         1    ;  uncertainty k = 0.911889
        14        13        12        16     9      180.000000       13.121731         2    ;  uncertainty k = 1.266973
        14        13        12        16     9        0.000000      -13.119121         3    ;  uncertainty k = 1.817832
        14        13        12        16     9      180.000000        1.693366         4    ;  uncertainty k = 0.377703
        15        14        13        38     9        0.000000       -0.210816         1    ;  uncertainty k = 0.409318
        15        14        13        38     9      180.000000       14.525460         2    ;  uncertainty k = 0.474526
        15        14        13        38     9        0.000000        1.399987         3    ;  uncertainty k = 0.472591
        15        14        13        38     9      180.000000        0.597840         4    ;  uncertainty k = 0.116226
        16         8         7        36     9        0.000000        5.299478         1    ;  uncertainty k = 1.071663
        16         8         7        36     9      180.000000        6.121003         2    ;  uncertainty k = 0.320629
        16         8         7        36     9        0.000000        1.371092         3    ;  uncertainty k = 0.426496
        16         8         7        36     9      180.000000       -0.017304         4    ;  uncertainty k = 0.216319
        16        12        11        37     9        0.000000        1.224015         1    ;  uncertainty k = 1.441618
        16        12        11        37     9      180.000000        4.285563         2    ;  uncertainty k = 0.541130
        16        12        11        37     9        0.000000        1.126047         3    ;  uncertainty k = 0.359169
        16        12        11        37     9      180.000000        0.200397         4    ;  uncertainty k = 0.127762
        16        12        13        38     9        0.000000        0.337817         1    ;  uncertainty k = 0.998519
        16        12        13        38     9      180.000000        7.392009         2    ;  uncertainty k = 0.385665
        16        12        13        38     9        0.000000        1.061986         3    ;  uncertainty k = 0.365240
        16        12        13        38     9      180.000000        0.171584         4    ;  uncertainty k = 0.281011
        16        15        14        39     9        0.000000       -0.095582         1    ;  uncertainty k = 0.393923
        16        15        14        39     9      180.000000       14.177386         2    ;  uncertainty k = 0.352374
        16        15        14        39     9        0.000000        1.588169         3    ;  uncertainty k = 0.688228
        16        15        14        39     9      180.000000        0.904862         4    ;  uncertainty k = 0.448977
        17        10        11        37     9        0.000000       -0.247179         1    ;  uncertainty k = 0.389691
        17        10        11        37     9      180.000000        9.490174         2    ;  uncertainty k = 0.547711
        17        10        11        37     9        0.000000        1.516875         3    ;  uncertainty k = 0.336786
        17        10        11        37     9      180.000000        1.005539         4    ;  uncertainty k = 0.145000
        17        18        19        20     9        0.000000        0.125885         1    ;  uncertainty k = 0.318272
        17        18        19        20     9      180.000000       13.531585         2    ;  uncertainty k = 0.427318
        17        18        19        20     9        0.000000       -0.771757         3    ;  uncertainty k = 0.224602
        17        18        19        20     9      180.000000        0.894470         4    ;  uncertainty k = 0.330955
        17        18        19        41     9        0.000000        0.165309         1    ;  uncertainty k = 0.114480
        17        18        19        41     9      180.000000        7.906611         2    ;  uncertainty k = 0.399910
        17        18        19        41     9        0.000000        1.419109         3    ;  uncertainty k = 0.258863
        17        18        19        41     9      180.000000        1.874715         4    ;  uncertainty k = 0.170803
        17        23        22        20     9        0.000000        0.007596         1    ;  uncertainty k = 0.095658
        17        23        22        20     9      180.000000       10.132194         2    ;  uncertainty k = 0.389200
        17        23        22        20     9        0.000000        0.267413         3    ;  uncertainty k = 0.135428
        17        23        22        20     9      180.000000        1.260263         4    ;  uncertainty k = 0.311174
        17        23        22        24     9        0.000000        0.583099         1    ;  uncertainty k = 0.402834
        17        23        22        24     9      180.000000        8.775075         2    ;  uncertainty k = 0.818757
        17        23        22        24     9        0.000000        1.741690         3    ;  uncertainty k = 0.300671
        17        23        22        24     9      180.000000        1.864790         4    ;  uncertainty k = 0.368269
        18        17        23        22     9        0.000000        0.135011         1    ;  uncertainty k = 0.198567
        18        17        23        22     9      180.000000        9.379346         2    ;  uncertainty k = 0.450528
        18        17        23        22     9        0.000000        0.020632         3    ;  uncertainty k = 0.139377
        18        17        23        22     9      180.000000        1.186020         4    ;  uncertainty k = 0.201958
        18        17        23        42     9        0.000000        0.212378         1    ;  uncertainty k = 0.158171
        18        17        23        42     9      180.000000        7.265649         2    ;  uncertainty k = 0.560506
        18        17        23        42     9        0.000000        1.256135         3    ;  uncertainty k = 0.128587
        18        17        23        42     9      180.000000        1.632528         4    ;  uncertainty k = 0.253230
        18        19        20        21     9        0.000000        0.030692         1    ;  uncertainty k = 0.301077
        18        19        20        21     9      180.000000       12.276469         2    ;  uncertainty k = 0.253909
        18        19        20        21     9        0.000000        1.353386         3    ;  uncertainty k = 0.228800
        18        19        20        21     9      180.000000        1.573419         4    ;  uncertainty k = 0.100549
        18        19        20        22     9        0.000000        0.053546         1    ;  uncertainty k = 0.169038
        18        19        20        22     9      180.000000        7.540135         2    ;  uncertainty k = 0.448374
        18        19        20        22     9        0.000000        0.225135         3    ;  uncertainty k = 0.342564
        18        19        20        22     9      180.000000        1.315403         4    ;  uncertainty k = 0.237589
        19        18        17        23     9        0.000000       -0.049334         1    ;  uncertainty k = 0.175768
        19        18        17        23     9      180.000000       10.658120         2    ;  uncertainty k = 0.337422
        19        18        17        23     9        0.000000       -0.607297         3    ;  uncertainty k = 0.199486
        19        18        17        23     9      180.000000        0.959228         4    ;  uncertainty k = 0.176505
        19        20        22        23     9        0.000000       -0.267849         1    ;  uncertainty k = 0.195823
        19        20        22        23     9      180.000000        6.184860         2    ;  uncertainty k = 0.622992
        19        20        22        23     9        0.000000        0.157669         3    ;  uncertainty k = 0.221307
        19        20        22        23     9      180.000000        1.292262         4    ;  uncertainty k = 0.254497
        19        20        22        24     9        0.000000        0.154439         1    ;  uncertainty k = 0.784275
        19        20        22        24     9      180.000000        5.861559         2    ;  uncertainty k = 0.424400
        19        20        22        24     9        0.000000        1.377838         3    ;  uncertainty k = 0.151689
        19        20        22        24     9      180.000000        1.700133         4    ;  uncertainty k = 0.231674
        20        19        18        40     9        0.000000        0.015584         1    ;  uncertainty k = 0.157243
        20        19        18        40     9      180.000000        7.571343         2    ;  uncertainty k = 0.315873
        20        19        18        40     9        0.000000        1.301014         3    ;  uncertainty k = 0.231991
        20        19        18        40     9      180.000000        1.808020         4    ;  uncertainty k = 0.148010
        20        22        23        42     9        0.000000        0.272468         1    ;  uncertainty k = 0.460032
        20        22        23        42     9      180.000000        7.676801         2    ;  uncertainty k = 0.321148
        20        22        23        42     9        0.000000        1.229534         3    ;  uncertainty k = 0.267810
        20        22        23        42     9      180.000000        1.638115         4    ;  uncertainty k = 0.150654
        20        22        24        25     9        0.000000       -2.681797         1    ;  uncertainty k = 0.296628
        20        22        24        25     9      180.000000        4.051187         2    ;  uncertainty k = 0.390591
        20        22        24        25     9        0.000000        0.540639         3    ;  uncertainty k = 0.234322
        20        22        24        25     9      180.000000        0.062681         4    ;  uncertainty k = 0.143978
        20        22        24        26     9        0.000000        0.768844         1    ;  uncertainty k = 1.177547
        20        22        24        26     9      180.000000        2.957724         2    ;  uncertainty k = 0.315130
        20        22        24        26     9        0.000000        0.171301         3    ;  uncertainty k = 0.194744
        20        22        24        26     9      180.000000        0.028578         4    ;  uncertainty k = 0.047581
        21        20        19        41     9        0.000000       -0.251500         1    ;  uncertainty k = 0.301069
        21        20        19        41     9      180.000000        9.423241         2    ;  uncertainty k = 0.291968
        21        20        19        41     9        0.000000        0.792394         3    ;  uncertainty k = 0.224611
        21        20        19        41     9      180.000000        1.071352         4    ;  uncertainty k = 0.236574
        21        20        22        23     9        0.000000        0.299337         1    ;  uncertainty k = 0.361522
        21        20        22        23     9      180.000000        9.910051         2    ;  uncertainty k = 0.357874
        21        20        22        23     9        0.000000        1.515958         3    ;  uncertainty k = 0.242733
        21        20        22        23     9      180.000000        1.573495         4    ;  uncertainty k = 0.179642
        21        20        22        24     9        0.000000       -0.060706         1    ;  uncertainty k = 0.440330
        21        20        22        24     9      180.000000       10.048922         2    ;  uncertainty k = 0.484709
        21        20        22        24     9        0.000000        1.569755         3    ;  uncertainty k = 0.184268
        21        20        22        24     9      180.000000        1.341465         4    ;  uncertainty k = 0.197982
        22        20        19        41     9        0.000000       -0.012499         1    ;  uncertainty k = 0.604919
        22        20        19        41     9      180.000000        5.388946         2    ;  uncertainty k = 0.611606
        22        20        19        41     9        0.000000        1.295015         3    ;  uncertainty k = 0.270339
        22        20        19        41     9      180.000000        1.544354         4    ;  uncertainty k = 0.129276
        22        24        26        43     9        0.000000        1.248506         1    ;  uncertainty k = 1.132537
        22        24        26        43     9      180.000000        8.465444         2    ;  uncertainty k = 0.382685
        22        24        26        43     9        0.000000        2.937605         3    ;  uncertainty k = 0.316604
        22        24        26        43     9      180.000000       -0.411081         4    ;  uncertainty k = 0.296264
        22        24        26        44     9        0.000000        1.248506         1    ;  uncertainty k = 1.132537
        22        24        26        44     9      180.000000        8.465444         2    ;  uncertainty k = 0.382685
        22        24        26        44     9        0.000000        2.937605         3    ;  uncertainty k = 0.316604
        22        24        26        44     9      180.000000       -0.411081         4    ;  uncertainty k = 0.296264
        23        17        18        40     9        0.000000        0.216288         1    ;  uncertainty k = 0.115706
        23        17        18        40     9      180.000000        6.692707         2    ;  uncertainty k = 0.437017
        23        17        18        40     9        0.000000        1.269126         3    ;  uncertainty k = 0.238235
        23        17        18        40     9      180.000000        1.631508         4    ;  uncertainty k = 0.231603
        23        22        24        25     9        0.000000       -0.878485         1    ;  uncertainty k = 0.578774
        23        22        24        25     9      180.000000        3.558914         2    ;  uncertainty k = 0.210862
        23        22        24        25     9        0.000000        0.340894         3    ;  uncertainty k = 0.197906
        23        22        24        25     9      180.000000        0.006708         4    ;  uncertainty k = 0.014339
        23        22        24        26     9        0.000000        0.117454         1    ;  uncertainty k = 1.197170
        23        22        24        26     9      180.000000        3.239819         2    ;  uncertainty k = 0.232859
        23        22        24        26     9        0.000000        0.631320         3    ;  uncertainty k = 0.323364
        23        22        24        26     9      180.000000       -0.104644         4    ;  uncertainty k = 0.166753
        24        22        23        42     9        0.000000       -0.063534         1    ;  uncertainty k = 0.587606
        24        22        23        42     9      180.000000        8.215336         2    ;  uncertainty k = 0.548642
        24        22        23        42     9        0.000000        1.141222         3    ;  uncertainty k = 0.309761
        24        22        23        42     9      180.000000        1.316772         4    ;  uncertainty k = 0.282592
        25        24        26        43     9        0.000000        3.994954         1    ;  uncertainty k = 1.188045
        25        24        26        43     9      180.000000       12.090800         2    ;  uncertainty k = 0.220197
        25        24        26        43     9        0.000000        2.067680         3    ;  uncertainty k = 0.119130
        25        24        26        43     9      180.000000        0.266795         4    ;  uncertainty k = 0.289845
        25        24        26        44     9        0.000000        3.994954         1    ;  uncertainty k = 1.188045
        25        24        26        44     9      180.000000       12.090800         2    ;  uncertainty k = 0.220197
        25        24        26        44     9        0.000000        2.067680         3    ;  uncertainty k = 0.119130
        25        24        26        44     9      180.000000        0.266795         4    ;  uncertainty k = 0.289845
        27         6         5        35     9        0.000000        0.060116         1    ;  uncertainty k = 0.285327
        27         6         5        35     9      180.000000        6.705137         2    ;  uncertainty k = 0.811645
        27         6         5        35     9        0.000000        1.254749         3    ;  uncertainty k = 0.282861
        27         6         5        35     9      180.000000        1.489480         4    ;  uncertainty k = 0.123486
        27         6         7        36     9        0.000000        3.766903         1    ;  uncertainty k = 0.282406
        27         6         7        36     9      180.000000        4.224135         2    ;  uncertainty k = 0.219472
        27         6         7        36     9        0.000000        0.731781         3    ;  uncertainty k = 0.239894
        27         6         7        36     9      180.000000        0.435986         4    ;  uncertainty k = 0.107235
        27        28        29        30     9        0.000000        1.341409         1    ;  uncertainty k = 0.791973
        27        28        29        30     9      180.000000        6.361826         2    ;  uncertainty k = 0.220151
        27        28        29        30     9        0.000000       -0.225719         3    ;  uncertainty k = 0.095998
        27        28        29        30     9      180.000000        0.006631         4    ;  uncertainty k = 0.110606
        28         3         4        34     9        0.000000       -0.032441         1    ;  uncertainty k = 0.368382
        28         3         4        34     9      180.000000        5.959632         2    ;  uncertainty k = 0.432853
        28         3         4        34     9        0.000000        1.321132         3    ;  uncertainty k = 0.261791
        28         3         4        34     9      180.000000        1.598351         4    ;  uncertainty k = 0.068542
        28        29        30        46     9        0.000000        1.110243         1    ;  uncertainty k = 0.221947
        28        29        30        46     9      180.000000       -2.083404         2    ;  uncertainty k = 0.117430
        28        29        30        46     9        0.000000        1.033193         3    ;  uncertainty k = 0.049823
        28        29        30        46     9      180.000000        0.223294         4    ;  uncertainty k = 0.039928
        28        29        30        47     9        0.000000        1.110243         1    ;  uncertainty k = 0.221947
        28        29        30        47     9      180.000000       -2.083404         2    ;  uncertainty k = 0.117430
        28        29        30        47     9        0.000000        1.033193         3    ;  uncertainty k = 0.049823
        28        29        30        47     9      180.000000        0.223294         4    ;  uncertainty k = 0.039928
        28        29        30        48     9        0.000000        1.110243         1    ;  uncertainty k = 0.221947
        28        29        30        48     9      180.000000       -2.083404         2    ;  uncertainty k = 0.117430
        28        29        30        48     9        0.000000        1.033193         3    ;  uncertainty k = 0.049823
        28        29        30        48     9      180.000000        0.223294         4    ;  uncertainty k = 0.039928
        29        28        27        45     9        0.000000       -0.013362         1    ;  uncertainty k = 0.227812
        29        28        27        45     9      180.000000        9.629865         2    ;  uncertainty k = 0.341224
        29        28        27        45     9        0.000000        0.885574         3    ;  uncertainty k = 0.134168
        29        28        27        45     9      180.000000        1.294493         4    ;  uncertainty k = 0.314813
        34         4         5        35     9        0.000000       -0.108356         1    ;  uncertainty k = 0.187628
        34         4         5        35     9      180.000000        7.451232         2    ;  uncertainty k = 0.478631
        34         4         5        35     9        0.000000       -0.297348         3    ;  uncertainty k = 0.298879
        34         4         5        35     9      180.000000        0.257401         4    ;  uncertainty k = 0.173209
        38        13        14        39     9        0.000000       -0.311075         1    ;  uncertainty k = 0.492453
        38        13        14        39     9      180.000000        5.384359         2    ;  uncertainty k = 0.598234
        38        13        14        39     9        0.000000        1.243313         3    ;  uncertainty k = 0.430720
        38        13        14        39     9      180.000000        0.271791         4    ;  uncertainty k = 0.092255
        40        18        19        41     9        0.000000       -0.110375         1    ;  uncertainty k = 0.187114
        40        18        19        41     9      180.000000        7.927844         2    ;  uncertainty k = 0.304114
        40        18        19        41     9        0.000000       -0.456437         3    ;  uncertainty k = 0.217681
        40        18        19        41     9      180.000000        0.166529         4    ;  uncertainty k = 0.163443

[ dihedrals ] ; impropers
;       ai        aj        ak        al funct           phase               k        pn
         3         2         4        28     4      180.000000       15.206029         2    ;  uncertainty k = 0.074967
         3         4        28         2     4      180.000000       15.206029         2    ;  uncertainty k = 0.074967
         3        28         2         4     4      180.000000       15.206029         2    ;  uncertainty k = 0.074967
         4         3         5        34     4      180.000000        2.008335         2    ;  uncertainty k = 0.230964
         4         5        34         3     4      180.000000        2.008335         2    ;  uncertainty k = 0.230964
         4        34         3         5     4      180.000000        2.008335         2    ;  uncertainty k = 0.230964
         5         4         6        35     4      180.000000        2.607477         2    ;  uncertainty k = 0.379217
         5         6        35         4     4      180.000000        2.607477         2    ;  uncertainty k = 0.379217
         5        35         4         6     4      180.000000        2.607477         2    ;  uncertainty k = 0.379217
         6         5         7        27     4      180.000000       17.507517         2    ;  uncertainty k = 0.057196
         6         7        27         5     4      180.000000       17.507517         2    ;  uncertainty k = 0.057196
         6        27         5         7     4      180.000000       17.507517         2    ;  uncertainty k = 0.057196
         7         6         8        36     4      180.000000        1.622505         2    ;  uncertainty k = 0.666333
         7         8        36         6     4      180.000000        1.622505         2    ;  uncertainty k = 0.666333
         7        36         6         8     4      180.000000        1.622505         2    ;  uncertainty k = 0.666333
         8         7         9        16     4      180.000000       28.356151         2    ;  uncertainty k = 0.063061
         8         9        16         7     4      180.000000       28.356151         2    ;  uncertainty k = 0.063061
         8        16         7         9     4      180.000000       28.356151         2    ;  uncertainty k = 0.063061
        10         9        11        17     4      180.000000       19.417471         2    ;  uncertainty k = 0.084122
        10        11        17         9     4      180.000000       19.417471         2    ;  uncertainty k = 0.084122
        10        17         9        11     4      180.000000       19.417471         2    ;  uncertainty k = 0.084122
        11        10        12        37     4      180.000000        1.395888         2    ;  uncertainty k = 1.170222
        11        12        37        10     4      180.000000        1.395888         2    ;  uncertainty k = 1.170222
        11        37        10        12     4      180.000000        1.395888         2    ;  uncertainty k = 1.170222
        12        11        13        16     4      180.000000        1.589327         2    ;  uncertainty k = 1.390534
        12        13        16        11     4      180.000000        1.589327         2    ;  uncertainty k = 1.390534
        12        16        11        13     4      180.000000        1.589327         2    ;  uncertainty k = 1.390534
        13        12        14        38     4      180.000000        0.105195         2    ;  uncertainty k = 0.235223
        13        14        38        12     4      180.000000        0.105195         2    ;  uncertainty k = 0.235223
        13        38        12        14     4      180.000000        0.105195         2    ;  uncertainty k = 0.235223
        14        13        15        39     4      180.000000        1.779599         2    ;  uncertainty k = 0.230150
        14        15        39        13     4      180.000000        1.779599         2    ;  uncertainty k = 0.230150
        14        39        13        15     4      180.000000        1.779599         2    ;  uncertainty k = 0.230150
        16         8        12        15     4      180.000000        2.165381         2    ;  uncertainty k = 0.627947
        16        12        15         8     4      180.000000        2.165381         2    ;  uncertainty k = 0.627947
        16        15         8        12     4      180.000000        2.165381         2    ;  uncertainty k = 0.627947
        17        10        18        23     4      180.000000       10.158209         2    ;  uncertainty k = 0.158660
        17        18        23        10     4      180.000000       10.158209         2    ;  uncertainty k = 0.158660
        17        23        10        18     4      180.000000       10.158209         2    ;  uncertainty k = 0.158660
        18        17        19        40     4      180.000000        4.626343         2    ;  uncertainty k = 0.062023
        18        19        40        17     4      180.000000        4.626343         2    ;  uncertainty k = 0.062023
        18        40        17        19     4      180.000000        4.626343         2    ;  uncertainty k = 0.062023
        19        18        20        41     4      180.000000        1.188580         2    ;  uncertainty k = 0.334216
        19        20        41        18     4      180.000000        1.188580         2    ;  uncertainty k = 0.334216
        19        41        18        20     4      180.000000        1.188580         2    ;  uncertainty k = 0.334216
        20        19        21        22     4      180.000000       17.155318         2    ;  uncertainty k = 0.139294
        20        21        22        19     4      180.000000       17.155318         2    ;  uncertainty k = 0.139294
        20        22        19        21     4      180.000000       17.155318         2    ;  uncertainty k = 0.139294
        22        20        23        24     4      180.000000        7.269874         2    ;  uncertainty k = 0.230687
        22        23        24        20     4      180.000000        7.269874         2    ;  uncertainty k = 0.230687
        22        24        20        23     4      180.000000        7.269874         2    ;  uncertainty k = 0.230687
        23        17        22        42     4      180.000000        5.106458         2    ;  uncertainty k = 0.173898
        23        22        42        17     4      180.000000        5.106458         2    ;  uncertainty k = 0.173898
        23        42        17        22     4      180.000000        5.106458         2    ;  uncertainty k = 0.173898
        24        22        25        26     4      180.000000       54.034214         2    ;  uncertainty k = 0.014140
        24        25        26        22     4      180.000000       54.034214         2    ;  uncertainty k = 0.014140
        24        26        22        25     4      180.000000       54.034214         2    ;  uncertainty k = 0.014140
        27         6        28        45     4      180.000000        1.689049         2    ;  uncertainty k = 0.529654
        27        28        45         6     4      180.000000        1.689049         2    ;  uncertainty k = 0.529654
        27        45         6        28     4      180.000000        1.689049         2    ;  uncertainty k = 0.529654
        28         3        27        29     4      180.000000       16.672261         2    ;  uncertainty k = 0.075717
        28        27        29         3     4      180.000000       16.672261         2    ;  uncertainty k = 0.075717
        28        29         3        27     4      180.000000       16.672261         2    ;  uncertainty k = 0.075717

[ pairs ]
;       ai        aj funct
         1         4     1
         1        28     1
         2         5     1
         2        27     1
         2        29     1
         2        34     1
         3         6     1
         3        30     1
         3        31     1
         3        32     1
         3        33     1
         3        35     1
         3        45     1
         4         7     1
         4        27     1
         4        29     1
         5         8     1
         5        28     1
         5        36     1
         5        45     1
         6         9     1
         6        16     1
         6        29     1
         6        34     1
         7        10     1
         7        12     1
         7        15     1
         7        28     1
         7        35     1
         7        45     1
         8        11     1
         8        13     1
         8        14     1
         8        17     1
         8        27     1
         9        12     1
         9        15     1
         9        18     1
         9        23     1
         9        36     1
         9        37     1
        10        13     1
        10        16     1
        10        19     1
        10        22     1
        10        40     1
        10        42     1
        11        14     1
        11        15     1
        11        18     1
        11        23     1
        11        38     1
        12        17     1
        12        39     1
        13        37     1
        15        38     1
        16        36     1
        16        37     1
        16        38     1
        16        39     1
        17        20     1
        17        24     1
        17        37     1
        17        41     1
        18        21     1
        18        22     1
        18        42     1
        19        23     1
        19        24     1
        20        25     1
        20        26     1
        20        40     1
        20        42     1
        21        23     1
        21        24     1
        21        41     1
        22        41     1
        22        43     1
        22        44     1
        23        25     1
        23        26     1
        23        40     1
        24        42     1
        25        43     1
        25        44     1
        27        30     1
        27        35     1
        27        36     1
        28        34     1
        28        46     1
        28        47     1
        28        48     1
        29        45     1
        34        35     1
        38        39     1
        40        41     1
