; ITP file created by ByteFF-joint-25, 2026-02-17 09:44:46.052613

[ atomtypes ]
;name           bonded.type        at.num        mass        charge   ptype           sigma         epsilon
 c0bf                                   6      0.0000       0.00000       A     3.39774e-01     4.50890e-01    ;  uncertainty sigma = 0.000006, epsilon = 0.000514
 o1bf                                   8      0.0000       0.00000       A     3.15641e-01     3.03850e-01    ;  uncertainty sigma = 0.000015, epsilon = 0.000455
 c2bf                                   6      0.0000       0.00000       A     3.31526e-01     4.13474e-01    ;  uncertainty sigma = 0.000006, epsilon = 0.000721
 c3bf                                   6      0.0000       0.00000       A     3.31529e-01     4.13640e-01    ;  uncertainty sigma = 0.000005, epsilon = 0.000792
 c4bf                                   6      0.0000       0.00000       A     3.31525e-01     4.13354e-01    ;  uncertainty sigma = 0.000006, epsilon = 0.000662
 c5bf                                   6      0.0000       0.00000       A     3.31528e-01     4.13588e-01    ;  uncertainty sigma = 0.000010, epsilon = 0.000818
 n6bf                                   7      0.0000       0.00000       A     3.27852e-01     6.46169e-01    ;  uncertainty sigma = 0.000043, epsilon = 0.003219
 c7bf                                   6      0.0000       0.00000       A     3.31526e-01     4.13887e-01    ;  uncertainty sigma = 0.000017, epsilon = 0.001682
 n8bf                                   7      0.0000       0.00000       A     3.38466e-01     3.93318e-01    ;  uncertainty sigma = 0.000031, epsilon = 0.000671
 c9bf                                   6      0.0000       0.00000       A     3.31556e-01     4.13456e-01    ;  uncertainty sigma = 0.000023, epsilon = 0.000743
 c10bf                                  6      0.0000       0.00000       A     3.31559e-01     4.13603e-01    ;  uncertainty sigma = 0.000013, epsilon = 0.001559
 n11bf                                  7      0.0000       0.00000       A     3.20547e-01     8.53303e-01    ;  uncertainty sigma = 0.000017, epsilon = 0.000844
 c12bf                                  6      0.0000       0.00000       A     3.31503e-01     4.12978e-01    ;  uncertainty sigma = 0.000012, epsilon = 0.001136
 c13bf                                  6      0.0000       0.00000       A     3.31531e-01     4.13187e-01    ;  uncertainty sigma = 0.000008, epsilon = 0.000699
 n14bf                                  7      0.0000       0.00000       A     3.38427e-01     3.92895e-01    ;  uncertainty sigma = 0.000039, epsilon = 0.000415
 c15bf                                  6      0.0000       0.00000       A     3.31554e-01     4.12537e-01    ;  uncertainty sigma = 0.000015, epsilon = 0.000432
 c16bf                                  6      0.0000       0.00000       A     3.31506e-01     4.13271e-01    ;  uncertainty sigma = 0.000014, epsilon = 0.000878
 c17bf                                  6      0.0000       0.00000       A     3.31521e-01     4.13297e-01    ;  uncertainty sigma = 0.000006, epsilon = 0.000668
 c18bf                                  6      0.0000       0.00000       A     3.31516e-01     4.13332e-01    ;  uncertainty sigma = 0.000003, epsilon = 0.000561
 c19bf                                  6      0.0000       0.00000       A     3.31522e-01     4.13424e-01    ;  uncertainty sigma = 0.000004, epsilon = 0.000558
 c20bf                                  6      0.0000       0.00000       A     3.31499e-01     4.13171e-01    ;  uncertainty sigma = 0.000007, epsilon = 0.001003
 c21bf                                  6      0.0000       0.00000       A     3.31531e-01     4.13211e-01    ;  uncertainty sigma = 0.000017, epsilon = 0.000754
 c22bf                                  6      0.0000       0.00000       A     3.31534e-01     4.13239e-01    ;  uncertainty sigma = 0.000008, epsilon = 0.000887
 o23bf                                  8      0.0000       0.00000       A     3.04831e-01     6.12684e-01    ;  uncertainty sigma = 0.000012, epsilon = 0.001334
 n24bf                                  7      0.0000       0.00000       A     3.27030e-01     4.90216e-01    ;  uncertainty sigma = 0.000013, epsilon = 0.001849
 c25bf                                  6      0.0000       0.00000       A     3.31520e-01     4.13289e-01    ;  uncertainty sigma = 0.000008, epsilon = 0.000872
 c26bf                                  6      0.0000       0.00000       A     3.31531e-01     4.13568e-01    ;  uncertainty sigma = 0.000006, epsilon = 0.000702
 c27bf                                  6      0.0000       0.00000       A     3.31525e-01     4.13425e-01    ;  uncertainty sigma = 0.000005, epsilon = 0.000461
 c28bf                                  6      0.0000       0.00000       A     3.31531e-01     4.13174e-01    ;  uncertainty sigma = 0.000004, epsilon = 0.001033
 c29bf                                  6      0.0000       0.00000       A     3.31525e-01     4.13425e-01    ;  uncertainty sigma = 0.000005, epsilon = 0.000461
 c30bf                                  6      0.0000       0.00000       A     3.31531e-01     4.13568e-01    ;  uncertainty sigma = 0.000006, epsilon = 0.000702
 c31bf                                  6      0.0000       0.00000       A     3.31498e-01     4.13510e-01    ;  uncertainty sigma = 0.000015, epsilon = 0.000895
 c32bf                                  6      0.0000       0.00000       A     3.31528e-01     4.13142e-01    ;  uncertainty sigma = 0.000008, epsilon = 0.000581
 c33bf                                  6      0.0000       0.00000       A     3.31535e-01     4.13306e-01    ;  uncertainty sigma = 0.000007, epsilon = 0.000667
 n34bf                                  7      0.0000       0.00000       A     3.38406e-01     3.93394e-01    ;  uncertainty sigma = 0.000010, epsilon = 0.000710
 n35bf                                  7      0.0000       0.00000       A     3.20635e-01     8.52736e-01    ;  uncertainty sigma = 0.000024, epsilon = 0.001598
 c36bf                                  6      0.0000       0.00000       A     3.31516e-01     4.13129e-01    ;  uncertainty sigma = 0.000010, epsilon = 0.000957
 c37bf                                  6      0.0000       0.00000       A     3.31531e-01     4.13728e-01    ;  uncertainty sigma = 0.000008, epsilon = 0.001049
 o38bf                                  8      0.0000       0.00000       A     3.15636e-01     3.03949e-01    ;  uncertainty sigma = 0.000015, epsilon = 0.000670
 c39bf                                  6      0.0000       0.00000       A     3.39774e-01     4.50891e-01    ;  uncertainty sigma = 0.000006, epsilon = 0.000514
 h40bf                                  1      0.0000       0.00000       A     2.42205e-01     8.67537e-02    ;  uncertainty sigma = 0.000015, epsilon = 0.000624
 h41bf                                  1      0.0000       0.00000       A     2.42205e-01     8.67537e-02    ;  uncertainty sigma = 0.000015, epsilon = 0.000624
 h42bf                                  1      0.0000       0.00000       A     2.42205e-01     8.67537e-02    ;  uncertainty sigma = 0.000015, epsilon = 0.000624
 h43bf                                  1      0.0000       0.00000       A     2.62570e-01     6.70701e-02    ;  uncertainty sigma = 0.000012, epsilon = 0.000330
 h44bf                                  1      0.0000       0.00000       A     2.62564e-01     6.70248e-02    ;  uncertainty sigma = 0.000015, epsilon = 0.000426
 h45bf                                  1      0.0000       0.00000       A     1.10708e-01     4.06500e-02    ;  uncertainty sigma = 0.000118, epsilon = 0.000465
 h46bf                                  1      0.0000       0.00000       A     2.53612e-01     6.73647e-02    ;  uncertainty sigma = 0.000081, epsilon = 0.000889
 h47bf                                  1      0.0000       0.00000       A     2.53649e-01     6.68497e-02    ;  uncertainty sigma = 0.000023, epsilon = 0.000657
 h48bf                                  1      0.0000       0.00000       A     2.53645e-01     6.69493e-02    ;  uncertainty sigma = 0.000020, epsilon = 0.000834
 h49bf                                  1      0.0000       0.00000       A     2.62560e-01     6.70284e-02    ;  uncertainty sigma = 0.000012, epsilon = 0.000523
 h50bf                                  1      0.0000       0.00000       A     2.62563e-01     6.70148e-02    ;  uncertainty sigma = 0.000010, epsilon = 0.000410
 h51bf                                  1      0.0000       0.00000       A     2.62550e-01     6.70184e-02    ;  uncertainty sigma = 0.000010, epsilon = 0.000665
 h52bf                                  1      0.0000       0.00000       A     2.62559e-01     6.73324e-02    ;  uncertainty sigma = 0.000013, epsilon = 0.000843
 h53bf                                  1      0.0000       0.00000       A     1.10697e-01     4.15617e-02    ;  uncertainty sigma = 0.000094, epsilon = 0.000787
 h54bf                                  1      0.0000       0.00000       A     2.62561e-01     6.70780e-02    ;  uncertainty sigma = 0.000013, epsilon = 0.000453
 h55bf                                  1      0.0000       0.00000       A     2.62560e-01     6.70651e-02    ;  uncertainty sigma = 0.000011, epsilon = 0.000506
 h56bf                                  1      0.0000       0.00000       A     2.62560e-01     6.70651e-02    ;  uncertainty sigma = 0.000011, epsilon = 0.000506
 h57bf                                  1      0.0000       0.00000       A     2.62561e-01     6.70780e-02    ;  uncertainty sigma = 0.000013, epsilon = 0.000453
 h58bf                                  1      0.0000       0.00000       A     2.62581e-01     6.66490e-02    ;  uncertainty sigma = 0.000017, epsilon = 0.000671
 h59bf                                  1      0.0000       0.00000       A     2.53574e-01     6.72516e-02    ;  uncertainty sigma = 0.000040, epsilon = 0.000469
 h60bf                                  1      0.0000       0.00000       A     1.10676e-01     4.14693e-02    ;  uncertainty sigma = 0.000103, epsilon = 0.000964
 h61bf                                  1      0.0000       0.00000       A     2.62560e-01     6.71375e-02    ;  uncertainty sigma = 0.000017, epsilon = 0.000539
 h62bf                                  1      0.0000       0.00000       A     2.42205e-01     8.67536e-02    ;  uncertainty sigma = 0.000015, epsilon = 0.000624
 h63bf                                  1      0.0000       0.00000       A     2.42205e-01     8.67536e-02    ;  uncertainty sigma = 0.000015, epsilon = 0.000624
 h64bf                                  1      0.0000       0.00000       A     2.42205e-01     8.67538e-02    ;  uncertainty sigma = 0.000015, epsilon = 0.000624

[ moleculetype ]
;name             nrexcl
 MOL                   3

[ atoms ]
;       nr            type      resi   res      atom      cgnr      charge          mass ; qtot
         1            c0bf         1   UNL        c0         1     0.11960       12.0110 ; qtot    0.120
         2            o1bf         1   UNL        o1         2    -0.32010       15.9990 ; qtot   -0.201
         3            c2bf         1   UNL        c2         3     0.07584       12.0110 ; qtot   -0.125
         4            c3bf         1   UNL        c3         4    -0.15014       12.0110 ; qtot   -0.275
         5            c4bf         1   UNL        c4         5    -0.15106       12.0110 ; qtot   -0.426
         6            c5bf         1   UNL        c5         6     0.16694       12.0110 ; qtot   -0.259
         7            n6bf         1   UNL        n6         7    -0.73903       14.0070 ; qtot   -0.998
         8            c7bf         1   UNL        c7         8     0.75065       12.0110 ; qtot   -0.247
         9            n8bf         1   UNL        n8         9    -0.76815       14.0070 ; qtot   -1.015
        10            c9bf         1   UNL        c9        10     0.47399       12.0110 ; qtot   -0.541
        11           c10bf         1   UNL       c10        11    -0.21980       12.0110 ; qtot   -0.761
        12           n11bf         1   UNL       n11        12     0.05302       14.0070 ; qtot   -0.708
        13           c12bf         1   UNL       c12        13    -0.21243       12.0110 ; qtot   -0.921
        14           c13bf         1   UNL       c13        14     0.01175       12.0110 ; qtot   -0.909
        15           n14bf         1   UNL       n14        15    -0.27543       14.0070 ; qtot   -1.184
        16           c15bf         1   UNL       c15        16    -0.18461       12.0110 ; qtot   -1.369
        17           c16bf         1   UNL       c16        17    -0.12399       12.0110 ; qtot   -1.493
        18           c17bf         1   UNL       c17        18    -0.09091       12.0110 ; qtot   -1.584
        19           c18bf         1   UNL       c18        19    -0.14069       12.0110 ; qtot   -1.725
        20           c19bf         1   UNL       c19        20    -0.07833       12.0110 ; qtot   -1.803
        21           c20bf         1   UNL       c20        21    -0.15397       12.0110 ; qtot   -1.957
        22           c21bf         1   UNL       c21        22    -0.06503       12.0110 ; qtot   -2.022
        23           c22bf         1   UNL       c22        23     0.68793       12.0110 ; qtot   -1.334
        24           o23bf         1   UNL       o23        24    -0.57695       15.9990 ; qtot   -1.911
        25           n24bf         1   UNL       n24        25    -0.47603       14.0070 ; qtot   -2.387
        26           c25bf         1   UNL       c25        26     0.08207       12.0110 ; qtot   -2.305
        27           c26bf         1   UNL       c26        27    -0.16724       12.0110 ; qtot   -2.472
        28           c27bf         1   UNL       c27        28    -0.08335       12.0110 ; qtot   -2.555
        29           c28bf         1   UNL       c28        29    -0.05941       12.0110 ; qtot   -2.615
        30           c29bf         1   UNL       c29        30    -0.08335       12.0110 ; qtot   -2.698
        31           c30bf         1   UNL       c30        31    -0.16724       12.0110 ; qtot   -2.865
        32           c31bf         1   UNL       c31        32    -0.03439       12.0110 ; qtot   -2.900
        33           c32bf         1   UNL       c32        33    -0.29677       12.0110 ; qtot   -3.197
        34           c33bf         1   UNL       c33        34     0.30385       12.0110 ; qtot   -2.893
        35           n34bf         1   UNL       n34        35    -0.50693       14.0070 ; qtot   -3.400
        36           n35bf         1   UNL       n35        36    -0.02518       14.0070 ; qtot   -3.425
        37           c36bf         1   UNL       c36        37    -0.20840       12.0110 ; qtot   -3.633
        38           c37bf         1   UNL       c37        38     0.11790       12.0110 ; qtot   -3.515
        39           o38bf         1   UNL       o38        39    -0.31927       15.9990 ; qtot   -3.835
        40           c39bf         1   UNL       c39        40     0.11995       12.0110 ; qtot   -3.715
        41           h40bf         1   UNL       h40        41     0.04337        1.0080 ; qtot   -3.671
        42           h41bf         1   UNL       h41        42     0.04337        1.0080 ; qtot   -3.628
        43           h42bf         1   UNL       h42        43     0.04337        1.0080 ; qtot   -3.585
        44           h43bf         1   UNL       h43        44     0.14091        1.0080 ; qtot   -3.444
        45           h44bf         1   UNL       h44        45     0.15302        1.0080 ; qtot   -3.291
        46           h45bf         1   UNL       h45        46     0.46165        1.0080 ; qtot   -2.829
        47           h46bf         1   UNL       h46        47     0.17424        1.0080 ; qtot   -2.655
        48           h47bf         1   UNL       h47        48     0.18619        1.0080 ; qtot   -2.469
        49           h48bf         1   UNL       h48        49     0.17120        1.0080 ; qtot   -2.297
        50           h49bf         1   UNL       h49        50     0.14240        1.0080 ; qtot   -2.155
        51           h50bf         1   UNL       h50        51     0.13869        1.0080 ; qtot   -2.016
        52           h51bf         1   UNL       h51        52     0.14604        1.0080 ; qtot   -1.870
        53           h52bf         1   UNL       h52        53     0.15611        1.0080 ; qtot   -1.714
        54           h53bf         1   UNL       h53        54     0.32030        1.0080 ; qtot   -1.394
        55           h54bf         1   UNL       h54        55     0.15327        1.0080 ; qtot   -1.241
        56           h55bf         1   UNL       h55        56     0.13770        1.0080 ; qtot   -1.103
        57           h56bf         1   UNL       h56        57     0.13770        1.0080 ; qtot   -0.965
        58           h57bf         1   UNL       h57        58     0.15327        1.0080 ; qtot   -0.812
        59           h58bf         1   UNL       h58        59     0.16412        1.0080 ; qtot   -0.648
        60           h59bf         1   UNL       h59        60     0.03964        1.0080 ; qtot   -0.608
        61           h60bf         1   UNL       h60        61     0.32238        1.0080 ; qtot   -0.286
        62           h61bf         1   UNL       h61        62     0.15565        1.0080 ; qtot   -0.130
        63           h62bf         1   UNL       h62        63     0.04337        1.0080 ; qtot   -0.087
        64           h63bf         1   UNL       h63        64     0.04337        1.0080 ; qtot   -0.043
        65           h64bf         1   UNL       h64        65     0.04336        1.0080 ; qtot   -0.000

[ bonds ]
;       ai        aj funct               r               k
         1         2     1        0.142504   247060.424561    ;  uncertainty r = 0.000030, k = 4.357286
         1        41     1        0.109559   311162.527344    ;  uncertainty r = 0.000020, k = 1.272502
         1        42     1        0.109559   311162.527344    ;  uncertainty r = 0.000020, k = 1.272502
         1        43     1        0.109559   311162.527344    ;  uncertainty r = 0.000020, k = 1.272502
         2         3     1        0.136892   321113.087549    ;  uncertainty r = 0.000059, k = 4.532932
         3         4     1        0.139488   349133.476514    ;  uncertainty r = 0.000031, k = 2.724675
         3        38     1        0.140227   349402.944092    ;  uncertainty r = 0.000054, k = 7.584639
         4         5     1        0.139369   369864.629590    ;  uncertainty r = 0.000071, k = 2.574421
         4        44     1        0.108705   336290.608838    ;  uncertainty r = 0.000024, k = 1.905501
         5         6     1        0.139713   352891.517529    ;  uncertainty r = 0.000095, k = 4.859044
         5        45     1        0.108700   336152.248779    ;  uncertainty r = 0.000031, k = 1.798264
         6         7     1        0.141333   346668.455957    ;  uncertainty r = 0.000119, k = 12.315012
         6        37     1        0.140236   355873.255957    ;  uncertainty r = 0.000083, k = 5.100090
         7         8     1        0.137988   330814.584326    ;  uncertainty r = 0.000224, k = 31.605608
         7        46     1        0.102091   426736.819189    ;  uncertainty r = 0.000039, k = 5.302919
         8         9     1        0.132294   443005.822070    ;  uncertainty r = 0.000186, k = 13.577405
         8        16     1        0.143016   286566.920117    ;  uncertainty r = 0.000095, k = 10.976550
         9        10     1        0.137509   259598.736670    ;  uncertainty r = 0.000250, k = 25.283747
        10        11     1        0.136955   381436.030127    ;  uncertainty r = 0.000105, k = 11.906468
        10        17     1        0.147260   263607.603174    ;  uncertainty r = 0.000133, k = 9.331857
        11        12     1        0.137882   325401.815234    ;  uncertainty r = 0.000063, k = 6.041318
        11        47     1        0.108486   340798.904590    ;  uncertainty r = 0.000072, k = 2.317249
        12        13     1        0.137812   342777.392139    ;  uncertainty r = 0.000099, k = 5.088024
        12        16     1        0.139016   307421.187598    ;  uncertainty r = 0.000151, k = 23.940608
        13        14     1        0.138713   413349.321582    ;  uncertainty r = 0.000044, k = 11.515237
        13        48     1        0.108153   341281.147363    ;  uncertainty r = 0.000029, k = 4.725658
        14        15     1        0.136694   264650.921777    ;  uncertainty r = 0.000104, k = 21.676830
        14        49     1        0.108374   336399.626758    ;  uncertainty r = 0.000052, k = 2.762991
        15        16     1        0.133277   447135.836621    ;  uncertainty r = 0.000097, k = 11.841704
        17        18     1        0.140010   345196.599121    ;  uncertainty r = 0.000042, k = 2.989737
        17        22     1        0.139614   339276.892871    ;  uncertainty r = 0.000072, k = 4.017789
        18        19     1        0.139321   367843.112012    ;  uncertainty r = 0.000034, k = 2.571044
        18        50     1        0.108756   334095.821973    ;  uncertainty r = 0.000021, k = 0.785555
        19        20     1        0.139393   367173.860986    ;  uncertainty r = 0.000027, k = 0.860280
        19        51     1        0.108816   332716.000879    ;  uncertainty r = 0.000021, k = 1.311973
        20        21     1        0.139945   347323.891406    ;  uncertainty r = 0.000044, k = 2.678115
        20        52     1        0.108733   333169.437793    ;  uncertainty r = 0.000011, k = 1.040747
        21        22     1        0.139511   342478.710107    ;  uncertainty r = 0.000088, k = 2.190779
        21        23     1        0.150006   228889.315625    ;  uncertainty r = 0.000053, k = 8.709368
        22        53     1        0.108716   333864.889893    ;  uncertainty r = 0.000035, k = 2.283468
        23        24     1        0.123300   722890.446777    ;  uncertainty r = 0.000032, k = 4.344733
        23        25     1        0.137814   296597.513623    ;  uncertainty r = 0.000072, k = 12.488540
        25        26     1        0.141025   319030.485205    ;  uncertainty r = 0.000032, k = 4.301327
        25        54     1        0.101457   428400.587402    ;  uncertainty r = 0.000049, k = 2.224498
        26        27     1        0.140229   355021.925342    ;  uncertainty r = 0.000044, k = 2.843409
        26        31     1        0.140229   355021.925342    ;  uncertainty r = 0.000044, k = 2.843409
        27        28     1        0.138959   358460.573730    ;  uncertainty r = 0.000046, k = 3.288875
        27        55     1        0.108715   335925.147266    ;  uncertainty r = 0.000039, k = 1.734022
        28        29     1        0.140231   352916.799268    ;  uncertainty r = 0.000053, k = 4.636994
        28        56     1        0.108791   333627.879980    ;  uncertainty r = 0.000010, k = 0.984062
        29        30     1        0.140231   352916.799268    ;  uncertainty r = 0.000053, k = 4.636994
        29        32     1        0.146131   272907.605518    ;  uncertainty r = 0.000048, k = 6.158036
        30        31     1        0.138959   358460.573730    ;  uncertainty r = 0.000046, k = 3.288875
        30        57     1        0.108791   333627.879980    ;  uncertainty r = 0.000010, k = 0.984037
        31        58     1        0.108715   335925.147266    ;  uncertainty r = 0.000039, k = 1.734046
        32        33     1        0.139072   409258.685254    ;  uncertainty r = 0.000022, k = 6.478796
        32        36     1        0.137074   273873.367920    ;  uncertainty r = 0.000055, k = 12.884956
        33        34     1        0.141781   254495.324121    ;  uncertainty r = 0.000039, k = 6.786319
        33        59     1        0.108339   339516.124512    ;  uncertainty r = 0.000028, k = 2.258357
        34        35     1        0.133673   462570.261230    ;  uncertainty r = 0.000041, k = 6.927231
        34        60     1        0.108447   337237.933447    ;  uncertainty r = 0.000017, k = 2.255295
        35        36     1        0.135091   305558.919434    ;  uncertainty r = 0.000024, k = 8.065468
        36        61     1        0.101172   417410.871143    ;  uncertainty r = 0.000048, k = 5.211659
        37        38     1        0.139270   345625.571484    ;  uncertainty r = 0.000054, k = 5.224446
        37        62     1        0.108746   339222.294531    ;  uncertainty r = 0.000057, k = 2.203704
        38        39     1        0.136641   322875.250244    ;  uncertainty r = 0.000095, k = 4.764597
        39        40     1        0.142472   247648.314355    ;  uncertainty r = 0.000036, k = 5.188420
        40        63     1        0.109559   311162.527344    ;  uncertainty r = 0.000020, k = 1.272499
        40        64     1        0.109559   311162.527344    ;  uncertainty r = 0.000020, k = 1.272499
        40        65     1        0.109559   311162.527344    ;  uncertainty r = 0.000020, k = 1.272499

[ angles ]
;       ai        aj        ak funct           theta             cth
         1         2         3     1      110.612503      514.276204    ;  uncertainty theta = 0.001142, k = 0.053109
         2         1        41     1      108.817703      445.633093    ;  uncertainty theta = 0.001397, k = 0.017155
         2         1        42     1      108.817703      445.633093    ;  uncertainty theta = 0.001397, k = 0.017155
         2         1        43     1      108.817703      445.633093    ;  uncertainty theta = 0.001397, k = 0.017155
         2         3         4     1      120.713829      429.663653    ;  uncertainty theta = 0.002887, k = 0.102451
         2         3        38     1      116.739212      371.002167    ;  uncertainty theta = 0.004292, k = 0.133275
         3         4         5     1      122.308617      511.833580    ;  uncertainty theta = 0.002874, k = 0.098838
         3         4        44     1      117.399475      269.501128    ;  uncertainty theta = 0.000644, k = 0.068639
         3        38        37     1      122.924828      372.294441    ;  uncertainty theta = 0.004880, k = 0.131595
         3        38        39     1      116.892052      375.388038    ;  uncertainty theta = 0.003912, k = 0.086739
         4         3        38     1      121.473427      368.904805    ;  uncertainty theta = 0.004194, k = 0.139265
         4         5         6     1      119.248634      497.970121    ;  uncertainty theta = 0.001680, k = 0.102369
         4         5        45     1      121.012962      296.103549    ;  uncertainty theta = 0.002653, k = 0.108838
         5         4        44     1      120.002708      276.762860    ;  uncertainty theta = 0.000635, k = 0.063553
         5         6         7     1      120.412048      523.951928    ;  uncertainty theta = 0.002787, k = 0.145670
         5         6        37     1      119.564781      370.288948    ;  uncertainty theta = 0.004616, k = 0.068312
         6         5        45     1      119.526833      271.877739    ;  uncertainty theta = 0.001413, k = 0.081499
         6         7         8     1      116.303772      381.015013    ;  uncertainty theta = 0.002927, k = 0.210540
         6         7        46     1      114.186111      355.760727    ;  uncertainty theta = 0.005751, k = 0.200139
         6        37        38     1      121.379723      503.760023    ;  uncertainty theta = 0.003678, k = 0.097546
         6        37        62     1      119.577965      269.429783    ;  uncertainty theta = 0.003301, k = 0.060634
         7         6        37     1      119.861717      533.495145    ;  uncertainty theta = 0.003869, k = 0.077420
         7         8         9     1      122.084122      743.704404    ;  uncertainty theta = 0.005979, k = 0.187139
         7         8        16     1      118.339050      493.433454    ;  uncertainty theta = 0.006804, k = 0.121645
         8         7        46     1      117.061234      430.294771    ;  uncertainty theta = 0.006370, k = 0.198641
         8         9        10     1      121.092026      437.385564    ;  uncertainty theta = 0.009289, k = 0.255263
         8        16        12     1      111.142784      333.997811    ;  uncertainty theta = 0.012736, k = 0.456018
         8        16        15     1      125.515465      293.447945    ;  uncertainty theta = 0.008643, k = 0.324338
         9         8        16     1      122.397118      559.508937    ;  uncertainty theta = 0.006110, k = 0.249098
         9        10        11     1      124.543556      546.714654    ;  uncertainty theta = 0.002872, k = 0.247730
         9        10        17     1      116.963966      455.945839    ;  uncertainty theta = 0.001426, k = 0.137000
        10        11        12     1      117.529312      532.909995    ;  uncertainty theta = 0.004092, k = 0.198409
        10        11        47     1      124.634438      233.175419    ;  uncertainty theta = 0.008734, k = 0.228841
        10        17        18     1      119.873581      404.772888    ;  uncertainty theta = 0.002360, k = 0.126906
        10        17        22     1      119.208656      396.888369    ;  uncertainty theta = 0.002346, k = 0.210180
        11        10        17     1      120.994980      375.420055    ;  uncertainty theta = 0.004458, k = 0.077933
        11        12        13     1      129.664658      428.594510    ;  uncertainty theta = 0.002270, k = 0.326700
        11        12        16     1      117.420059      429.560738    ;  uncertainty theta = 0.007263, k = 0.178528
        12        11        47     1      117.417358      315.021791    ;  uncertainty theta = 0.003619, k = 0.132845
        12        13        14     1      105.324844      767.668108    ;  uncertainty theta = 0.004981, k = 0.189091
        12        13        48     1      119.539230      282.399762    ;  uncertainty theta = 0.002926, k = 0.163946
        12        16        15     1      114.523727      791.407022    ;  uncertainty theta = 0.003446, k = 0.159720
        13        12        16     1      106.195145      846.636256    ;  uncertainty theta = 0.003800, k = 0.266754
        13        14        15     1      111.223167      865.900175    ;  uncertainty theta = 0.003390, k = 0.157112
        13        14        49     1      125.339600      238.965672    ;  uncertainty theta = 0.004247, k = 0.092338
        14        13        48     1      130.781433      240.351826    ;  uncertainty theta = 0.003259, k = 0.025087
        14        15        16     1      106.065872      820.721325    ;  uncertainty theta = 0.001716, k = 0.145916
        15        14        49     1      119.156937      297.238833    ;  uncertainty theta = 0.004129, k = 0.152925
        17        18        19     1      120.311562      529.372594    ;  uncertainty theta = 0.001859, k = 0.062575
        17        18        50     1      118.619164      269.018029    ;  uncertainty theta = 0.001373, k = 0.071414
        17        22        21     1      122.519272      513.078897    ;  uncertainty theta = 0.002494, k = 0.135587
        17        22        53     1      118.673218      268.490081    ;  uncertainty theta = 0.003891, k = 0.023478
        18        17        22     1      121.170792      430.515667    ;  uncertainty theta = 0.002829, k = 0.178402
        18        19        20     1      120.683754      518.232222    ;  uncertainty theta = 0.002543, k = 0.075513
        18        19        51     1      120.274796      284.693760    ;  uncertainty theta = 0.001302, k = 0.025006
        19        18        50     1      120.459373      291.342602    ;  uncertainty theta = 0.001794, k = 0.009196
        19        20        21     1      120.614319      517.906304    ;  uncertainty theta = 0.001567, k = 0.078762
        19        20        52     1      120.459457      287.954019    ;  uncertainty theta = 0.002786, k = 0.055551
        20        19        51     1      120.272667      282.891990    ;  uncertainty theta = 0.000802, k = 0.033099
        20        21        22     1      122.378014      447.619305    ;  uncertainty theta = 0.001332, k = 0.140231
        20        21        23     1      119.138565      320.977364    ;  uncertainty theta = 0.003243, k = 0.207438
        21        20        52     1      118.913414      268.435145    ;  uncertainty theta = 0.002890, k = 0.087974
        21        22        53     1      118.781784      268.287381    ;  uncertainty theta = 0.003995, k = 0.098747
        21        23        24     1      124.278099      544.496819    ;  uncertainty theta = 0.004630, k = 0.121257
        21        23        25     1      113.843094      459.140564    ;  uncertainty theta = 0.005340, k = 0.145089
        22        21        23     1      118.324509      333.598155    ;  uncertainty theta = 0.001455, k = 0.206879
        23        25        26     1      119.050209      431.398484    ;  uncertainty theta = 0.004821, k = 0.116525
        23        25        54     1      116.254066      336.797891    ;  uncertainty theta = 0.003704, k = 0.193594
        24        23        25     1      121.886520      732.198276    ;  uncertainty theta = 0.003572, k = 0.128227
        25        26        27     1      120.116905      509.116591    ;  uncertainty theta = 0.002741, k = 0.029974
        25        26        31     1      120.116905      509.116591    ;  uncertainty theta = 0.002741, k = 0.029974
        26        25        54     1      113.905128      309.840471    ;  uncertainty theta = 0.003678, k = 0.165410
        26        27        28     1      120.105942      499.778660    ;  uncertainty theta = 0.002401, k = 0.053307
        26        27        55     1      118.904640      265.262893    ;  uncertainty theta = 0.001811, k = 0.058591
        26        31        30     1      120.105942      499.778660    ;  uncertainty theta = 0.002401, k = 0.053307
        26        31        58     1      118.904640      265.262893    ;  uncertainty theta = 0.001811, k = 0.058591
        27        26        31     1      119.056168      381.064555    ;  uncertainty theta = 0.007561, k = 0.192600
        27        28        29     1      121.926857      515.096839    ;  uncertainty theta = 0.003088, k = 0.096344
        27        28        56     1      119.322227      281.674157    ;  uncertainty theta = 0.000683, k = 0.052952
        28        27        55     1      120.732193      311.199237    ;  uncertainty theta = 0.001986, k = 0.099782
        28        29        30     1      119.657791      415.311510    ;  uncertainty theta = 0.003391, k = 0.128983
        28        29        32     1      120.826744      429.661674    ;  uncertainty theta = 0.002655, k = 0.101881
        29        28        56     1      119.039650      279.137811    ;  uncertainty theta = 0.001915, k = 0.051612
        29        30        31     1      121.926857      515.096839    ;  uncertainty theta = 0.003088, k = 0.096344
        29        30        57     1      119.039650      279.137811    ;  uncertainty theta = 0.001915, k = 0.051612
        29        32        33     1      133.061264      353.454917    ;  uncertainty theta = 0.004291, k = 0.210379
        29        32        36     1      121.404922      407.297008    ;  uncertainty theta = 0.003337, k = 0.081007
        30        29        32     1      120.826744      429.661674    ;  uncertainty theta = 0.002655, k = 0.101881
        30        31        58     1      120.732193      311.199237    ;  uncertainty theta = 0.001986, k = 0.099782
        31        30        57     1      119.322227      281.674157    ;  uncertainty theta = 0.000683, k = 0.052952
        32        33        34     1      104.056252      766.976946    ;  uncertainty theta = 0.003123, k = 0.143623
        32        33        59     1      124.512985      246.909835    ;  uncertainty theta = 0.001944, k = 0.083583
        32        36        35     1      110.181381     1011.193239    ;  uncertainty theta = 0.002937, k = 0.101245
        32        36        61     1      116.108276      284.738003    ;  uncertainty theta = 0.006237, k = 0.150555
        33        32        36     1      107.203812      648.138731    ;  uncertainty theta = 0.002645, k = 0.204884
        33        34        35     1      112.838028      870.317967    ;  uncertainty theta = 0.002191, k = 0.141158
        33        34        60     1      126.257851      244.554117    ;  uncertainty theta = 0.003390, k = 0.074688
        34        33        59     1      124.680862      254.076697    ;  uncertainty theta = 0.001778, k = 0.096821
        34        35        36     1      105.852982      926.494819    ;  uncertainty theta = 0.003352, k = 0.125909
        35        34        60     1      118.722397      284.565341    ;  uncertainty theta = 0.002163, k = 0.083433
        35        36        61     1      109.097435      344.615438    ;  uncertainty theta = 0.003424, k = 0.011726
        37        38        39     1      119.984230      446.391385    ;  uncertainty theta = 0.002825, k = 0.109279
        38        37        62     1      118.198837      267.442262    ;  uncertainty theta = 0.001362, k = 0.058522
        38        39        40     1      110.584335      514.931710    ;  uncertainty theta = 0.000760, k = 0.054258
        39        40        63     1      108.804810      446.467262    ;  uncertainty theta = 0.001256, k = 0.017592
        39        40        64     1      108.804810      446.467262    ;  uncertainty theta = 0.001256, k = 0.017592
        39        40        65     1      108.804810      446.467262    ;  uncertainty theta = 0.001256, k = 0.017592
        41         1        42     1      109.159256      331.008596    ;  uncertainty theta = 0.001734, k = 0.015289
        41         1        43     1      109.159256      331.008596    ;  uncertainty theta = 0.001734, k = 0.015289
        42         1        43     1      109.159256      331.008596    ;  uncertainty theta = 0.001734, k = 0.015289
        63        40        64     1      109.159256      331.008596    ;  uncertainty theta = 0.001734, k = 0.015290
        63        40        65     1      109.159256      331.008596    ;  uncertainty theta = 0.001734, k = 0.015290
        64        40        65     1      109.159256      331.008596    ;  uncertainty theta = 0.001734, k = 0.015290

[ dihedrals ] ; propers for gromacs 4.5 or higher, use funct 9
;       ai        aj        ak        al funct           phase               k        pn
         1         2         3         4     9        0.000000        1.161591         1    ;  uncertainty k = 0.424581
         1         2         3         4     9      180.000000        5.978611         2    ;  uncertainty k = 0.113714
         1         2         3         4     9        0.000000       -0.081693         3    ;  uncertainty k = 0.147720
         1         2         3         4     9      180.000000        0.002725         4    ;  uncertainty k = 0.132587
         1         2         3        38     9        0.000000        0.710049         1    ;  uncertainty k = 0.461813
         1         2         3        38     9      180.000000        5.168556         2    ;  uncertainty k = 0.168703
         1         2         3        38     9        0.000000        1.522737         3    ;  uncertainty k = 0.085019
         1         2         3        38     9      180.000000        0.086570         4    ;  uncertainty k = 0.079162
         2         3         4         5     9        0.000000        0.075453         1    ;  uncertainty k = 0.391183
         2         3         4         5     9      180.000000       11.200364         2    ;  uncertainty k = 0.281958
         2         3         4         5     9        0.000000        1.350673         3    ;  uncertainty k = 0.315697
         2         3         4         5     9      180.000000        1.737822         4    ;  uncertainty k = 0.262820
         2         3         4        44     9        0.000000       -0.165177         1    ;  uncertainty k = 0.217548
         2         3         4        44     9      180.000000        9.159952         2    ;  uncertainty k = 0.396818
         2         3         4        44     9        0.000000        0.851184         3    ;  uncertainty k = 0.126617
         2         3         4        44     9      180.000000        1.218800         4    ;  uncertainty k = 0.309716
         2         3        38        37     9        0.000000        0.515557         1    ;  uncertainty k = 0.299239
         2         3        38        37     9      180.000000        7.954900         2    ;  uncertainty k = 0.736957
         2         3        38        37     9        0.000000        1.164308         3    ;  uncertainty k = 0.363485
         2         3        38        37     9      180.000000        1.614907         4    ;  uncertainty k = 0.248125
         2         3        38        39     9        0.000000       -0.341456         1    ;  uncertainty k = 1.859913
         2         3        38        39     9      180.000000       13.064538         2    ;  uncertainty k = 0.569186
         2         3        38        39     9        0.000000        0.817587         3    ;  uncertainty k = 0.428630
         2         3        38        39     9      180.000000        1.204285         4    ;  uncertainty k = 0.526598
         3         2         1        41     9        0.000000        1.112846         1    ;  uncertainty k = 0.103179
         3         2         1        41     9      180.000000       -2.022645         2    ;  uncertainty k = 0.082863
         3         2         1        41     9        0.000000        1.040477         3    ;  uncertainty k = 0.039005
         3         2         1        41     9      180.000000        0.229249         4    ;  uncertainty k = 0.034227
         3         2         1        42     9        0.000000        1.112846         1    ;  uncertainty k = 0.103179
         3         2         1        42     9      180.000000       -2.022645         2    ;  uncertainty k = 0.082863
         3         2         1        42     9        0.000000        1.040477         3    ;  uncertainty k = 0.039005
         3         2         1        42     9      180.000000        0.229249         4    ;  uncertainty k = 0.034227
         3         2         1        43     9        0.000000        1.112846         1    ;  uncertainty k = 0.103179
         3         2         1        43     9      180.000000       -2.022645         2    ;  uncertainty k = 0.082863
         3         2         1        43     9        0.000000        1.040477         3    ;  uncertainty k = 0.039005
         3         2         1        43     9      180.000000        0.229249         4    ;  uncertainty k = 0.034227
         3         4         5         6     9        0.000000        0.022058         1    ;  uncertainty k = 0.194405
         3         4         5         6     9      180.000000       12.959077         2    ;  uncertainty k = 0.175268
         3         4         5         6     9        0.000000       -0.661283         3    ;  uncertainty k = 0.452962
         3         4         5         6     9      180.000000        0.977500         4    ;  uncertainty k = 0.267395
         3         4         5        45     9        0.000000        0.089132         1    ;  uncertainty k = 0.324048
         3         4         5        45     9      180.000000        7.832723         2    ;  uncertainty k = 0.398221
         3         4         5        45     9        0.000000        1.298747         3    ;  uncertainty k = 0.324374
         3         4         5        45     9      180.000000        1.779744         4    ;  uncertainty k = 0.055929
         3        38        37         6     9        0.000000        0.071802         1    ;  uncertainty k = 0.106893
         3        38        37         6     9      180.000000        8.578021         2    ;  uncertainty k = 0.448414
         3        38        37         6     9        0.000000        0.405195         3    ;  uncertainty k = 0.328174
         3        38        37         6     9      180.000000        1.390162         4    ;  uncertainty k = 0.291060
         3        38        37        62     9        0.000000        0.127331         1    ;  uncertainty k = 0.442115
         3        38        37        62     9      180.000000        6.705910         2    ;  uncertainty k = 0.374609
         3        38        37        62     9        0.000000        1.449705         3    ;  uncertainty k = 0.216501
         3        38        37        62     9      180.000000        1.651952         4    ;  uncertainty k = 0.099448
         3        38        39        40     9        0.000000        0.964834         1    ;  uncertainty k = 0.487892
         3        38        39        40     9      180.000000        5.588063         2    ;  uncertainty k = 0.185698
         3        38        39        40     9        0.000000        1.649424         3    ;  uncertainty k = 0.107621
         3        38        39        40     9      180.000000        0.043020         4    ;  uncertainty k = 0.050222
         4         3        38        37     9        0.000000       -0.246361         1    ;  uncertainty k = 0.323017
         4         3        38        37     9      180.000000        5.364287         2    ;  uncertainty k = 1.281071
         4         3        38        37     9        0.000000        0.277800         3    ;  uncertainty k = 0.286511
         4         3        38        37     9      180.000000        1.297118         4    ;  uncertainty k = 0.309451
         4         3        38        39     9        0.000000        0.651704         1    ;  uncertainty k = 0.176593
         4         3        38        39     9      180.000000        7.590391         2    ;  uncertainty k = 0.603023
         4         3        38        39     9        0.000000        1.174713         3    ;  uncertainty k = 0.330890
         4         3        38        39     9      180.000000        1.724084         4    ;  uncertainty k = 0.232454
         4         5         6         7     9        0.000000        0.058897         1    ;  uncertainty k = 0.517001
         4         5         6         7     9      180.000000        9.907040         2    ;  uncertainty k = 0.506715
         4         5         6         7     9        0.000000        0.979239         3    ;  uncertainty k = 0.327123
         4         5         6         7     9      180.000000        1.580944         4    ;  uncertainty k = 0.224706
         4         5         6        37     9        0.000000       -0.065841         1    ;  uncertainty k = 0.278586
         4         5         6        37     9      180.000000        9.979294         2    ;  uncertainty k = 0.397781
         4         5         6        37     9        0.000000       -0.194578         3    ;  uncertainty k = 0.190669
         4         5         6        37     9      180.000000        1.171069         4    ;  uncertainty k = 0.255361
         5         4         3        38     9        0.000000        0.085736         1    ;  uncertainty k = 0.237541
         5         4         3        38     9      180.000000        8.042169         2    ;  uncertainty k = 0.816839
         5         4         3        38     9        0.000000        0.289471         3    ;  uncertainty k = 0.178600
         5         4         3        38     9      180.000000        1.427393         4    ;  uncertainty k = 0.249187
         5         6         7         8     9        0.000000        1.717568         1    ;  uncertainty k = 0.660152
         5         6         7         8     9      180.000000        5.521741         2    ;  uncertainty k = 0.179948
         5         6         7         8     9        0.000000        0.912154         3    ;  uncertainty k = 0.268356
         5         6         7         8     9      180.000000        0.224590         4    ;  uncertainty k = 0.108909
         5         6         7        46     9        0.000000        2.355176         1    ;  uncertainty k = 0.449212
         5         6         7        46     9      180.000000        4.348204         2    ;  uncertainty k = 0.302695
         5         6         7        46     9        0.000000        0.613845         3    ;  uncertainty k = 0.145998
         5         6         7        46     9      180.000000        0.455801         4    ;  uncertainty k = 0.028343
         5         6        37        38     9        0.000000        0.019458         1    ;  uncertainty k = 0.133758
         5         6        37        38     9      180.000000        8.784467         2    ;  uncertainty k = 0.478984
         5         6        37        38     9        0.000000        0.119277         3    ;  uncertainty k = 0.283810
         5         6        37        38     9      180.000000        1.288078         4    ;  uncertainty k = 0.208847
         5         6        37        62     9        0.000000        0.155297         1    ;  uncertainty k = 0.281421
         5         6        37        62     9      180.000000        6.373830         2    ;  uncertainty k = 0.633802
         5         6        37        62     9        0.000000        1.253627         3    ;  uncertainty k = 0.220579
         5         6        37        62     9      180.000000        1.460767         4    ;  uncertainty k = 0.207379
         6         5         4        44     9        0.000000       -0.099822         1    ;  uncertainty k = 0.241523
         6         5         4        44     9      180.000000        7.800451         2    ;  uncertainty k = 0.321389
         6         5         4        44     9        0.000000        1.212039         3    ;  uncertainty k = 0.364603
         6         5         4        44     9      180.000000        1.643101         4    ;  uncertainty k = 0.155684
         6         7         8         9     9        0.000000        4.371474         1    ;  uncertainty k = 1.288133
         6         7         8         9     9      180.000000       10.778642         2    ;  uncertainty k = 0.228702
         6         7         8         9     9        0.000000        0.680673         3    ;  uncertainty k = 0.311323
         6         7         8         9     9      180.000000       -0.507605         4    ;  uncertainty k = 0.056382
         6         7         8        16     9        0.000000        7.039557         1    ;  uncertainty k = 0.599174
         6         7         8        16     9      180.000000        8.681781         2    ;  uncertainty k = 0.097887
         6         7         8        16     9        0.000000        0.920442         3    ;  uncertainty k = 0.381757
         6         7         8        16     9      180.000000       -0.164554         4    ;  uncertainty k = 0.221364
         6        37        38        39     9        0.000000        0.152072         1    ;  uncertainty k = 0.236865
         6        37        38        39     9      180.000000       11.350407         2    ;  uncertainty k = 0.544002
         6        37        38        39     9        0.000000        1.355668         3    ;  uncertainty k = 0.349765
         6        37        38        39     9      180.000000        1.696486         4    ;  uncertainty k = 0.237430
         7         6         5        45     9        0.000000       -0.291935         1    ;  uncertainty k = 0.233190
         7         6         5        45     9      180.000000        7.944709         2    ;  uncertainty k = 0.164350
         7         6         5        45     9        0.000000        0.918004         3    ;  uncertainty k = 0.228757
         7         6         5        45     9      180.000000        1.083856         4    ;  uncertainty k = 0.164907
         7         6        37        38     9        0.000000        0.148912         1    ;  uncertainty k = 0.574988
         7         6        37        38     9      180.000000        9.899585         2    ;  uncertainty k = 0.247387
         7         6        37        38     9        0.000000        1.000996         3    ;  uncertainty k = 0.351814
         7         6        37        38     9      180.000000        1.610986         4    ;  uncertainty k = 0.137508
         7         6        37        62     9        0.000000       -0.272934         1    ;  uncertainty k = 0.329124
         7         6        37        62     9      180.000000        7.865305         2    ;  uncertainty k = 0.242077
         7         6        37        62     9        0.000000        0.914516         3    ;  uncertainty k = 0.283704
         7         6        37        62     9      180.000000        1.068016         4    ;  uncertainty k = 0.243003
         7         8         9        10     9        0.000000        1.093752         1    ;  uncertainty k = 1.036216
         7         8         9        10     9      180.000000       17.904273         2    ;  uncertainty k = 0.458530
         7         8         9        10     9        0.000000        2.916476         3    ;  uncertainty k = 0.276348
         7         8         9        10     9      180.000000        1.662492         4    ;  uncertainty k = 0.298465
         7         8        16        12     9        0.000000       -0.953523         1    ;  uncertainty k = 0.960772
         7         8        16        12     9      180.000000        5.426482         2    ;  uncertainty k = 0.732995
         7         8        16        12     9        0.000000        0.463829         3    ;  uncertainty k = 0.276199
         7         8        16        12     9      180.000000        0.425035         4    ;  uncertainty k = 0.145522
         7         8        16        15     9        0.000000       -0.723785         1    ;  uncertainty k = 0.708754
         7         8        16        15     9      180.000000        4.584249         2    ;  uncertainty k = 1.077487
         7         8        16        15     9        0.000000        0.569780         3    ;  uncertainty k = 0.418446
         7         8        16        15     9      180.000000        0.322210         4    ;  uncertainty k = 0.225420
         8         7         6        37     9        0.000000        1.597949         1    ;  uncertainty k = 0.980883
         8         7         6        37     9      180.000000        5.574008         2    ;  uncertainty k = 0.231879
         8         7         6        37     9        0.000000        0.917734         3    ;  uncertainty k = 0.237919
         8         7         6        37     9      180.000000        0.218590         4    ;  uncertainty k = 0.147859
         8         9        10        11     9        0.000000        0.939472         1    ;  uncertainty k = 1.501293
         8         9        10        11     9      180.000000        5.478746         2    ;  uncertainty k = 1.436528
         8         9        10        11     9        0.000000        1.155133         3    ;  uncertainty k = 0.833319
         8         9        10        11     9      180.000000        0.505236         4    ;  uncertainty k = 0.531949
         8         9        10        17     9        0.000000        0.794449         1    ;  uncertainty k = 1.385572
         8         9        10        17     9      180.000000        8.981133         2    ;  uncertainty k = 0.771213
         8         9        10        17     9        0.000000        1.556127         3    ;  uncertainty k = 0.550783
         8         9        10        17     9      180.000000        0.428246         4    ;  uncertainty k = 0.313577
         8        16        12        11     9        0.000000       -0.074404         1    ;  uncertainty k = 0.950776
         8        16        12        11     9      180.000000        5.131695         2    ;  uncertainty k = 1.540543
         8        16        12        11     9        0.000000        1.364864         3    ;  uncertainty k = 0.461387
         8        16        12        11     9      180.000000        0.396564         4    ;  uncertainty k = 0.312989
         8        16        12        13     9        0.000000        0.340421         1    ;  uncertainty k = 0.792594
         8        16        12        13     9      180.000000        6.024514         2    ;  uncertainty k = 0.492565
         8        16        12        13     9        0.000000        0.209998         3    ;  uncertainty k = 0.527723
         8        16        12        13     9      180.000000        0.585311         4    ;  uncertainty k = 0.374830
         8        16        15        14     9        0.000000       -0.258737         1    ;  uncertainty k = 0.813753
         8        16        15        14     9      180.000000       16.417004         2    ;  uncertainty k = 0.455554
         8        16        15        14     9        0.000000        0.694004         3    ;  uncertainty k = 0.637623
         8        16        15        14     9      180.000000        1.345365         4    ;  uncertainty k = 0.597908
         9         8         7        46     9        0.000000        8.922955         1    ;  uncertainty k = 0.590685
         9         8         7        46     9      180.000000        9.664256         2    ;  uncertainty k = 0.294390
         9         8         7        46     9        0.000000        1.087484         3    ;  uncertainty k = 0.311607
         9         8         7        46     9      180.000000       -0.057211         4    ;  uncertainty k = 0.149118
         9         8        16        12     9        0.000000       -0.501339         1    ;  uncertainty k = 0.640962
         9         8        16        12     9      180.000000        6.017649         2    ;  uncertainty k = 0.720253
         9         8        16        12     9        0.000000       -0.364995         3    ;  uncertainty k = 0.314829
         9         8        16        12     9      180.000000        0.566312         4    ;  uncertainty k = 0.158572
         9         8        16        15     9        0.000000       -1.422781         1    ;  uncertainty k = 2.244566
         9         8        16        15     9      180.000000        4.485013         2    ;  uncertainty k = 0.589709
         9         8        16        15     9        0.000000        0.451575         3    ;  uncertainty k = 0.408181
         9         8        16        15     9      180.000000        0.387928         4    ;  uncertainty k = 0.297232
         9        10        11        12     9        0.000000        0.000363         1    ;  uncertainty k = 0.567484
         9        10        11        12     9      180.000000       21.321771         2    ;  uncertainty k = 0.622600
         9        10        11        12     9        0.000000        0.535647         3    ;  uncertainty k = 0.315067
         9        10        11        12     9      180.000000        0.534100         4    ;  uncertainty k = 0.517790
         9        10        11        47     9        0.000000        0.400300         1    ;  uncertainty k = 0.999411
         9        10        11        47     9      180.000000       12.773519         2    ;  uncertainty k = 0.371018
         9        10        11        47     9        0.000000        1.630575         3    ;  uncertainty k = 0.622598
         9        10        11        47     9      180.000000        1.089831         4    ;  uncertainty k = 0.430455
         9        10        17        18     9        0.000000       -0.842925         1    ;  uncertainty k = 1.576912
         9        10        17        18     9      180.000000        4.811965         2    ;  uncertainty k = 0.164611
         9        10        17        18     9        0.000000        0.396916         3    ;  uncertainty k = 0.157235
         9        10        17        18     9      180.000000        0.104740         4    ;  uncertainty k = 0.135081
         9        10        17        22     9        0.000000       -0.372742         1    ;  uncertainty k = 1.621861
         9        10        17        22     9      180.000000        4.794671         2    ;  uncertainty k = 0.205596
         9        10        17        22     9        0.000000        0.390302         3    ;  uncertainty k = 0.141423
         9        10        17        22     9      180.000000        0.081330         4    ;  uncertainty k = 0.149739
        10         9         8        16     9        0.000000       -0.079279         1    ;  uncertainty k = 2.218225
        10         9         8        16     9      180.000000       13.592966         2    ;  uncertainty k = 0.610320
        10         9         8        16     9        0.000000        2.514815         3    ;  uncertainty k = 0.854000
        10         9         8        16     9      180.000000        1.355385         4    ;  uncertainty k = 0.396239
        10        11        12        13     9        0.000000        0.426660         1    ;  uncertainty k = 1.499798
        10        11        12        13     9      180.000000        4.652440         2    ;  uncertainty k = 0.599162
        10        11        12        13     9        0.000000        0.715391         3    ;  uncertainty k = 0.332562
        10        11        12        13     9      180.000000        0.335557         4    ;  uncertainty k = 0.092544
        10        11        12        16     9        0.000000       -0.092030         1    ;  uncertainty k = 1.657469
        10        11        12        16     9      180.000000        6.297307         2    ;  uncertainty k = 0.496588
        10        11        12        16     9        0.000000       -0.827331         3    ;  uncertainty k = 0.837727
        10        11        12        16     9      180.000000        0.591428         4    ;  uncertainty k = 0.145930
        10        17        18        19     9        0.000000        0.059496         1    ;  uncertainty k = 0.170005
        10        17        18        19     9      180.000000        9.082568         2    ;  uncertainty k = 0.568610
        10        17        18        19     9        0.000000        1.268651         3    ;  uncertainty k = 0.336252
        10        17        18        19     9      180.000000        1.713418         4    ;  uncertainty k = 0.243957
        10        17        18        50     9        0.000000        0.004901         1    ;  uncertainty k = 0.159335
        10        17        18        50     9      180.000000        7.002722         2    ;  uncertainty k = 0.358409
        10        17        18        50     9        0.000000        0.662384         3    ;  uncertainty k = 0.254752
        10        17        18        50     9      180.000000        1.137411         4    ;  uncertainty k = 0.196707
        10        17        22        21     9        0.000000       -0.009980         1    ;  uncertainty k = 0.175008
        10        17        22        21     9      180.000000        8.877144         2    ;  uncertainty k = 0.512529
        10        17        22        21     9        0.000000        1.246805         3    ;  uncertainty k = 0.254355
        10        17        22        21     9      180.000000        1.710790         4    ;  uncertainty k = 0.090192
        10        17        22        53     9        0.000000        0.027707         1    ;  uncertainty k = 0.271703
        10        17        22        53     9      180.000000        7.234969         2    ;  uncertainty k = 0.297321
        10        17        22        53     9        0.000000        0.739097         3    ;  uncertainty k = 0.231375
        10        17        22        53     9      180.000000        1.270064         4    ;  uncertainty k = 0.187282
        11        10        17        18     9        0.000000       -0.073072         1    ;  uncertainty k = 0.402833
        11        10        17        18     9      180.000000        3.730323         2    ;  uncertainty k = 0.332929
        11        10        17        18     9        0.000000        0.762575         3    ;  uncertainty k = 0.247152
        11        10        17        18     9      180.000000       -0.326397         4    ;  uncertainty k = 0.135735
        11        10        17        22     9        0.000000       -0.186094         1    ;  uncertainty k = 0.280726
        11        10        17        22     9      180.000000        3.699147         2    ;  uncertainty k = 0.287042
        11        10        17        22     9        0.000000        0.865802         3    ;  uncertainty k = 0.199031
        11        10        17        22     9      180.000000       -0.305306         4    ;  uncertainty k = 0.142108
        11        12        13        14     9        0.000000        0.230792         1    ;  uncertainty k = 1.269739
        11        12        13        14     9      180.000000        9.569835         2    ;  uncertainty k = 0.766860
        11        12        13        14     9        0.000000        0.431847         3    ;  uncertainty k = 0.749472
        11        12        13        14     9      180.000000        0.562970         4    ;  uncertainty k = 0.317996
        11        12        13        48     9        0.000000        0.582734         1    ;  uncertainty k = 1.282917
        11        12        13        48     9      180.000000        2.797133         2    ;  uncertainty k = 1.416073
        11        12        13        48     9        0.000000        1.235337         3    ;  uncertainty k = 0.396602
        11        12        13        48     9      180.000000        0.134008         4    ;  uncertainty k = 0.120872
        11        12        16        15     9        0.000000        0.339778         1    ;  uncertainty k = 0.557633
        11        12        16        15     9      180.000000        8.702718         2    ;  uncertainty k = 0.552036
        11        12        16        15     9        0.000000        0.461033         3    ;  uncertainty k = 0.395643
        11        12        16        15     9      180.000000        0.883728         4    ;  uncertainty k = 0.214014
        12        11        10        17     9        0.000000        0.591760         1    ;  uncertainty k = 0.266729
        12        11        10        17     9      180.000000       17.691269         2    ;  uncertainty k = 0.416571
        12        11        10        17     9        0.000000        1.855431         3    ;  uncertainty k = 0.438797
        12        11        10        17     9      180.000000        0.749919         4    ;  uncertainty k = 0.228530
        12        13        14        15     9        0.000000       -0.424260         1    ;  uncertainty k = 0.720470
        12        13        14        15     9      180.000000       21.948846         2    ;  uncertainty k = 0.272816
        12        13        14        15     9        0.000000       -9.453916         3    ;  uncertainty k = 0.408149
        12        13        14        15     9      180.000000        1.578950         4    ;  uncertainty k = 0.654473
        12        13        14        49     9        0.000000        0.427384         1    ;  uncertainty k = 0.828520
        12        13        14        49     9      180.000000       13.870596         2    ;  uncertainty k = 0.182398
        12        13        14        49     9        0.000000        1.815390         3    ;  uncertainty k = 0.320274
        12        13        14        49     9      180.000000        0.903574         4    ;  uncertainty k = 0.223948
        12        16        15        14     9        0.000000       -0.698106         1    ;  uncertainty k = 0.543245
        12        16        15        14     9      180.000000       23.970045         2    ;  uncertainty k = 0.495894
        12        16        15        14     9        0.000000      -11.206152         3    ;  uncertainty k = 1.161986
        12        16        15        14     9      180.000000        1.981051         4    ;  uncertainty k = 0.603215
        13        12        11        47     9        0.000000        1.227129         1    ;  uncertainty k = 1.232866
        13        12        11        47     9      180.000000        2.938476         2    ;  uncertainty k = 1.102517
        13        12        11        47     9        0.000000        1.033215         3    ;  uncertainty k = 0.512498
        13        12        11        47     9      180.000000        0.184975         4    ;  uncertainty k = 0.169272
        13        12        16        15     9        0.000000       -0.600194         1    ;  uncertainty k = 0.427506
        13        12        16        15     9      180.000000       12.032078         2    ;  uncertainty k = 0.540572
        13        12        16        15     9        0.000000       -4.884607         3    ;  uncertainty k = 1.243657
        13        12        16        15     9      180.000000        1.176890         4    ;  uncertainty k = 0.463084
        13        14        15        16     9        0.000000       -0.719372         1    ;  uncertainty k = 0.806442
        13        14        15        16     9      180.000000       16.306392         2    ;  uncertainty k = 0.372138
        13        14        15        16     9        0.000000       -5.546727         3    ;  uncertainty k = 0.784851
        13        14        15        16     9      180.000000        2.138755         4    ;  uncertainty k = 0.319470
        14        13        12        16     9        0.000000        0.425342         1    ;  uncertainty k = 0.911890
        14        13        12        16     9      180.000000       13.121731         2    ;  uncertainty k = 1.266973
        14        13        12        16     9        0.000000      -13.119121         3    ;  uncertainty k = 1.817832
        14        13        12        16     9      180.000000        1.693366         4    ;  uncertainty k = 0.377704
        15        14        13        48     9        0.000000       -0.210816         1    ;  uncertainty k = 0.409316
        15        14        13        48     9      180.000000       14.525458         2    ;  uncertainty k = 0.474526
        15        14        13        48     9        0.000000        1.399987         3    ;  uncertainty k = 0.472591
        15        14        13        48     9      180.000000        0.597840         4    ;  uncertainty k = 0.116226
        16         8         7        46     9        0.000000        5.299478         1    ;  uncertainty k = 1.071663
        16         8         7        46     9      180.000000        6.121003         2    ;  uncertainty k = 0.320631
        16         8         7        46     9        0.000000        1.371092         3    ;  uncertainty k = 0.426495
        16         8         7        46     9      180.000000       -0.017305         4    ;  uncertainty k = 0.216320
        16        12        11        47     9        0.000000        1.224014         1    ;  uncertainty k = 1.441617
        16        12        11        47     9      180.000000        4.285565         2    ;  uncertainty k = 0.541130
        16        12        11        47     9        0.000000        1.126047         3    ;  uncertainty k = 0.359169
        16        12        11        47     9      180.000000        0.200397         4    ;  uncertainty k = 0.127762
        16        12        13        48     9        0.000000        0.337818         1    ;  uncertainty k = 0.998521
        16        12        13        48     9      180.000000        7.392009         2    ;  uncertainty k = 0.385665
        16        12        13        48     9        0.000000        1.061986         3    ;  uncertainty k = 0.365239
        16        12        13        48     9      180.000000        0.171584         4    ;  uncertainty k = 0.281011
        16        15        14        49     9        0.000000       -0.095583         1    ;  uncertainty k = 0.393921
        16        15        14        49     9      180.000000       14.177386         2    ;  uncertainty k = 0.352374
        16        15        14        49     9        0.000000        1.588170         3    ;  uncertainty k = 0.688228
        16        15        14        49     9      180.000000        0.904862         4    ;  uncertainty k = 0.448977
        17        10        11        47     9        0.000000       -0.216928         1    ;  uncertainty k = 0.346341
        17        10        11        47     9      180.000000        9.418174         2    ;  uncertainty k = 0.495731
        17        10        11        47     9        0.000000        1.500647         3    ;  uncertainty k = 0.314168
        17        10        11        47     9      180.000000        1.007881         4    ;  uncertainty k = 0.136891
        17        18        19        20     9        0.000000       -0.012057         1    ;  uncertainty k = 0.151619
        17        18        19        20     9      180.000000       13.850235         2    ;  uncertainty k = 0.338643
        17        18        19        20     9        0.000000       -0.893391         3    ;  uncertainty k = 0.307529
        17        18        19        20     9      180.000000        0.681688         4    ;  uncertainty k = 0.299981
        17        18        19        51     9        0.000000        0.060657         1    ;  uncertainty k = 0.117379
        17        18        19        51     9      180.000000        7.697437         2    ;  uncertainty k = 0.360548
        17        18        19        51     9        0.000000        1.435852         3    ;  uncertainty k = 0.226550
        17        18        19        51     9      180.000000        1.851608         4    ;  uncertainty k = 0.107762
        17        22        21        20     9        0.000000       -0.042378         1    ;  uncertainty k = 0.140862
        17        22        21        20     9      180.000000       10.650537         2    ;  uncertainty k = 0.356486
        17        22        21        20     9        0.000000       -0.298412         3    ;  uncertainty k = 0.337589
        17        22        21        20     9      180.000000        1.089194         4    ;  uncertainty k = 0.278688
        17        22        21        23     9        0.000000        0.534430         1    ;  uncertainty k = 0.111543
        17        22        21        23     9      180.000000        9.192381         2    ;  uncertainty k = 0.655105
        17        22        21        23     9        0.000000        1.531091         3    ;  uncertainty k = 0.184351
        17        22        21        23     9      180.000000        1.837485         4    ;  uncertainty k = 0.326806
        18        17        22        21     9        0.000000       -0.012457         1    ;  uncertainty k = 0.090713
        18        17        22        21     9      180.000000       10.180229         2    ;  uncertainty k = 0.276967
        18        17        22        21     9        0.000000       -0.056222         3    ;  uncertainty k = 0.291321
        18        17        22        21     9      180.000000        1.125297         4    ;  uncertainty k = 0.190465
        18        17        22        53     9        0.000000        0.181574         1    ;  uncertainty k = 0.115113
        18        17        22        53     9      180.000000        7.261847         2    ;  uncertainty k = 0.554435
        18        17        22        53     9        0.000000        1.303618         3    ;  uncertainty k = 0.158239
        18        17        22        53     9      180.000000        1.634910         4    ;  uncertainty k = 0.232983
        18        19        20        21     9        0.000000       -0.139381         1    ;  uncertainty k = 0.136333
        18        19        20        21     9      180.000000       13.339092         2    ;  uncertainty k = 0.375750
        18        19        20        21     9        0.000000       -0.717444         3    ;  uncertainty k = 0.324663
        18        19        20        21     9      180.000000        0.797221         4    ;  uncertainty k = 0.243008
        18        19        20        52     9        0.000000        0.068502         1    ;  uncertainty k = 0.079350
        18        19        20        52     9      180.000000        7.276539         2    ;  uncertainty k = 0.273481
        18        19        20        52     9        0.000000        1.393918         3    ;  uncertainty k = 0.234872
        18        19        20        52     9      180.000000        1.819480         4    ;  uncertainty k = 0.136311
        19        18        17        22     9        0.000000       -0.070633         1    ;  uncertainty k = 0.075333
        19        18        17        22     9      180.000000       10.756695         2    ;  uncertainty k = 0.285727
        19        18        17        22     9        0.000000       -0.527966         3    ;  uncertainty k = 0.267427
        19        18        17        22     9      180.000000        0.956766         4    ;  uncertainty k = 0.212678
        19        20        21        22     9        0.000000       -0.109854         1    ;  uncertainty k = 0.137132
        19        20        21        22     9      180.000000       10.905346         2    ;  uncertainty k = 0.374386
        19        20        21        22     9        0.000000       -0.711942         3    ;  uncertainty k = 0.170745
        19        20        21        22     9      180.000000        0.964915         4    ;  uncertainty k = 0.195520
        19        20        21        23     9        0.000000        0.358468         1    ;  uncertainty k = 0.141655
        19        20        21        23     9      180.000000        9.364145         2    ;  uncertainty k = 0.630541
        19        20        21        23     9        0.000000        1.429780         3    ;  uncertainty k = 0.340638
        19        20        21        23     9      180.000000        1.818460         4    ;  uncertainty k = 0.299564
        20        19        18        50     9        0.000000        0.091673         1    ;  uncertainty k = 0.056305
        20        19        18        50     9      180.000000        7.393375         2    ;  uncertainty k = 0.308207
        20        19        18        50     9        0.000000        1.415456         3    ;  uncertainty k = 0.242919
        20        19        18        50     9      180.000000        1.825501         4    ;  uncertainty k = 0.122624
        20        21        22        53     9        0.000000        0.352611         1    ;  uncertainty k = 0.263430
        20        21        22        53     9      180.000000        7.518728         2    ;  uncertainty k = 0.471067
        20        21        22        53     9        0.000000        1.236785         3    ;  uncertainty k = 0.248635
        20        21        22        53     9      180.000000        1.686866         4    ;  uncertainty k = 0.251883
        20        21        23        24     9        0.000000       -0.561309         1    ;  uncertainty k = 0.394342
        20        21        23        24     9      180.000000        3.721701         2    ;  uncertainty k = 0.304205
        20        21        23        24     9        0.000000        0.367548         3    ;  uncertainty k = 0.197809
        20        21        23        24     9      180.000000       -0.044178         4    ;  uncertainty k = 0.073166
        20        21        23        25     9        0.000000        0.453308         1    ;  uncertainty k = 0.366054
        20        21        23        25     9      180.000000        3.159616         2    ;  uncertainty k = 0.129443
        20        21        23        25     9        0.000000        0.126851         3    ;  uncertainty k = 0.234351
        20        21        23        25     9      180.000000       -0.133120         4    ;  uncertainty k = 0.092919
        21        20        19        51     9        0.000000       -0.096751         1    ;  uncertainty k = 0.244414
        21        20        19        51     9      180.000000        8.104427         2    ;  uncertainty k = 0.284429
        21        20        19        51     9        0.000000        1.374024         3    ;  uncertainty k = 0.182476
        21        20        19        51     9      180.000000        1.777523         4    ;  uncertainty k = 0.143783
        21        23        25        26     9        0.000000        5.095142         1    ;  uncertainty k = 1.285283
        21        23        25        26     9      180.000000       11.258234         2    ;  uncertainty k = 0.148190
        21        23        25        26     9        0.000000        1.900834         3    ;  uncertainty k = 0.155738
        21        23        25        26     9      180.000000       -1.324783         4    ;  uncertainty k = 0.410591
        21        23        25        54     9        0.000000       -1.609391         1    ;  uncertainty k = 0.535226
        21        23        25        54     9      180.000000        6.149565         2    ;  uncertainty k = 0.709002
        21        23        25        54     9        0.000000        2.306895         3    ;  uncertainty k = 0.331978
        21        23        25        54     9      180.000000        0.110650         4    ;  uncertainty k = 0.293875
        22        17        18        50     9        0.000000        0.214331         1    ;  uncertainty k = 0.100066
        22        17        18        50     9      180.000000        6.830142         2    ;  uncertainty k = 0.464068
        22        17        18        50     9        0.000000        1.336017         3    ;  uncertainty k = 0.189897
        22        17        18        50     9      180.000000        1.643552         4    ;  uncertainty k = 0.238792
        22        21        20        52     9        0.000000        0.371817         1    ;  uncertainty k = 0.211010
        22        21        20        52     9      180.000000        7.161686         2    ;  uncertainty k = 0.494659
        22        21        20        52     9        0.000000        1.269366         3    ;  uncertainty k = 0.269259
        22        21        20        52     9      180.000000        1.675677         4    ;  uncertainty k = 0.260198
        22        21        23        24     9        0.000000       -0.325456         1    ;  uncertainty k = 0.582174
        22        21        23        24     9      180.000000        3.617188         2    ;  uncertainty k = 0.440176
        22        21        23        24     9        0.000000        0.338274         3    ;  uncertainty k = 0.183020
        22        21        23        24     9      180.000000       -0.038582         4    ;  uncertainty k = 0.081435
        22        21        23        25     9        0.000000        0.406589         1    ;  uncertainty k = 0.336885
        22        21        23        25     9      180.000000        3.201969         2    ;  uncertainty k = 0.180299
        22        21        23        25     9        0.000000        0.061328         3    ;  uncertainty k = 0.209609
        22        21        23        25     9      180.000000       -0.098926         4    ;  uncertainty k = 0.087650
        23        21        20        52     9        0.000000       -0.072402         1    ;  uncertainty k = 0.402342
        23        21        20        52     9      180.000000        8.074982         2    ;  uncertainty k = 0.442133
        23        21        20        52     9        0.000000        0.956914         3    ;  uncertainty k = 0.223886
        23        21        20        52     9      180.000000        1.118668         4    ;  uncertainty k = 0.216780
        23        21        22        53     9        0.000000        0.072630         1    ;  uncertainty k = 0.672943
        23        21        22        53     9      180.000000        8.146617         2    ;  uncertainty k = 0.443491
        23        21        22        53     9        0.000000        1.060817         3    ;  uncertainty k = 0.252472
        23        21        22        53     9      180.000000        1.243253         4    ;  uncertainty k = 0.262902
        23        25        26        27     9        0.000000        0.871387         1    ;  uncertainty k = 0.484614
        23        25        26        27     9      180.000000        4.393446         2    ;  uncertainty k = 0.225046
        23        25        26        27     9        0.000000        0.999481         3    ;  uncertainty k = 0.156238
        23        25        26        27     9      180.000000        0.179091         4    ;  uncertainty k = 0.129757
        23        25        26        31     9        0.000000        0.871387         1    ;  uncertainty k = 0.484614
        23        25        26        31     9      180.000000        4.393446         2    ;  uncertainty k = 0.225046
        23        25        26        31     9        0.000000        0.999481         3    ;  uncertainty k = 0.156238
        23        25        26        31     9      180.000000        0.179091         4    ;  uncertainty k = 0.129757
        24        23        25        26     9        0.000000        1.235325         1    ;  uncertainty k = 1.140453
        24        23        25        26     9      180.000000       10.940267         2    ;  uncertainty k = 0.140373
        24        23        25        26     9        0.000000        0.978288         3    ;  uncertainty k = 0.177062
        24        23        25        26     9      180.000000       -0.189308         4    ;  uncertainty k = 0.164422
        24        23        25        54     9        0.000000        2.401827         1    ;  uncertainty k = 0.865929
        24        23        25        54     9      180.000000       13.419713         2    ;  uncertainty k = 0.265945
        24        23        25        54     9        0.000000        1.830305         3    ;  uncertainty k = 0.326785
        24        23        25        54     9      180.000000       -0.410216         4    ;  uncertainty k = 0.142662
        25        26        27        28     9        0.000000        0.053629         1    ;  uncertainty k = 0.260155
        25        26        27        28     9      180.000000       10.051133         2    ;  uncertainty k = 0.499112
        25        26        27        28     9        0.000000        1.159594         3    ;  uncertainty k = 0.442848
        25        26        27        28     9      180.000000        1.671237         4    ;  uncertainty k = 0.244785
        25        26        27        55     9        0.000000       -0.259129         1    ;  uncertainty k = 0.242483
        25        26        27        55     9      180.000000        8.277749         2    ;  uncertainty k = 0.395436
        25        26        27        55     9        0.000000        0.773160         3    ;  uncertainty k = 0.239568
        25        26        27        55     9      180.000000        1.136081         4    ;  uncertainty k = 0.189464
        25        26        31        30     9        0.000000        0.053629         1    ;  uncertainty k = 0.260155
        25        26        31        30     9      180.000000       10.051133         2    ;  uncertainty k = 0.499112
        25        26        31        30     9        0.000000        1.159594         3    ;  uncertainty k = 0.442848
        25        26        31        30     9      180.000000        1.671237         4    ;  uncertainty k = 0.244785
        25        26        31        58     9        0.000000       -0.259129         1    ;  uncertainty k = 0.242483
        25        26        31        58     9      180.000000        8.277749         2    ;  uncertainty k = 0.395436
        25        26        31        58     9        0.000000        0.773160         3    ;  uncertainty k = 0.239568
        25        26        31        58     9      180.000000        1.136081         4    ;  uncertainty k = 0.189464
        26        27        28        29     9        0.000000       -0.190861         1    ;  uncertainty k = 0.132825
        26        27        28        29     9      180.000000       13.804254         2    ;  uncertainty k = 0.422083
        26        27        28        29     9        0.000000       -0.753826         3    ;  uncertainty k = 0.376947
        26        27        28        29     9      180.000000        0.785396         4    ;  uncertainty k = 0.366730
        26        27        28        56     9        0.000000       -0.122348         1    ;  uncertainty k = 0.246242
        26        27        28        56     9      180.000000        8.493012         2    ;  uncertainty k = 0.410526
        26        27        28        56     9        0.000000        1.238733         3    ;  uncertainty k = 0.313880
        26        27        28        56     9      180.000000        1.696659         4    ;  uncertainty k = 0.129693
        26        31        30        29     9        0.000000       -0.190861         1    ;  uncertainty k = 0.132825
        26        31        30        29     9      180.000000       13.804254         2    ;  uncertainty k = 0.422083
        26        31        30        29     9        0.000000       -0.753826         3    ;  uncertainty k = 0.376947
        26        31        30        29     9      180.000000        0.785396         4    ;  uncertainty k = 0.366730
        26        31        30        57     9        0.000000       -0.122348         1    ;  uncertainty k = 0.246242
        26        31        30        57     9      180.000000        8.493012         2    ;  uncertainty k = 0.410526
        26        31        30        57     9        0.000000        1.238733         3    ;  uncertainty k = 0.313880
        26        31        30        57     9      180.000000        1.696659         4    ;  uncertainty k = 0.129693
        27        26        25        54     9        0.000000        0.032292         1    ;  uncertainty k = 0.611338
        27        26        25        54     9      180.000000        4.192683         2    ;  uncertainty k = 0.261513
        27        26        25        54     9        0.000000        0.725010         3    ;  uncertainty k = 0.127022
        27        26        25        54     9      180.000000        0.346440         4    ;  uncertainty k = 0.060165
        27        26        31        30     9        0.000000       -0.087935         1    ;  uncertainty k = 0.185601
        27        26        31        30     9      180.000000        9.589506         2    ;  uncertainty k = 0.254453
        27        26        31        30     9        0.000000       -0.067283         3    ;  uncertainty k = 0.125459
        27        26        31        30     9      180.000000        1.153380         4    ;  uncertainty k = 0.224428
        27        26        31        58     9        0.000000        0.081147         1    ;  uncertainty k = 0.196609
        27        26        31        58     9      180.000000        6.733671         2    ;  uncertainty k = 0.483152
        27        26        31        58     9        0.000000        1.227218         3    ;  uncertainty k = 0.336599
        27        26        31        58     9      180.000000        1.490877         4    ;  uncertainty k = 0.170410
        27        28        29        30     9        0.000000       -0.022032         1    ;  uncertainty k = 0.218962
        27        28        29        30     9      180.000000       11.073893         2    ;  uncertainty k = 0.195837
        27        28        29        30     9        0.000000       -0.582727         3    ;  uncertainty k = 0.214375
        27        28        29        30     9      180.000000        0.901131         4    ;  uncertainty k = 0.173828
        27        28        29        32     9        0.000000       -0.119658         1    ;  uncertainty k = 0.256100
        27        28        29        32     9      180.000000        9.063670         2    ;  uncertainty k = 0.345224
        27        28        29        32     9        0.000000        1.212851         3    ;  uncertainty k = 0.204828
        27        28        29        32     9      180.000000        1.660944         4    ;  uncertainty k = 0.169366
        28        27        26        31     9        0.000000       -0.087935         1    ;  uncertainty k = 0.185601
        28        27        26        31     9      180.000000        9.589506         2    ;  uncertainty k = 0.254453
        28        27        26        31     9        0.000000       -0.067283         3    ;  uncertainty k = 0.125459
        28        27        26        31     9      180.000000        1.153380         4    ;  uncertainty k = 0.224428
        28        29        30        31     9        0.000000       -0.022032         1    ;  uncertainty k = 0.218962
        28        29        30        31     9      180.000000       11.073893         2    ;  uncertainty k = 0.195837
        28        29        30        31     9        0.000000       -0.582727         3    ;  uncertainty k = 0.214375
        28        29        30        31     9      180.000000        0.901131         4    ;  uncertainty k = 0.173828
        28        29        30        57     9        0.000000       -0.017796         1    ;  uncertainty k = 0.165895
        28        29        30        57     9      180.000000        6.628354         2    ;  uncertainty k = 0.651127
        28        29        30        57     9        0.000000        1.350607         3    ;  uncertainty k = 0.285485
        28        29        30        57     9      180.000000        1.578928         4    ;  uncertainty k = 0.251719
        28        29        32        33     9        0.000000        0.125617         1    ;  uncertainty k = 0.459328
        28        29        32        33     9      180.000000        2.635492         2    ;  uncertainty k = 0.168380
        28        29        32        33     9        0.000000        0.276400         3    ;  uncertainty k = 0.173501
        28        29        32        33     9      180.000000       -0.182618         4    ;  uncertainty k = 0.060769
        28        29        32        36     9        0.000000        0.519634         1    ;  uncertainty k = 0.685146
        28        29        32        36     9      180.000000        3.545167         2    ;  uncertainty k = 0.201207
        28        29        32        36     9        0.000000        0.485747         3    ;  uncertainty k = 0.100528
        28        29        32        36     9      180.000000       -0.010906         4    ;  uncertainty k = 0.092093
        29        28        27        55     9        0.000000        0.003190         1    ;  uncertainty k = 0.203916
        29        28        27        55     9      180.000000        8.673242         2    ;  uncertainty k = 0.200070
        29        28        27        55     9        0.000000        1.365924         3    ;  uncertainty k = 0.284954
        29        28        27        55     9      180.000000        1.859876         4    ;  uncertainty k = 0.195263
        29        30        31        58     9        0.000000        0.003190         1    ;  uncertainty k = 0.203916
        29        30        31        58     9      180.000000        8.673242         2    ;  uncertainty k = 0.200070
        29        30        31        58     9        0.000000        1.365924         3    ;  uncertainty k = 0.284954
        29        30        31        58     9      180.000000        1.859876         4    ;  uncertainty k = 0.195263
        29        32        33        34     9        0.000000        0.744155         1    ;  uncertainty k = 0.799772
        29        32        33        34     9      180.000000       12.785834         2    ;  uncertainty k = 0.281222
        29        32        33        34     9        0.000000        1.685317         3    ;  uncertainty k = 0.160800
        29        32        33        34     9      180.000000        0.661469         4    ;  uncertainty k = 0.273648
        29        32        33        59     9        0.000000        0.707992         1    ;  uncertainty k = 0.691955
        29        32        33        59     9      180.000000        6.650990         2    ;  uncertainty k = 0.619650
        29        32        33        59     9        0.000000        1.486904         3    ;  uncertainty k = 0.521769
        29        32        33        59     9      180.000000        0.433177         4    ;  uncertainty k = 0.203867
        29        32        36        35     9        0.000000        0.680552         1    ;  uncertainty k = 0.948873
        29        32        36        35     9      180.000000       13.215986         2    ;  uncertainty k = 0.364347
        29        32        36        35     9        0.000000        1.264257         3    ;  uncertainty k = 0.655017
        29        32        36        35     9      180.000000       -0.274170         4    ;  uncertainty k = 0.155261
        29        32        36        61     9        0.000000        0.706429         1    ;  uncertainty k = 0.892938
        29        32        36        61     9      180.000000        2.024271         2    ;  uncertainty k = 1.042640
        29        32        36        61     9        0.000000        1.102304         3    ;  uncertainty k = 0.638862
        29        32        36        61     9      180.000000       -0.040275         4    ;  uncertainty k = 0.167097
        30        29        28        56     9        0.000000       -0.017796         1    ;  uncertainty k = 0.165895
        30        29        28        56     9      180.000000        6.628354         2    ;  uncertainty k = 0.651127
        30        29        28        56     9        0.000000        1.350607         3    ;  uncertainty k = 0.285485
        30        29        28        56     9      180.000000        1.578928         4    ;  uncertainty k = 0.251719
        30        29        32        33     9        0.000000        0.125617         1    ;  uncertainty k = 0.459328
        30        29        32        33     9      180.000000        2.635492         2    ;  uncertainty k = 0.168380
        30        29        32        33     9        0.000000        0.276400         3    ;  uncertainty k = 0.173501
        30        29        32        33     9      180.000000       -0.182618         4    ;  uncertainty k = 0.060769
        30        29        32        36     9        0.000000        0.519634         1    ;  uncertainty k = 0.685146
        30        29        32        36     9      180.000000        3.545167         2    ;  uncertainty k = 0.201207
        30        29        32        36     9        0.000000        0.485747         3    ;  uncertainty k = 0.100528
        30        29        32        36     9      180.000000       -0.010906         4    ;  uncertainty k = 0.092093
        31        26        25        54     9        0.000000        0.032292         1    ;  uncertainty k = 0.611338
        31        26        25        54     9      180.000000        4.192683         2    ;  uncertainty k = 0.261513
        31        26        25        54     9        0.000000        0.725010         3    ;  uncertainty k = 0.127022
        31        26        25        54     9      180.000000        0.346440         4    ;  uncertainty k = 0.060165
        31        26        27        55     9        0.000000        0.081147         1    ;  uncertainty k = 0.196609
        31        26        27        55     9      180.000000        6.733671         2    ;  uncertainty k = 0.483152
        31        26        27        55     9        0.000000        1.227218         3    ;  uncertainty k = 0.336599
        31        26        27        55     9      180.000000        1.490877         4    ;  uncertainty k = 0.170410
        31        30        29        32     9        0.000000       -0.119658         1    ;  uncertainty k = 0.256100
        31        30        29        32     9      180.000000        9.063670         2    ;  uncertainty k = 0.345224
        31        30        29        32     9        0.000000        1.212851         3    ;  uncertainty k = 0.204828
        31        30        29        32     9      180.000000        1.660944         4    ;  uncertainty k = 0.169366
        32        29        28        56     9        0.000000       -0.349878         1    ;  uncertainty k = 0.312911
        32        29        28        56     9      180.000000        6.979385         2    ;  uncertainty k = 0.318017
        32        29        28        56     9        0.000000        0.756263         3    ;  uncertainty k = 0.170668
        32        29        28        56     9      180.000000        1.055989         4    ;  uncertainty k = 0.184930
        32        29        30        57     9        0.000000       -0.349878         1    ;  uncertainty k = 0.312911
        32        29        30        57     9      180.000000        6.979385         2    ;  uncertainty k = 0.318017
        32        29        30        57     9        0.000000        0.756263         3    ;  uncertainty k = 0.170668
        32        29        30        57     9      180.000000        1.055989         4    ;  uncertainty k = 0.184930
        32        33        34        35     9        0.000000       -0.152579         1    ;  uncertainty k = 0.350278
        32        33        34        35     9      180.000000       15.826777         2    ;  uncertainty k = 0.858892
        32        33        34        35     9        0.000000       -9.723370         3    ;  uncertainty k = 0.995537
        32        33        34        35     9      180.000000        1.944863         4    ;  uncertainty k = 0.538969
        32        33        34        60     9        0.000000        0.117278         1    ;  uncertainty k = 0.152631
        32        33        34        60     9      180.000000        8.631515         2    ;  uncertainty k = 0.307165
        32        33        34        60     9        0.000000        1.178240         3    ;  uncertainty k = 0.575964
        32        33        34        60     9      180.000000        0.552675         4    ;  uncertainty k = 0.291063
        32        36        35        34     9        0.000000        0.311216         1    ;  uncertainty k = 0.391962
        32        36        35        34     9      180.000000       17.598360         2    ;  uncertainty k = 0.294298
        32        36        35        34     9        0.000000       -7.271004         3    ;  uncertainty k = 1.163310
        32        36        35        34     9      180.000000        1.436332         4    ;  uncertainty k = 0.409098
        33        32        36        35     9        0.000000        0.076181         1    ;  uncertainty k = 0.796449
        33        32        36        35     9      180.000000       16.795657         2    ;  uncertainty k = 0.781873
        33        32        36        35     9        0.000000       -9.159887         3    ;  uncertainty k = 1.095306
        33        32        36        35     9      180.000000        1.099535         4    ;  uncertainty k = 0.449240
        33        32        36        61     9        0.000000        2.505087         1    ;  uncertainty k = 0.955096
        33        32        36        61     9      180.000000        8.544903         2    ;  uncertainty k = 0.696886
        33        32        36        61     9        0.000000        1.549015         3    ;  uncertainty k = 0.726016
        33        32        36        61     9      180.000000       -0.236565         4    ;  uncertainty k = 0.183069
        33        34        35        36     9        0.000000       -0.212738         1    ;  uncertainty k = 0.507620
        33        34        35        36     9      180.000000       25.240651         2    ;  uncertainty k = 0.393879
        33        34        35        36     9        0.000000       -9.212105         3    ;  uncertainty k = 0.981809
        33        34        35        36     9      180.000000        2.178001         4    ;  uncertainty k = 0.670665
        34        33        32        36     9        0.000000        0.115125         1    ;  uncertainty k = 0.384476
        34        33        32        36     9      180.000000       19.490788         2    ;  uncertainty k = 0.371801
        34        33        32        36     9        0.000000      -10.155654         3    ;  uncertainty k = 1.016161
        34        33        32        36     9      180.000000        1.520872         4    ;  uncertainty k = 0.556947
        34        35        36        61     9        0.000000        3.579822         1    ;  uncertainty k = 2.221924
        34        35        36        61     9      180.000000       15.364567         2    ;  uncertainty k = 0.441726
        34        35        36        61     9        0.000000        1.598182         3    ;  uncertainty k = 1.086539
        34        35        36        61     9      180.000000       -0.405108         4    ;  uncertainty k = 0.212079
        35        34        33        59     9        0.000000        0.317922         1    ;  uncertainty k = 0.453959
        35        34        33        59     9      180.000000       11.565932         2    ;  uncertainty k = 0.423186
        35        34        33        59     9        0.000000        1.021700         3    ;  uncertainty k = 0.778978
        35        34        33        59     9      180.000000        0.553861         4    ;  uncertainty k = 0.343226
        36        32        33        59     9        0.000000        0.559125         1    ;  uncertainty k = 0.587846
        36        32        33        59     9      180.000000       12.526630         2    ;  uncertainty k = 0.297463
        36        32        33        59     9        0.000000        1.427968         3    ;  uncertainty k = 0.502339
        36        32        33        59     9      180.000000        0.712611         4    ;  uncertainty k = 0.124192
        36        35        34        60     9        0.000000        0.605198         1    ;  uncertainty k = 0.500126
        36        35        34        60     9      180.000000       22.900560         2    ;  uncertainty k = 0.304435
        36        35        34        60     9        0.000000        1.346152         3    ;  uncertainty k = 0.722758
        36        35        34        60     9      180.000000        0.978544         4    ;  uncertainty k = 0.445339
        37         6         5        45     9        0.000000        0.060116         1    ;  uncertainty k = 0.285326
        37         6         5        45     9      180.000000        6.705138         2    ;  uncertainty k = 0.811642
        37         6         5        45     9        0.000000        1.254750         3    ;  uncertainty k = 0.282861
        37         6         5        45     9      180.000000        1.489480         4    ;  uncertainty k = 0.123485
        37         6         7        46     9        0.000000        3.766902         1    ;  uncertainty k = 0.282405
        37         6         7        46     9      180.000000        4.224135         2    ;  uncertainty k = 0.219471
        37         6         7        46     9        0.000000        0.731782         3    ;  uncertainty k = 0.239894
        37         6         7        46     9      180.000000        0.435986         4    ;  uncertainty k = 0.107235
        37        38        39        40     9        0.000000        1.341409         1    ;  uncertainty k = 0.791974
        37        38        39        40     9      180.000000        6.361826         2    ;  uncertainty k = 0.220151
        37        38        39        40     9        0.000000       -0.225719         3    ;  uncertainty k = 0.095998
        37        38        39        40     9      180.000000        0.006631         4    ;  uncertainty k = 0.110606
        38         3         4        44     9        0.000000       -0.032441         1    ;  uncertainty k = 0.368382
        38         3         4        44     9      180.000000        5.959631         2    ;  uncertainty k = 0.432852
        38         3         4        44     9        0.000000        1.321131         3    ;  uncertainty k = 0.261791
        38         3         4        44     9      180.000000        1.598351         4    ;  uncertainty k = 0.068542
        38        39        40        63     9        0.000000        1.110243         1    ;  uncertainty k = 0.221950
        38        39        40        63     9      180.000000       -2.083404         2    ;  uncertainty k = 0.117431
        38        39        40        63     9        0.000000        1.033193         3    ;  uncertainty k = 0.049822
        38        39        40        63     9      180.000000        0.223294         4    ;  uncertainty k = 0.039928
        38        39        40        64     9        0.000000        1.110243         1    ;  uncertainty k = 0.221950
        38        39        40        64     9      180.000000       -2.083404         2    ;  uncertainty k = 0.117431
        38        39        40        64     9        0.000000        1.033193         3    ;  uncertainty k = 0.049822
        38        39        40        64     9      180.000000        0.223294         4    ;  uncertainty k = 0.039928
        38        39        40        65     9        0.000000        1.110243         1    ;  uncertainty k = 0.221950
        38        39        40        65     9      180.000000       -2.083404         2    ;  uncertainty k = 0.117431
        38        39        40        65     9        0.000000        1.033193         3    ;  uncertainty k = 0.049822
        38        39        40        65     9      180.000000        0.223294         4    ;  uncertainty k = 0.039928
        39        38        37        62     9        0.000000       -0.013363         1    ;  uncertainty k = 0.227812
        39        38        37        62     9      180.000000        9.629863         2    ;  uncertainty k = 0.341224
        39        38        37        62     9        0.000000        0.885574         3    ;  uncertainty k = 0.134168
        39        38        37        62     9      180.000000        1.294493         4    ;  uncertainty k = 0.314813
        44         4         5        45     9        0.000000       -0.108356         1    ;  uncertainty k = 0.187629
        44         4         5        45     9      180.000000        7.451231         2    ;  uncertainty k = 0.478630
        44         4         5        45     9        0.000000       -0.297348         3    ;  uncertainty k = 0.298879
        44         4         5        45     9      180.000000        0.257401         4    ;  uncertainty k = 0.173209
        48        13        14        49     9        0.000000       -0.311075         1    ;  uncertainty k = 0.492453
        48        13        14        49     9      180.000000        5.384359         2    ;  uncertainty k = 0.598235
        48        13        14        49     9        0.000000        1.243313         3    ;  uncertainty k = 0.430719
        48        13        14        49     9      180.000000        0.271791         4    ;  uncertainty k = 0.092255
        50        18        19        51     9        0.000000       -0.168339         1    ;  uncertainty k = 0.209337
        50        18        19        51     9      180.000000        7.942593         2    ;  uncertainty k = 0.305248
        50        18        19        51     9        0.000000       -0.425408         3    ;  uncertainty k = 0.239929
        50        18        19        51     9      180.000000        0.154353         4    ;  uncertainty k = 0.150806
        51        19        20        52     9        0.000000       -0.184965         1    ;  uncertainty k = 0.269498
        51        19        20        52     9      180.000000        7.819208         2    ;  uncertainty k = 0.379675
        51        19        20        52     9        0.000000       -0.376880         3    ;  uncertainty k = 0.213324
        51        19        20        52     9      180.000000        0.166142         4    ;  uncertainty k = 0.144263
        55        27        28        56     9        0.000000       -0.083556         1    ;  uncertainty k = 0.378390
        55        27        28        56     9      180.000000        8.222914         2    ;  uncertainty k = 0.461383
        55        27        28        56     9        0.000000       -0.376910         3    ;  uncertainty k = 0.290693
        55        27        28        56     9      180.000000        0.356749         4    ;  uncertainty k = 0.206091
        57        30        31        58     9        0.000000       -0.083556         1    ;  uncertainty k = 0.378390
        57        30        31        58     9      180.000000        8.222914         2    ;  uncertainty k = 0.461383
        57        30        31        58     9        0.000000       -0.376910         3    ;  uncertainty k = 0.290693
        57        30        31        58     9      180.000000        0.356749         4    ;  uncertainty k = 0.206091
        59        33        34        60     9        0.000000       -0.458595         1    ;  uncertainty k = 0.999083
        59        33        34        60     9      180.000000        4.391931         2    ;  uncertainty k = 0.807263
        59        33        34        60     9        0.000000        1.330213         3    ;  uncertainty k = 0.400352
        59        33        34        60     9      180.000000        0.137927         4    ;  uncertainty k = 0.123559

[ dihedrals ] ; impropers
;       ai        aj        ak        al funct           phase               k        pn
         3         2         4        38     4      180.000000       15.206028         2    ;  uncertainty k = 0.074967
         3         4        38         2     4      180.000000       15.206028         2    ;  uncertainty k = 0.074967
         3        38         2         4     4      180.000000       15.206028         2    ;  uncertainty k = 0.074967
         4         3         5        44     4      180.000000        2.008340         2    ;  uncertainty k = 0.230968
         4         5        44         3     4      180.000000        2.008340         2    ;  uncertainty k = 0.230968
         4        44         3         5     4      180.000000        2.008340         2    ;  uncertainty k = 0.230968
         5         4         6        45     4      180.000000        2.607481         2    ;  uncertainty k = 0.379217
         5         6        45         4     4      180.000000        2.607481         2    ;  uncertainty k = 0.379217
         5        45         4         6     4      180.000000        2.607481         2    ;  uncertainty k = 0.379217
         6         5         7        37     4      180.000000       17.507519         2    ;  uncertainty k = 0.057196
         6         7        37         5     4      180.000000       17.507519         2    ;  uncertainty k = 0.057196
         6        37         5         7     4      180.000000       17.507519         2    ;  uncertainty k = 0.057196
         7         6         8        46     4      180.000000        1.622505         2    ;  uncertainty k = 0.666333
         7         8        46         6     4      180.000000        1.622505         2    ;  uncertainty k = 0.666333
         7        46         6         8     4      180.000000        1.622505         2    ;  uncertainty k = 0.666333
         8         7         9        16     4      180.000000       28.356146         2    ;  uncertainty k = 0.063061
         8         9        16         7     4      180.000000       28.356146         2    ;  uncertainty k = 0.063061
         8        16         7         9     4      180.000000       28.356146         2    ;  uncertainty k = 0.063061
        10         9        11        17     4      180.000000       19.449390         2    ;  uncertainty k = 0.082010
        10        11        17         9     4      180.000000       19.449390         2    ;  uncertainty k = 0.082010
        10        17         9        11     4      180.000000       19.449390         2    ;  uncertainty k = 0.082010
        11        10        12        47     4      180.000000        1.395889         2    ;  uncertainty k = 1.170220
        11        12        47        10     4      180.000000        1.395889         2    ;  uncertainty k = 1.170220
        11        47        10        12     4      180.000000        1.395889         2    ;  uncertainty k = 1.170220
        12        11        13        16     4      180.000000        1.589330         2    ;  uncertainty k = 1.390533
        12        13        16        11     4      180.000000        1.589330         2    ;  uncertainty k = 1.390533
        12        16        11        13     4      180.000000        1.589330         2    ;  uncertainty k = 1.390533
        13        12        14        48     4      180.000000        0.105194         2    ;  uncertainty k = 0.235221
        13        14        48        12     4      180.000000        0.105194         2    ;  uncertainty k = 0.235221
        13        48        12        14     4      180.000000        0.105194         2    ;  uncertainty k = 0.235221
        14        13        15        49     4      180.000000        1.779603         2    ;  uncertainty k = 0.230155
        14        15        49        13     4      180.000000        1.779603         2    ;  uncertainty k = 0.230155
        14        49        13        15     4      180.000000        1.779603         2    ;  uncertainty k = 0.230155
        16         8        12        15     4      180.000000        2.165379         2    ;  uncertainty k = 0.627947
        16        12        15         8     4      180.000000        2.165379         2    ;  uncertainty k = 0.627947
        16        15         8        12     4      180.000000        2.165379         2    ;  uncertainty k = 0.627947
        17        10        18        22     4      180.000000       10.912960         2    ;  uncertainty k = 0.153895
        17        18        22        10     4      180.000000       10.912960         2    ;  uncertainty k = 0.153895
        17        22        10        18     4      180.000000       10.912960         2    ;  uncertainty k = 0.153895
        18        17        19        50     4      180.000000        4.456890         2    ;  uncertainty k = 0.077297
        18        19        50        17     4      180.000000        4.456890         2    ;  uncertainty k = 0.077297
        18        50        17        19     4      180.000000        4.456890         2    ;  uncertainty k = 0.077297
        19        18        20        51     4      180.000000        3.384209         2    ;  uncertainty k = 0.178258
        19        20        51        18     4      180.000000        3.384209         2    ;  uncertainty k = 0.178258
        19        51        18        20     4      180.000000        3.384209         2    ;  uncertainty k = 0.178258
        20        19        21        52     4      180.000000        4.336301         2    ;  uncertainty k = 0.147130
        20        21        52        19     4      180.000000        4.336301         2    ;  uncertainty k = 0.147130
        20        52        19        21     4      180.000000        4.336301         2    ;  uncertainty k = 0.147130
        21        20        22        23     4      180.000000        7.405496         2    ;  uncertainty k = 0.127914
        21        22        23        20     4      180.000000        7.405496         2    ;  uncertainty k = 0.127914
        21        23        20        22     4      180.000000        7.405496         2    ;  uncertainty k = 0.127914
        22        17        21        53     4      180.000000        4.458777         2    ;  uncertainty k = 0.241906
        22        21        53        17     4      180.000000        4.458777         2    ;  uncertainty k = 0.241906
        22        53        17        21     4      180.000000        4.458777         2    ;  uncertainty k = 0.241906
        23        21        24        25     4      180.000000       52.715904         2    ;  uncertainty k = 0.035090
        23        24        25        21     4      180.000000       52.715904         2    ;  uncertainty k = 0.035090
        23        25        21        24     4      180.000000       52.715904         2    ;  uncertainty k = 0.035090
        25        23        26        54     4      180.000000        0.276403         2    ;  uncertainty k = 0.450960
        25        26        54        23     4      180.000000        0.276403         2    ;  uncertainty k = 0.450960
        25        54        23        26     4      180.000000        0.276403         2    ;  uncertainty k = 0.450960
        26        25        27        31     4      180.000000       17.622707         2    ;  uncertainty k = 0.128426
        26        27        31        25     4      180.000000       17.622707         2    ;  uncertainty k = 0.128426
        26        31        25        27     4      180.000000       17.622707         2    ;  uncertainty k = 0.128426
        27        26        28        55     4      180.000000        2.752889         2    ;  uncertainty k = 0.313738
        27        28        55        26     4      180.000000        2.752889         2    ;  uncertainty k = 0.313738
        27        55        26        28     4      180.000000        2.752889         2    ;  uncertainty k = 0.313738
        28        27        29        56     4      180.000000        3.279415         2    ;  uncertainty k = 0.174304
        28        29        56        27     4      180.000000        3.279415         2    ;  uncertainty k = 0.174304
        28        56        27        29     4      180.000000        3.279415         2    ;  uncertainty k = 0.174304
        29        28        30        32     4      180.000000       11.027061         2    ;  uncertainty k = 0.136208
        29        30        32        28     4      180.000000       11.027061         2    ;  uncertainty k = 0.136208
        29        32        28        30     4      180.000000       11.027061         2    ;  uncertainty k = 0.136208
        30        29        31        57     4      180.000000        3.279415         2    ;  uncertainty k = 0.174304
        30        31        57        29     4      180.000000        3.279415         2    ;  uncertainty k = 0.174304
        30        57        29        31     4      180.000000        3.279415         2    ;  uncertainty k = 0.174304
        31        26        30        58     4      180.000000        2.752888         2    ;  uncertainty k = 0.313738
        31        30        58        26     4      180.000000        2.752888         2    ;  uncertainty k = 0.313738
        31        58        26        30     4      180.000000        2.752888         2    ;  uncertainty k = 0.313738
        32        29        33        36     4      180.000000        7.110502         2    ;  uncertainty k = 0.240704
        32        33        36        29     4      180.000000        7.110502         2    ;  uncertainty k = 0.240704
        32        36        29        33     4      180.000000        7.110502         2    ;  uncertainty k = 0.240704
        34        33        35        60     4      180.000000        1.284513         2    ;  uncertainty k = 0.506182
        34        35        60        33     4      180.000000        1.284513         2    ;  uncertainty k = 0.506182
        34        60        33        35     4      180.000000        1.284513         2    ;  uncertainty k = 0.506182
        37         6        38        62     4      180.000000        1.689049         2    ;  uncertainty k = 0.529653
        37        38        62         6     4      180.000000        1.689049         2    ;  uncertainty k = 0.529653
        37        62         6        38     4      180.000000        1.689049         2    ;  uncertainty k = 0.529653
        38         3        37        39     4      180.000000       16.672262         2    ;  uncertainty k = 0.075717
        38        37        39         3     4      180.000000       16.672262         2    ;  uncertainty k = 0.075717
        38        39         3        37     4      180.000000       16.672262         2    ;  uncertainty k = 0.075717

[ pairs ]
;       ai        aj funct
         1         4     1
         1        38     1
         2         5     1
         2        37     1
         2        39     1
         2        44     1
         3         6     1
         3        40     1
         3        41     1
         3        42     1
         3        43     1
         3        45     1
         3        62     1
         4         7     1
         4        37     1
         4        39     1
         5         8     1
         5        38     1
         5        46     1
         5        62     1
         6         9     1
         6        16     1
         6        39     1
         6        44     1
         7        10     1
         7        12     1
         7        15     1
         7        38     1
         7        45     1
         7        62     1
         8        11     1
         8        13     1
         8        14     1
         8        17     1
         8        37     1
         9        12     1
         9        15     1
         9        18     1
         9        22     1
         9        46     1
         9        47     1
        10        13     1
        10        16     1
        10        19     1
        10        21     1
        10        50     1
        10        53     1
        11        14     1
        11        15     1
        11        18     1
        11        22     1
        11        48     1
        12        17     1
        12        49     1
        13        47     1
        15        48     1
        16        46     1
        16        47     1
        16        48     1
        16        49     1
        17        20     1
        17        23     1
        17        47     1
        17        51     1
        18        21     1
        18        52     1
        18        53     1
        19        22     1
        19        23     1
        20        24     1
        20        25     1
        20        50     1
        20        53     1
        21        26     1
        21        51     1
        21        54     1
        22        24     1
        22        25     1
        22        50     1
        22        52     1
        23        27     1
        23        31     1
        23        52     1
        23        53     1
        24        26     1
        24        54     1
        25        28     1
        25        30     1
        25        55     1
        25        58     1
        26        29     1
        26        56     1
        26        57     1
        27        30     1
        27        32     1
        27        54     1
        27        58     1
        28        31     1
        28        33     1
        28        36     1
        28        57     1
        29        34     1
        29        35     1
        29        55     1
        29        58     1
        29        59     1
        29        61     1
        30        33     1
        30        36     1
        30        56     1
        31        32     1
        31        54     1
        31        55     1
        32        56     1
        32        57     1
        32        60     1
        33        61     1
        34        61     1
        35        59     1
        36        59     1
        36        60     1
        37        40     1
        37        45     1
        37        46     1
        38        44     1
        38        63     1
        38        64     1
        38        65     1
        39        62     1
        44        45     1
        48        49     1
        50        51     1
        51        52     1
        55        56     1
        57        58     1
        59        60     1
