; ITP file created by ByteFF-joint-25, 2026-02-17 09:39:33.656739

[ atomtypes ]
;name           bonded.type        at.num        mass        charge   ptype           sigma         epsilon
 c0bf                                   6      0.0000       0.00000       A     3.39772e-01     4.50930e-01    ;  uncertainty sigma = 0.000002, epsilon = 0.000798
 c1bf                                   6      0.0000       0.00000       A     3.39771e-01     4.51152e-01    ;  uncertainty sigma = 0.000004, epsilon = 0.000825
 c2bf                                   6      0.0000       0.00000       A     3.39782e-01     4.50893e-01    ;  uncertainty sigma = 0.000005, epsilon = 0.000576
 c3bf                                   6      0.0000       0.00000       A     3.39771e-01     4.51152e-01    ;  uncertainty sigma = 0.000004, epsilon = 0.000825
 c4bf                                   6      0.0000       0.00000       A     3.39772e-01     4.50930e-01    ;  uncertainty sigma = 0.000002, epsilon = 0.000798
 o5bf                                   8      0.0000       0.00000       A     3.15609e-01     3.03551e-01    ;  uncertainty sigma = 0.000019, epsilon = 0.000859
 c6bf                                   6      0.0000       0.00000       A     3.31537e-01     4.13156e-01    ;  uncertainty sigma = 0.000005, epsilon = 0.000883
 c7bf                                   6      0.0000       0.00000       A     3.31520e-01     4.13459e-01    ;  uncertainty sigma = 0.000005, epsilon = 0.000395
 c8bf                                   6      0.0000       0.00000       A     3.31523e-01     4.13405e-01    ;  uncertainty sigma = 0.000007, epsilon = 0.000692
 c9bf                                   6      0.0000       0.00000       A     3.31524e-01     4.13431e-01    ;  uncertainty sigma = 0.000006, epsilon = 0.000776
 n10bf                                  7      0.0000       0.00000       A     3.27838e-01     6.46213e-01    ;  uncertainty sigma = 0.000040, epsilon = 0.003240
 c11bf                                  6      0.0000       0.00000       A     3.31526e-01     4.13887e-01    ;  uncertainty sigma = 0.000017, epsilon = 0.001682
 n12bf                                  7      0.0000       0.00000       A     3.38464e-01     3.93282e-01    ;  uncertainty sigma = 0.000032, epsilon = 0.000680
 c13bf                                  6      0.0000       0.00000       A     3.31551e-01     4.13482e-01    ;  uncertainty sigma = 0.000026, epsilon = 0.000675
 c14bf                                  6      0.0000       0.00000       A     3.31561e-01     4.13642e-01    ;  uncertainty sigma = 0.000012, epsilon = 0.001524
 n15bf                                  7      0.0000       0.00000       A     3.20547e-01     8.53303e-01    ;  uncertainty sigma = 0.000017, epsilon = 0.000844
 c16bf                                  6      0.0000       0.00000       A     3.31503e-01     4.12978e-01    ;  uncertainty sigma = 0.000012, epsilon = 0.001136
 c17bf                                  6      0.0000       0.00000       A     3.31531e-01     4.13187e-01    ;  uncertainty sigma = 0.000008, epsilon = 0.000699
 n18bf                                  7      0.0000       0.00000       A     3.38427e-01     3.92895e-01    ;  uncertainty sigma = 0.000039, epsilon = 0.000415
 c19bf                                  6      0.0000       0.00000       A     3.31554e-01     4.12537e-01    ;  uncertainty sigma = 0.000015, epsilon = 0.000432
 c20bf                                  6      0.0000       0.00000       A     3.31495e-01     4.12862e-01    ;  uncertainty sigma = 0.000015, epsilon = 0.000655
 c21bf                                  6      0.0000       0.00000       A     3.31522e-01     4.13340e-01    ;  uncertainty sigma = 0.000008, epsilon = 0.000498
 c22bf                                  6      0.0000       0.00000       A     3.31514e-01     4.13292e-01    ;  uncertainty sigma = 0.000012, epsilon = 0.000796
 c23bf                                  6      0.0000       0.00000       A     3.31509e-01     4.13757e-01    ;  uncertainty sigma = 0.000011, epsilon = 0.000799
 c24bf                                  6      0.0000       0.00000       A     3.31513e-01     4.13361e-01    ;  uncertainty sigma = 0.000005, epsilon = 0.000518
 n25bf                                  7      0.0000       0.00000       A     3.38391e-01     3.93277e-01    ;  uncertainty sigma = 0.000010, epsilon = 0.000960
 n26bf                                  7      0.0000       0.00000       A     3.20633e-01     8.53349e-01    ;  uncertainty sigma = 0.000014, epsilon = 0.001516
 c27bf                                  6      0.0000       0.00000       A     3.31512e-01     4.13040e-01    ;  uncertainty sigma = 0.000009, epsilon = 0.000957
 c28bf                                  6      0.0000       0.00000       A     3.31510e-01     4.13220e-01    ;  uncertainty sigma = 0.000011, epsilon = 0.001090
 c29bf                                  6      0.0000       0.00000       A     3.31523e-01     4.13405e-01    ;  uncertainty sigma = 0.000007, epsilon = 0.000691
 c30bf                                  6      0.0000       0.00000       A     3.31520e-01     4.13459e-01    ;  uncertainty sigma = 0.000005, epsilon = 0.000395
 h31bf                                  1      0.0000       0.00000       A     2.42193e-01     8.67159e-02    ;  uncertainty sigma = 0.000016, epsilon = 0.000708
 h32bf                                  1      0.0000       0.00000       A     2.42193e-01     8.67159e-02    ;  uncertainty sigma = 0.000016, epsilon = 0.000708
 h33bf                                  1      0.0000       0.00000       A     2.60024e-01     8.67802e-02    ;  uncertainty sigma = 0.000010, epsilon = 0.000538
 h34bf                                  1      0.0000       0.00000       A     2.60024e-01     8.67802e-02    ;  uncertainty sigma = 0.000010, epsilon = 0.000538
 h35bf                                  1      0.0000       0.00000       A     2.60038e-01     8.67924e-02    ;  uncertainty sigma = 0.000052, epsilon = 0.000695
 h36bf                                  1      0.0000       0.00000       A     2.60024e-01     8.67802e-02    ;  uncertainty sigma = 0.000010, epsilon = 0.000538
 h37bf                                  1      0.0000       0.00000       A     2.60024e-01     8.67802e-02    ;  uncertainty sigma = 0.000010, epsilon = 0.000538
 h38bf                                  1      0.0000       0.00000       A     2.42193e-01     8.67159e-02    ;  uncertainty sigma = 0.000016, epsilon = 0.000708
 h39bf                                  1      0.0000       0.00000       A     2.42193e-01     8.67159e-02    ;  uncertainty sigma = 0.000016, epsilon = 0.000708
 h40bf                                  1      0.0000       0.00000       A     2.62557e-01     6.70461e-02    ;  uncertainty sigma = 0.000014, epsilon = 0.000434
 h41bf                                  1      0.0000       0.00000       A     2.62561e-01     6.70662e-02    ;  uncertainty sigma = 0.000013, epsilon = 0.000421
 h42bf                                  1      0.0000       0.00000       A     1.10708e-01     4.06502e-02    ;  uncertainty sigma = 0.000118, epsilon = 0.000465
 h43bf                                  1      0.0000       0.00000       A     2.53612e-01     6.73648e-02    ;  uncertainty sigma = 0.000081, epsilon = 0.000889
 h44bf                                  1      0.0000       0.00000       A     2.53649e-01     6.68496e-02    ;  uncertainty sigma = 0.000023, epsilon = 0.000657
 h45bf                                  1      0.0000       0.00000       A     2.53645e-01     6.69492e-02    ;  uncertainty sigma = 0.000020, epsilon = 0.000834
 h46bf                                  1      0.0000       0.00000       A     2.62566e-01     6.71205e-02    ;  uncertainty sigma = 0.000011, epsilon = 0.000550
 h47bf                                  1      0.0000       0.00000       A     2.62563e-01     6.68746e-02    ;  uncertainty sigma = 0.000013, epsilon = 0.000544
 h48bf                                  1      0.0000       0.00000       A     2.53655e-01     6.72548e-02    ;  uncertainty sigma = 0.000027, epsilon = 0.000407
 h49bf                                  1      0.0000       0.00000       A     1.10649e-01     4.13996e-02    ;  uncertainty sigma = 0.000067, epsilon = 0.000803
 h50bf                                  1      0.0000       0.00000       A     2.62569e-01     6.71238e-02    ;  uncertainty sigma = 0.000008, epsilon = 0.000504
 h51bf                                  1      0.0000       0.00000       A     2.62561e-01     6.70662e-02    ;  uncertainty sigma = 0.000013, epsilon = 0.000421
 h52bf                                  1      0.0000       0.00000       A     2.62557e-01     6.70463e-02    ;  uncertainty sigma = 0.000014, epsilon = 0.000434

[ moleculetype ]
;name             nrexcl
 MOL                   3

[ atoms ]
;       nr            type      resi   res      atom      cgnr      charge          mass ; qtot
         1            c0bf         1   UNL        c0         1     0.13010       12.0110 ; qtot    0.130
         2            c1bf         1   UNL        c1         2    -0.10547       12.0110 ; qtot    0.025
         3            c2bf         1   UNL        c2         3    -0.01394       12.0110 ; qtot    0.011
         4            c3bf         1   UNL        c3         4    -0.10547       12.0110 ; qtot   -0.095
         5            c4bf         1   UNL        c4         5     0.13010       12.0110 ; qtot    0.035
         6            o5bf         1   UNL        o5         6    -0.41512       15.9990 ; qtot   -0.380
         7            c6bf         1   UNL        c6         7    -0.10160       12.0110 ; qtot   -0.481
         8            c7bf         1   UNL        c7         8    -0.10216       12.0110 ; qtot   -0.584
         9            c8bf         1   UNL        c8         9    -0.15954       12.0110 ; qtot   -0.743
        10            c9bf         1   UNL        c9        10     0.16569       12.0110 ; qtot   -0.577
        11           n10bf         1   UNL       n10        11    -0.74146       14.0070 ; qtot   -1.319
        12           c11bf         1   UNL       c11        12     0.75024       12.0110 ; qtot   -0.569
        13           n12bf         1   UNL       n12        13    -0.76973       14.0070 ; qtot   -1.338
        14           c13bf         1   UNL       c13        14     0.47542       12.0110 ; qtot   -0.863
        15           c14bf         1   UNL       c14        15    -0.22208       12.0110 ; qtot   -1.085
        16           n15bf         1   UNL       n15        16     0.05408       14.0070 ; qtot   -1.031
        17           c16bf         1   UNL       c16        17    -0.21243       12.0110 ; qtot   -1.243
        18           c17bf         1   UNL       c17        18     0.01175       12.0110 ; qtot   -1.232
        19           n18bf         1   UNL       n18        19    -0.27543       14.0070 ; qtot   -1.507
        20           c19bf         1   UNL       c19        20    -0.18460       12.0110 ; qtot   -1.692
        21           c20bf         1   UNL       c20        21    -0.09010       12.0110 ; qtot   -1.782
        22           c21bf         1   UNL       c21        22    -0.14752       12.0110 ; qtot   -1.929
        23           c22bf         1   UNL       c22        23    -0.05609       12.0110 ; qtot   -1.985
        24           c23bf         1   UNL       c23        24    -0.22020       12.0110 ; qtot   -2.206
        25           c24bf         1   UNL       c24        25     0.35625       12.0110 ; qtot   -1.849
        26           n25bf         1   UNL       n25        26    -0.50685       14.0070 ; qtot   -2.356
        27           n26bf         1   UNL       n26        27    -0.03477       14.0070 ; qtot   -2.391
        28           c27bf         1   UNL       c27        28    -0.03315       12.0110 ; qtot   -2.424
        29           c28bf         1   UNL       c28        29    -0.12410       12.0110 ; qtot   -2.548
        30           c29bf         1   UNL       c29        30    -0.15954       12.0110 ; qtot   -2.708
        31           c30bf         1   UNL       c30        31    -0.10216       12.0110 ; qtot   -2.810
        32           h31bf         1   UNL       h31        32     0.04549        1.0080 ; qtot   -2.764
        33           h32bf         1   UNL       h32        33     0.04549        1.0080 ; qtot   -2.719
        34           h33bf         1   UNL       h33        34     0.05258        1.0080 ; qtot   -2.666
        35           h34bf         1   UNL       h34        35     0.05258        1.0080 ; qtot   -2.614
        36           h35bf         1   UNL       h35        36     0.05398        1.0080 ; qtot   -2.560
        37           h36bf         1   UNL       h36        37     0.05258        1.0080 ; qtot   -2.507
        38           h37bf         1   UNL       h37        38     0.05258        1.0080 ; qtot   -2.455
        39           h38bf         1   UNL       h38        39     0.04549        1.0080 ; qtot   -2.409
        40           h39bf         1   UNL       h39        40     0.04549        1.0080 ; qtot   -2.364
        41           h40bf         1   UNL       h40        41     0.13328        1.0080 ; qtot   -2.230
        42           h41bf         1   UNL       h41        42     0.14562        1.0080 ; qtot   -2.085
        43           h42bf         1   UNL       h42        43     0.46054        1.0080 ; qtot   -1.624
        44           h43bf         1   UNL       h43        44     0.17402        1.0080 ; qtot   -1.450
        45           h44bf         1   UNL       h44        45     0.18619        1.0080 ; qtot   -1.264
        46           h45bf         1   UNL       h45        46     0.17120        1.0080 ; qtot   -1.093
        47           h46bf         1   UNL       h46        47     0.14353        1.0080 ; qtot   -0.949
        48           h47bf         1   UNL       h47        48     0.14235        1.0080 ; qtot   -0.807
        49           h48bf         1   UNL       h48        49     0.05012        1.0080 ; qtot   -0.757
        50           h49bf         1   UNL       h49        50     0.32822        1.0080 ; qtot   -0.429
        51           h50bf         1   UNL       h50        51     0.14965        1.0080 ; qtot   -0.279
        52           h51bf         1   UNL       h51        52     0.14562        1.0080 ; qtot   -0.133
        53           h52bf         1   UNL       h52        53     0.13328        1.0080 ; qtot    0.000

[ bonds ]
;       ai        aj funct               r               k
         1         2     1        0.153398   210335.992773    ;  uncertainty r = 0.000046, k = 3.994730
         1         6     1        0.142730   254830.932812    ;  uncertainty r = 0.000029, k = 3.294069
         1        32     1        0.109842   309071.804199    ;  uncertainty r = 0.000026, k = 0.804381
         1        33     1        0.109842   309071.804199    ;  uncertainty r = 0.000026, k = 0.804381
         2         3     1        0.154086   204996.898242    ;  uncertainty r = 0.000029, k = 3.925395
         2        34     1        0.109671   309821.190674    ;  uncertainty r = 0.000010, k = 1.291422
         2        35     1        0.109671   309821.190674    ;  uncertainty r = 0.000010, k = 1.291422
         3         4     1        0.154086   204996.898242    ;  uncertainty r = 0.000029, k = 3.925395
         3         7     1        0.151402   219614.875928    ;  uncertainty r = 0.000026, k = 1.274988
         3        36     1        0.109769   301655.112598    ;  uncertainty r = 0.000031, k = 0.863848
         4         5     1        0.153398   210335.992773    ;  uncertainty r = 0.000046, k = 3.994730
         4        37     1        0.109671   309821.190674    ;  uncertainty r = 0.000010, k = 1.291422
         4        38     1        0.109671   309821.190674    ;  uncertainty r = 0.000010, k = 1.291422
         5         6     1        0.142730   254830.932812    ;  uncertainty r = 0.000029, k = 3.294069
         5        39     1        0.109842   309071.804199    ;  uncertainty r = 0.000026, k = 0.804381
         5        40     1        0.109842   309071.804199    ;  uncertainty r = 0.000026, k = 0.804381
         7         8     1        0.139828   350477.290283    ;  uncertainty r = 0.000067, k = 2.500834
         7        31     1        0.139828   350477.341357    ;  uncertainty r = 0.000067, k = 2.500851
         8         9     1        0.139246   363487.809082    ;  uncertainty r = 0.000024, k = 2.189629
         8        41     1        0.108850   333870.993262    ;  uncertainty r = 0.000017, k = 0.838806
         9        10     1        0.140102   353847.652441    ;  uncertainty r = 0.000053, k = 5.605350
         9        42     1        0.108800   336063.481787    ;  uncertainty r = 0.000044, k = 1.825541
        10        11     1        0.141049   349188.636670    ;  uncertainty r = 0.000065, k = 12.841209
        10        30     1        0.140102   353847.703516    ;  uncertainty r = 0.000053, k = 5.605355
        11        12     1        0.137928   330364.033105    ;  uncertainty r = 0.000233, k = 32.504541
        11        43     1        0.102080   426606.656543    ;  uncertainty r = 0.000044, k = 5.060956
        12        13     1        0.132293   443196.890723    ;  uncertainty r = 0.000185, k = 13.473043
        12        20     1        0.143016   286566.945654    ;  uncertainty r = 0.000095, k = 10.976562
        13        14     1        0.137539   259289.788721    ;  uncertainty r = 0.000221, k = 27.333167
        14        15     1        0.136983   380120.690234    ;  uncertainty r = 0.000106, k = 13.129494
        14        21     1        0.147341   266299.265576    ;  uncertainty r = 0.000140, k = 10.421899
        15        16     1        0.137903   324759.863379    ;  uncertainty r = 0.000057, k = 6.440736
        15        44     1        0.108483   340864.892480    ;  uncertainty r = 0.000069, k = 2.329540
        16        17     1        0.137812   342777.392139    ;  uncertainty r = 0.000099, k = 5.087981
        16        20     1        0.139016   307421.187598    ;  uncertainty r = 0.000151, k = 23.940610
        17        18     1        0.138713   413349.296045    ;  uncertainty r = 0.000044, k = 11.515259
        17        45     1        0.108153   341281.147363    ;  uncertainty r = 0.000029, k = 4.725641
        18        19     1        0.136694   264650.947314    ;  uncertainty r = 0.000104, k = 21.676771
        18        46     1        0.108374   336399.652295    ;  uncertainty r = 0.000052, k = 2.763013
        19        20     1        0.133277   447135.836621    ;  uncertainty r = 0.000097, k = 11.841719
        21        22     1        0.142221   330382.215527    ;  uncertainty r = 0.000108, k = 4.226718
        21        29     1        0.138999   355014.238672    ;  uncertainty r = 0.000049, k = 4.165741
        22        23     1        0.138406   365370.174951    ;  uncertainty r = 0.000051, k = 6.484539
        22        47     1        0.108740   335079.715723    ;  uncertainty r = 0.000026, k = 2.762628
        23        24     1        0.140636   363954.065625    ;  uncertainty r = 0.000045, k = 4.520838
        23        48     1        0.108793   334157.723926    ;  uncertainty r = 0.000027, k = 0.888009
        24        25     1        0.143565   236002.166699    ;  uncertainty r = 0.000085, k = 10.251197
        24        28     1        0.141896   395442.598340    ;  uncertainty r = 0.000042, k = 7.271248
        25        26     1        0.132527   481307.910937    ;  uncertainty r = 0.000030, k = 4.804422
        25        49     1        0.108445   339950.331982    ;  uncertainty r = 0.000029, k = 2.772015
        26        27     1        0.136464   286651.243652    ;  uncertainty r = 0.000028, k = 6.362411
        27        28     1        0.137432   293777.118652    ;  uncertainty r = 0.000025, k = 8.625484
        27        50     1        0.101061   415482.921533    ;  uncertainty r = 0.000029, k = 2.943442
        28        29     1        0.139860   363187.467139    ;  uncertainty r = 0.000057, k = 4.398211
        29        51     1        0.108825   335126.984912    ;  uncertainty r = 0.000043, k = 1.321162
        30        31     1        0.139246   363487.809082    ;  uncertainty r = 0.000024, k = 2.189624
        30        52     1        0.108800   336063.456250    ;  uncertainty r = 0.000044, k = 1.825536
        31        53     1        0.108850   333870.993262    ;  uncertainty r = 0.000017, k = 0.838810

[ angles ]
;       ai        aj        ak funct           theta             cth
         1         2         3     1      109.933182      563.822474    ;  uncertainty theta = 0.001563, k = 0.030787
         1         2        34     1      108.407997      399.597633    ;  uncertainty theta = 0.000673, k = 0.025602
         1         2        35     1      108.407997      399.597633    ;  uncertainty theta = 0.000673, k = 0.025602
         1         6         5     1      109.233620      563.314413    ;  uncertainty theta = 0.002164, k = 0.131739
         2         1         6     1      111.407738      721.282183    ;  uncertainty theta = 0.000874, k = 0.029505
         2         1        32     1      109.957176      407.605719    ;  uncertainty theta = 0.002324, k = 0.038763
         2         1        33     1      109.957176      407.605719    ;  uncertainty theta = 0.002324, k = 0.038763
         2         3         4     1      107.989746      590.798280    ;  uncertainty theta = 0.004233, k = 0.048647
         2         3         7     1      111.191528      559.564863    ;  uncertainty theta = 0.001514, k = 0.078262
         2         3        36     1      107.587479      406.390344    ;  uncertainty theta = 0.001224, k = 0.020873
         3         2        34     1      108.621849      388.765334    ;  uncertainty theta = 0.000645, k = 0.058417
         3         2        35     1      108.621849      388.765334    ;  uncertainty theta = 0.000645, k = 0.058417
         3         4         5     1      109.933182      563.822474    ;  uncertainty theta = 0.001563, k = 0.030787
         3         4        37     1      108.621849      388.765334    ;  uncertainty theta = 0.000645, k = 0.058417
         3         4        38     1      108.621849      388.765334    ;  uncertainty theta = 0.000645, k = 0.058417
         3         7         8     1      120.829796      420.106645    ;  uncertainty theta = 0.002472, k = 0.104081
         3         7        31     1      120.829796      420.106645    ;  uncertainty theta = 0.002472, k = 0.104081
         4         3         7     1      111.191528      559.564863    ;  uncertainty theta = 0.001514, k = 0.078262
         4         3        36     1      107.587479      406.390344    ;  uncertainty theta = 0.001224, k = 0.020873
         4         5         6     1      111.407738      721.282183    ;  uncertainty theta = 0.000874, k = 0.029505
         4         5        39     1      109.957176      407.605719    ;  uncertainty theta = 0.002324, k = 0.038763
         4         5        40     1      109.957176      407.605719    ;  uncertainty theta = 0.002324, k = 0.038763
         5         4        37     1      108.407997      399.597633    ;  uncertainty theta = 0.000673, k = 0.025602
         5         4        38     1      108.407997      399.597633    ;  uncertainty theta = 0.000673, k = 0.025602
         6         1        32     1      107.051880      463.404750    ;  uncertainty theta = 0.001675, k = 0.034919
         6         1        33     1      107.051880      463.404750    ;  uncertainty theta = 0.001675, k = 0.034918
         6         5        39     1      107.051880      463.404750    ;  uncertainty theta = 0.001675, k = 0.034919
         6         5        40     1      107.051880      463.404750    ;  uncertainty theta = 0.001675, k = 0.034919
         7         3        36     1      105.276657      400.163950    ;  uncertainty theta = 0.000896, k = 0.044873
         7         8         9     1      122.096420      510.167858    ;  uncertainty theta = 0.002449, k = 0.063429
         7         8        41     1      118.817665      265.604228    ;  uncertainty theta = 0.000998, k = 0.077990
         7        31        30     1      122.096420      510.167922    ;  uncertainty theta = 0.002449, k = 0.063429
         7        31        53     1      118.817665      265.604244    ;  uncertainty theta = 0.000998, k = 0.077990
         8         7        31     1      118.696671      462.933239    ;  uncertainty theta = 0.003206, k = 0.057385
         8         9        10     1      119.884438      502.022605    ;  uncertainty theta = 0.002803, k = 0.080216
         8         9        42     1      120.907913      303.868107    ;  uncertainty theta = 0.003645, k = 0.072377
         9         8        41     1      119.350845      285.938822    ;  uncertainty theta = 0.001173, k = 0.056264
         9        10        11     1      120.343185      521.327734    ;  uncertainty theta = 0.002771, k = 0.167898
         9        10        30     1      118.938736      372.291217    ;  uncertainty theta = 0.004621, k = 0.097003
        10         9        42     1      119.329918      273.549302    ;  uncertainty theta = 0.002590, k = 0.073087
        10        11        12     1      116.320450      383.552061    ;  uncertainty theta = 0.003089, k = 0.167527
        10        11        43     1      114.225075      356.775763    ;  uncertainty theta = 0.005253, k = 0.285160
        10        30        31     1      119.884438      502.022605    ;  uncertainty theta = 0.002803, k = 0.080216
        10        30        52     1      119.329918      273.549270    ;  uncertainty theta = 0.002590, k = 0.073087
        11        10        30     1      120.343185      521.327734    ;  uncertainty theta = 0.002771, k = 0.167898
        11        12        13     1      122.101028      744.137513    ;  uncertainty theta = 0.006060, k = 0.183514
        11        12        20     1      118.389694      493.671492    ;  uncertainty theta = 0.006677, k = 0.107017
        12        11        43     1      116.994568      430.564506    ;  uncertainty theta = 0.006061, k = 0.204563
        12        13        14     1      121.081543      436.533806    ;  uncertainty theta = 0.009425, k = 0.261818
        12        20        16     1      111.142784      333.997874    ;  uncertainty theta = 0.012736, k = 0.456017
        12        20        19     1      125.515465      293.447945    ;  uncertainty theta = 0.008643, k = 0.324339
        13        12        20     1      122.405640      559.409853    ;  uncertainty theta = 0.006101, k = 0.247559
        13        14        15     1      124.529945      546.825995    ;  uncertainty theta = 0.003188, k = 0.249818
        13        14        21     1      117.266068      449.509754    ;  uncertainty theta = 0.001673, k = 0.093555
        14        15        16     1      117.545448      533.201245    ;  uncertainty theta = 0.004801, k = 0.198048
        14        15        44     1      124.661926      232.745215    ;  uncertainty theta = 0.008830, k = 0.220531
        14        21        22     1      119.027603      411.436892    ;  uncertainty theta = 0.003206, k = 0.096656
        14        21        29     1      119.097130      398.595621    ;  uncertainty theta = 0.002830, k = 0.193564
        15        14        21     1      121.495850      379.274084    ;  uncertainty theta = 0.004582, k = 0.073177
        15        16        17     1      129.660461      429.070873    ;  uncertainty theta = 0.002332, k = 0.325292
        15        16        20     1      117.456383      429.436979    ;  uncertainty theta = 0.007676, k = 0.177572
        16        15        44     1      117.405563      315.690512    ;  uncertainty theta = 0.003645, k = 0.141950
        16        17        18     1      105.324829      767.668044    ;  uncertainty theta = 0.004981, k = 0.189091
        16        17        45     1      119.539230      282.399762    ;  uncertainty theta = 0.002926, k = 0.163945
        16        20        19     1      114.523727      791.406958    ;  uncertainty theta = 0.003446, k = 0.159720
        17        16        20     1      106.195152      846.636320    ;  uncertainty theta = 0.003800, k = 0.266753
        17        18        19     1      111.223167      865.900238    ;  uncertainty theta = 0.003390, k = 0.157111
        17        18        46     1      125.339600      238.965624    ;  uncertainty theta = 0.004247, k = 0.092338
        18        17        45     1      130.781433      240.351858    ;  uncertainty theta = 0.003259, k = 0.025087
        18        19        20     1      106.065872      820.721453    ;  uncertainty theta = 0.001716, k = 0.145916
        19        18        46     1      119.156937      297.238833    ;  uncertainty theta = 0.004129, k = 0.152925
        21        22        23     1      123.016739      525.733939    ;  uncertainty theta = 0.003070, k = 0.077649
        21        22        47     1      117.874733      272.056881    ;  uncertainty theta = 0.003138, k = 0.063286
        21        29        28     1      116.866013      520.760715    ;  uncertainty theta = 0.004532, k = 0.170114
        21        29        51     1      119.930405      268.313652    ;  uncertainty theta = 0.002430, k = 0.106947
        22        21        29     1      123.809654      434.126710    ;  uncertainty theta = 0.003394, k = 0.121259
        22        23        24     1      118.929970      553.342236    ;  uncertainty theta = 0.002680, k = 0.060560
        22        23        48     1      120.653542      279.974630    ;  uncertainty theta = 0.001067, k = 0.066865
        23        22        47     1      119.509888      297.701821    ;  uncertainty theta = 0.002978, k = 0.036486
        23        24        25     1      132.278717      354.679422    ;  uncertainty theta = 0.004732, k = 0.185731
        23        24        28     1      116.909569      406.929752    ;  uncertainty theta = 0.004133, k = 0.092172
        24        23        48     1      121.803482      294.188936    ;  uncertainty theta = 0.000418, k = 0.134142
        24        25        26     1      112.801369      922.849971    ;  uncertainty theta = 0.002508, k = 0.102828
        24        25        49     1      126.617455      244.294835    ;  uncertainty theta = 0.003682, k = 0.151304
        24        28        27     1      105.521873      689.300082    ;  uncertainty theta = 0.003740, k = 0.125051
        24        28        29     1      121.842789      372.926740    ;  uncertainty theta = 0.004893, k = 0.200656
        25        24        28     1      103.430092      742.155068    ;  uncertainty theta = 0.005190, k = 0.108760
        25        26        27     1      108.574783      922.564020    ;  uncertainty theta = 0.002937, k = 0.116121
        26        25        49     1      118.543495      289.957533    ;  uncertainty theta = 0.002336, k = 0.058293
        26        27        28     1      109.065674      992.744529    ;  uncertainty theta = 0.003990, k = 0.161433
        26        27        50     1      108.465378      343.985566    ;  uncertainty theta = 0.006748, k = 0.092752
        27        28        29     1      129.650360      395.528646    ;  uncertainty theta = 0.003691, k = 0.176020
        28        27        50     1      116.092773      288.358080    ;  uncertainty theta = 0.006888, k = 0.111410
        28        29        51     1      122.512741      295.371432    ;  uncertainty theta = 0.001496, k = 0.111125
        30        31        53     1      119.350845      285.938822    ;  uncertainty theta = 0.001173, k = 0.056264
        31        30        52     1      120.907913      303.868107    ;  uncertainty theta = 0.003645, k = 0.072377
        32         1        33     1      106.560875      320.196280    ;  uncertainty theta = 0.000810, k = 0.030701
        34         2        35     1      105.121170      314.279491    ;  uncertainty theta = 0.001446, k = 0.041380
        37         4        38     1      105.121170      314.279491    ;  uncertainty theta = 0.001446, k = 0.041380
        39         5        40     1      106.560875      320.196280    ;  uncertainty theta = 0.000810, k = 0.030701

[ dihedrals ] ; propers for gromacs 4.5 or higher, use funct 9
;       ai        aj        ak        al funct           phase               k        pn
         1         2         3         4     9        0.000000       -7.022275         1    ;  uncertainty k = 1.177185
         1         2         3         4     9      180.000000        0.850431         2    ;  uncertainty k = 0.590308
         1         2         3         4     9        0.000000        1.408380         3    ;  uncertainty k = 0.095692
         1         2         3         4     9      180.000000       -1.409474         4    ;  uncertainty k = 0.279250
         1         2         3         7     9        0.000000       -3.907895         1    ;  uncertainty k = 1.102961
         1         2         3         7     9      180.000000        0.796150         2    ;  uncertainty k = 0.168510
         1         2         3         7     9        0.000000        0.956239         3    ;  uncertainty k = 0.165585
         1         2         3         7     9      180.000000       -0.094319         4    ;  uncertainty k = 0.121219
         1         2         3        36     9        0.000000       -2.200262         1    ;  uncertainty k = 0.601157
         1         2         3        36     9      180.000000       -0.561571         2    ;  uncertainty k = 0.140010
         1         2         3        36     9        0.000000       -0.022030         3    ;  uncertainty k = 0.178645
         1         2         3        36     9      180.000000       -0.085581         4    ;  uncertainty k = 0.082057
         1         6         5         4     9        0.000000       -2.990999         1    ;  uncertainty k = 1.736025
         1         6         5         4     9      180.000000        0.174591         2    ;  uncertainty k = 1.136553
         1         6         5         4     9        0.000000        0.931675         3    ;  uncertainty k = 0.285567
         1         6         5         4     9      180.000000       -0.364031         4    ;  uncertainty k = 0.227796
         1         6         5        39     9        0.000000       -5.434430         1    ;  uncertainty k = 1.715996
         1         6         5        39     9      180.000000        0.308151         2    ;  uncertainty k = 0.153027
         1         6         5        39     9        0.000000        0.752094         3    ;  uncertainty k = 0.133650
         1         6         5        39     9      180.000000       -0.520614         4    ;  uncertainty k = 0.118566
         1         6         5        40     9        0.000000       -5.434430         1    ;  uncertainty k = 1.715996
         1         6         5        40     9      180.000000        0.308151         2    ;  uncertainty k = 0.153027
         1         6         5        40     9        0.000000        0.752094         3    ;  uncertainty k = 0.133650
         1         6         5        40     9      180.000000       -0.520614         4    ;  uncertainty k = 0.118566
         2         1         6         5     9        0.000000       -2.990999         1    ;  uncertainty k = 1.736025
         2         1         6         5     9      180.000000        0.174591         2    ;  uncertainty k = 1.136553
         2         1         6         5     9        0.000000        0.931675         3    ;  uncertainty k = 0.285567
         2         1         6         5     9      180.000000       -0.364031         4    ;  uncertainty k = 0.227796
         2         3         4         5     9        0.000000       -7.022275         1    ;  uncertainty k = 1.177185
         2         3         4         5     9      180.000000        0.850431         2    ;  uncertainty k = 0.590308
         2         3         4         5     9        0.000000        1.408380         3    ;  uncertainty k = 0.095692
         2         3         4         5     9      180.000000       -1.409474         4    ;  uncertainty k = 0.279250
         2         3         4        37     9        0.000000       -1.821151         1    ;  uncertainty k = 0.477464
         2         3         4        37     9      180.000000       -0.179534         2    ;  uncertainty k = 0.184737
         2         3         4        37     9        0.000000        0.370497         3    ;  uncertainty k = 0.147893
         2         3         4        37     9      180.000000       -0.105374         4    ;  uncertainty k = 0.090338
         2         3         4        38     9        0.000000       -1.821151         1    ;  uncertainty k = 0.477464
         2         3         4        38     9      180.000000       -0.179534         2    ;  uncertainty k = 0.184737
         2         3         4        38     9        0.000000        0.370497         3    ;  uncertainty k = 0.147893
         2         3         4        38     9      180.000000       -0.105374         4    ;  uncertainty k = 0.090338
         2         3         7         8     9        0.000000       -0.585507         1    ;  uncertainty k = 0.234593
         2         3         7         8     9      180.000000        2.422382         2    ;  uncertainty k = 0.189762
         2         3         7         8     9        0.000000        0.351467         3    ;  uncertainty k = 0.087085
         2         3         7         8     9      180.000000        0.247291         4    ;  uncertainty k = 0.058140
         2         3         7        31     9        0.000000       -0.585507         1    ;  uncertainty k = 0.234594
         2         3         7        31     9      180.000000        2.422383         2    ;  uncertainty k = 0.189763
         2         3         7        31     9        0.000000        0.351466         3    ;  uncertainty k = 0.087085
         2         3         7        31     9      180.000000        0.247291         4    ;  uncertainty k = 0.058140
         3         2         1         6     9        0.000000       -0.936780         1    ;  uncertainty k = 1.153364
         3         2         1         6     9      180.000000       -3.756624         2    ;  uncertainty k = 0.475265
         3         2         1         6     9        0.000000        2.013679         3    ;  uncertainty k = 0.387341
         3         2         1         6     9      180.000000       -0.717854         4    ;  uncertainty k = 0.193073
         3         2         1        32     9        0.000000        3.715664         1    ;  uncertainty k = 1.297412
         3         2         1        32     9      180.000000       -2.939011         2    ;  uncertainty k = 0.641881
         3         2         1        32     9        0.000000       -0.100398         3    ;  uncertainty k = 0.240471
         3         2         1        32     9      180.000000        0.412328         4    ;  uncertainty k = 0.139448
         3         2         1        33     9        0.000000        3.715664         1    ;  uncertainty k = 1.297412
         3         2         1        33     9      180.000000       -2.939011         2    ;  uncertainty k = 0.641881
         3         2         1        33     9        0.000000       -0.100398         3    ;  uncertainty k = 0.240471
         3         2         1        33     9      180.000000        0.412328         4    ;  uncertainty k = 0.139448
         3         4         5         6     9        0.000000       -0.936780         1    ;  uncertainty k = 1.153364
         3         4         5         6     9      180.000000       -3.756624         2    ;  uncertainty k = 0.475265
         3         4         5         6     9        0.000000        2.013679         3    ;  uncertainty k = 0.387341
         3         4         5         6     9      180.000000       -0.717854         4    ;  uncertainty k = 0.193073
         3         4         5        39     9        0.000000        3.715664         1    ;  uncertainty k = 1.297412
         3         4         5        39     9      180.000000       -2.939011         2    ;  uncertainty k = 0.641881
         3         4         5        39     9        0.000000       -0.100398         3    ;  uncertainty k = 0.240471
         3         4         5        39     9      180.000000        0.412328         4    ;  uncertainty k = 0.139448
         3         4         5        40     9        0.000000        3.715664         1    ;  uncertainty k = 1.297412
         3         4         5        40     9      180.000000       -2.939011         2    ;  uncertainty k = 0.641881
         3         4         5        40     9        0.000000       -0.100398         3    ;  uncertainty k = 0.240471
         3         4         5        40     9      180.000000        0.412328         4    ;  uncertainty k = 0.139448
         3         7         8         9     9        0.000000        0.057938         1    ;  uncertainty k = 0.245364
         3         7         8         9     9      180.000000        8.370976         2    ;  uncertainty k = 0.437326
         3         7         8         9     9        0.000000        1.341188         3    ;  uncertainty k = 0.375131
         3         7         8         9     9      180.000000        1.865143         4    ;  uncertainty k = 0.133874
         3         7         8        41     9        0.000000       -0.158017         1    ;  uncertainty k = 0.368394
         3         7         8        41     9      180.000000        7.580841         2    ;  uncertainty k = 0.269293
         3         7         8        41     9        0.000000        0.701020         3    ;  uncertainty k = 0.338367
         3         7         8        41     9      180.000000        0.969609         4    ;  uncertainty k = 0.124504
         3         7        31        30     9        0.000000        0.057939         1    ;  uncertainty k = 0.245366
         3         7        31        30     9      180.000000        8.370975         2    ;  uncertainty k = 0.437325
         3         7        31        30     9        0.000000        1.341189         3    ;  uncertainty k = 0.375131
         3         7        31        30     9      180.000000        1.865143         4    ;  uncertainty k = 0.133874
         3         7        31        53     9        0.000000       -0.158016         1    ;  uncertainty k = 0.368393
         3         7        31        53     9      180.000000        7.580843         2    ;  uncertainty k = 0.269293
         3         7        31        53     9        0.000000        0.701019         3    ;  uncertainty k = 0.338368
         3         7        31        53     9      180.000000        0.969609         4    ;  uncertainty k = 0.124504
         4         3         2        34     9        0.000000       -1.821151         1    ;  uncertainty k = 0.477464
         4         3         2        34     9      180.000000       -0.179534         2    ;  uncertainty k = 0.184737
         4         3         2        34     9        0.000000        0.370497         3    ;  uncertainty k = 0.147893
         4         3         2        34     9      180.000000       -0.105374         4    ;  uncertainty k = 0.090338
         4         3         2        35     9        0.000000       -1.821151         1    ;  uncertainty k = 0.477464
         4         3         2        35     9      180.000000       -0.179534         2    ;  uncertainty k = 0.184737
         4         3         2        35     9        0.000000        0.370497         3    ;  uncertainty k = 0.147893
         4         3         2        35     9      180.000000       -0.105374         4    ;  uncertainty k = 0.090338
         4         3         7         8     9        0.000000       -0.585507         1    ;  uncertainty k = 0.234593
         4         3         7         8     9      180.000000        2.422382         2    ;  uncertainty k = 0.189762
         4         3         7         8     9        0.000000        0.351467         3    ;  uncertainty k = 0.087085
         4         3         7         8     9      180.000000        0.247291         4    ;  uncertainty k = 0.058140
         4         3         7        31     9        0.000000       -0.585507         1    ;  uncertainty k = 0.234594
         4         3         7        31     9      180.000000        2.422383         2    ;  uncertainty k = 0.189763
         4         3         7        31     9        0.000000        0.351466         3    ;  uncertainty k = 0.087085
         4         3         7        31     9      180.000000        0.247291         4    ;  uncertainty k = 0.058140
         5         4         3         7     9        0.000000       -3.907895         1    ;  uncertainty k = 1.102961
         5         4         3         7     9      180.000000        0.796150         2    ;  uncertainty k = 0.168510
         5         4         3         7     9        0.000000        0.956239         3    ;  uncertainty k = 0.165585
         5         4         3         7     9      180.000000       -0.094319         4    ;  uncertainty k = 0.121219
         5         4         3        36     9        0.000000       -2.200262         1    ;  uncertainty k = 0.601157
         5         4         3        36     9      180.000000       -0.561571         2    ;  uncertainty k = 0.140010
         5         4         3        36     9        0.000000       -0.022030         3    ;  uncertainty k = 0.178645
         5         4         3        36     9      180.000000       -0.085581         4    ;  uncertainty k = 0.082057
         5         6         1        32     9        0.000000       -5.434430         1    ;  uncertainty k = 1.715996
         5         6         1        32     9      180.000000        0.308151         2    ;  uncertainty k = 0.153027
         5         6         1        32     9        0.000000        0.752094         3    ;  uncertainty k = 0.133650
         5         6         1        32     9      180.000000       -0.520614         4    ;  uncertainty k = 0.118566
         5         6         1        33     9        0.000000       -5.434430         1    ;  uncertainty k = 1.715996
         5         6         1        33     9      180.000000        0.308151         2    ;  uncertainty k = 0.153027
         5         6         1        33     9        0.000000        0.752094         3    ;  uncertainty k = 0.133650
         5         6         1        33     9      180.000000       -0.520614         4    ;  uncertainty k = 0.118566
         6         1         2        34     9        0.000000       -1.692072         1    ;  uncertainty k = 0.580814
         6         1         2        34     9      180.000000       -0.270491         2    ;  uncertainty k = 0.265043
         6         1         2        34     9        0.000000        1.460264         3    ;  uncertainty k = 0.207706
         6         1         2        34     9      180.000000       -0.197793         4    ;  uncertainty k = 0.142506
         6         1         2        35     9        0.000000       -1.692072         1    ;  uncertainty k = 0.580814
         6         1         2        35     9      180.000000       -0.270491         2    ;  uncertainty k = 0.265043
         6         1         2        35     9        0.000000        1.460264         3    ;  uncertainty k = 0.207706
         6         1         2        35     9      180.000000       -0.197793         4    ;  uncertainty k = 0.142506
         6         5         4        37     9        0.000000       -1.692072         1    ;  uncertainty k = 0.580814
         6         5         4        37     9      180.000000       -0.270491         2    ;  uncertainty k = 0.265043
         6         5         4        37     9        0.000000        1.460264         3    ;  uncertainty k = 0.207706
         6         5         4        37     9      180.000000       -0.197793         4    ;  uncertainty k = 0.142506
         6         5         4        38     9        0.000000       -1.692072         1    ;  uncertainty k = 0.580814
         6         5         4        38     9      180.000000       -0.270491         2    ;  uncertainty k = 0.265043
         6         5         4        38     9        0.000000        1.460264         3    ;  uncertainty k = 0.207706
         6         5         4        38     9      180.000000       -0.197793         4    ;  uncertainty k = 0.142506
         7         3         2        34     9        0.000000        1.086956         1    ;  uncertainty k = 0.351760
         7         3         2        34     9      180.000000       -0.285034         2    ;  uncertainty k = 0.238787
         7         3         2        34     9        0.000000        0.936974         3    ;  uncertainty k = 0.135923
         7         3         2        34     9      180.000000        0.007818         4    ;  uncertainty k = 0.074847
         7         3         2        35     9        0.000000        1.086956         1    ;  uncertainty k = 0.351760
         7         3         2        35     9      180.000000       -0.285034         2    ;  uncertainty k = 0.238787
         7         3         2        35     9        0.000000        0.936974         3    ;  uncertainty k = 0.135923
         7         3         2        35     9      180.000000        0.007818         4    ;  uncertainty k = 0.074847
         7         3         4        37     9        0.000000        1.086956         1    ;  uncertainty k = 0.351760
         7         3         4        37     9      180.000000       -0.285034         2    ;  uncertainty k = 0.238787
         7         3         4        37     9        0.000000        0.936974         3    ;  uncertainty k = 0.135923
         7         3         4        37     9      180.000000        0.007818         4    ;  uncertainty k = 0.074847
         7         3         4        38     9        0.000000        1.086956         1    ;  uncertainty k = 0.351760
         7         3         4        38     9      180.000000       -0.285034         2    ;  uncertainty k = 0.238787
         7         3         4        38     9        0.000000        0.936974         3    ;  uncertainty k = 0.135923
         7         3         4        38     9      180.000000        0.007818         4    ;  uncertainty k = 0.074847
         7         8         9        10     9        0.000000       -0.123434         1    ;  uncertainty k = 0.144586
         7         8         9        10     9      180.000000       13.633020         2    ;  uncertainty k = 0.381798
         7         8         9        10     9        0.000000       -0.807593         3    ;  uncertainty k = 0.371894
         7         8         9        10     9      180.000000        0.791718         4    ;  uncertainty k = 0.359610
         7         8         9        42     9        0.000000        0.007588         1    ;  uncertainty k = 0.168994
         7         8         9        42     9      180.000000        8.097607         2    ;  uncertainty k = 0.300599
         7         8         9        42     9        0.000000        1.361601         3    ;  uncertainty k = 0.327117
         7         8         9        42     9      180.000000        1.884465         4    ;  uncertainty k = 0.170168
         7        31        30        10     9        0.000000       -0.123434         1    ;  uncertainty k = 0.144586
         7        31        30        10     9      180.000000       13.633020         2    ;  uncertainty k = 0.381798
         7        31        30        10     9        0.000000       -0.807593         3    ;  uncertainty k = 0.371894
         7        31        30        10     9      180.000000        0.791718         4    ;  uncertainty k = 0.359610
         7        31        30        52     9        0.000000        0.007586         1    ;  uncertainty k = 0.168994
         7        31        30        52     9      180.000000        8.097606         2    ;  uncertainty k = 0.300602
         7        31        30        52     9        0.000000        1.361602         3    ;  uncertainty k = 0.327117
         7        31        30        52     9      180.000000        1.884465         4    ;  uncertainty k = 0.170167
         8         7         3        36     9        0.000000       -0.223350         1    ;  uncertainty k = 0.370688
         8         7         3        36     9      180.000000        1.758730         2    ;  uncertainty k = 0.161547
         8         7         3        36     9        0.000000        0.469386         3    ;  uncertainty k = 0.139268
         8         7         3        36     9      180.000000        0.313233         4    ;  uncertainty k = 0.052092
         8         7        31        30     9        0.000000       -0.219691         1    ;  uncertainty k = 0.169823
         8         7        31        30     9      180.000000       11.772879         2    ;  uncertainty k = 0.369116
         8         7        31        30     9        0.000000       -0.490664         3    ;  uncertainty k = 0.262471
         8         7        31        30     9      180.000000        0.790209         4    ;  uncertainty k = 0.337235
         8         7        31        53     9        0.000000        0.000980         1    ;  uncertainty k = 0.222225
         8         7        31        53     9      180.000000        7.014830         2    ;  uncertainty k = 0.418989
         8         7        31        53     9        0.000000        1.442001         3    ;  uncertainty k = 0.410494
         8         7        31        53     9      180.000000        1.584408         4    ;  uncertainty k = 0.177634
         8         9        10        11     9        0.000000        0.050537         1    ;  uncertainty k = 0.442832
         8         9        10        11     9      180.000000        9.442713         2    ;  uncertainty k = 0.354886
         8         9        10        11     9        0.000000        1.011481         3    ;  uncertainty k = 0.312632
         8         9        10        11     9      180.000000        1.589976         4    ;  uncertainty k = 0.157540
         8         9        10        30     9        0.000000        0.019212         1    ;  uncertainty k = 0.150694
         8         9        10        30     9      180.000000        8.875298         2    ;  uncertainty k = 0.311476
         8         9        10        30     9        0.000000       -0.025910         3    ;  uncertainty k = 0.136241
         8         9        10        30     9      180.000000        1.219097         4    ;  uncertainty k = 0.247540
         9         8         7        31     9        0.000000       -0.219691         1    ;  uncertainty k = 0.169825
         9         8         7        31     9      180.000000       11.772880         2    ;  uncertainty k = 0.369116
         9         8         7        31     9        0.000000       -0.490664         3    ;  uncertainty k = 0.262471
         9         8         7        31     9      180.000000        0.790208         4    ;  uncertainty k = 0.337235
         9        10        11        12     9        0.000000        1.515220         1    ;  uncertainty k = 0.780243
         9        10        11        12     9      180.000000        5.841323         2    ;  uncertainty k = 0.115168
         9        10        11        12     9        0.000000        0.950563         3    ;  uncertainty k = 0.177317
         9        10        11        12     9      180.000000        0.176697         4    ;  uncertainty k = 0.121187
         9        10        11        43     9        0.000000        2.640839         1    ;  uncertainty k = 0.288141
         9        10        11        43     9      180.000000        4.638911         2    ;  uncertainty k = 0.263171
         9        10        11        43     9        0.000000        0.671403         3    ;  uncertainty k = 0.173016
         9        10        11        43     9      180.000000        0.394716         4    ;  uncertainty k = 0.075476
         9        10        30        31     9        0.000000        0.019212         1    ;  uncertainty k = 0.150694
         9        10        30        31     9      180.000000        8.875298         2    ;  uncertainty k = 0.311475
         9        10        30        31     9        0.000000       -0.025910         3    ;  uncertainty k = 0.136241
         9        10        30        31     9      180.000000        1.219097         4    ;  uncertainty k = 0.247540
         9        10        30        52     9        0.000000        0.099117         1    ;  uncertainty k = 0.246381
         9        10        30        52     9      180.000000        6.426362         2    ;  uncertainty k = 0.681133
         9        10        30        52     9        0.000000        1.273368         3    ;  uncertainty k = 0.298945
         9        10        30        52     9      180.000000        1.497843         4    ;  uncertainty k = 0.150235
        10         9         8        41     9        0.000000       -0.087347         1    ;  uncertainty k = 0.189548
        10         9         8        41     9      180.000000        8.308579         2    ;  uncertainty k = 0.481967
        10         9         8        41     9        0.000000        1.234699         3    ;  uncertainty k = 0.279009
        10         9         8        41     9      180.000000        1.685486         4    ;  uncertainty k = 0.149960
        10        11        12        13     9        0.000000        4.057838         1    ;  uncertainty k = 1.258589
        10        11        12        13     9      180.000000       10.524141         2    ;  uncertainty k = 0.236806
        10        11        12        13     9        0.000000        0.679176         3    ;  uncertainty k = 0.287624
        10        11        12        13     9      180.000000       -0.487269         4    ;  uncertainty k = 0.069771
        10        11        12        20     9        0.000000        6.921988         1    ;  uncertainty k = 0.525451
        10        11        12        20     9      180.000000        8.410419         2    ;  uncertainty k = 0.083460
        10        11        12        20     9        0.000000        0.913110         3    ;  uncertainty k = 0.403067
        10        11        12        20     9      180.000000       -0.119747         4    ;  uncertainty k = 0.205555
        10        30        31        53     9        0.000000       -0.087349         1    ;  uncertainty k = 0.189548
        10        30        31        53     9      180.000000        8.308578         2    ;  uncertainty k = 0.481967
        10        30        31        53     9        0.000000        1.234699         3    ;  uncertainty k = 0.279010
        10        30        31        53     9      180.000000        1.685486         4    ;  uncertainty k = 0.149959
        11        10         9        42     9        0.000000       -0.252636         1    ;  uncertainty k = 0.210990
        11        10         9        42     9      180.000000        7.903103         2    ;  uncertainty k = 0.317354
        11        10         9        42     9        0.000000        0.883454         3    ;  uncertainty k = 0.189990
        11        10         9        42     9      180.000000        1.081895         4    ;  uncertainty k = 0.133568
        11        10        30        31     9        0.000000        0.050538         1    ;  uncertainty k = 0.442830
        11        10        30        31     9      180.000000        9.442711         2    ;  uncertainty k = 0.354886
        11        10        30        31     9        0.000000        1.011481         3    ;  uncertainty k = 0.312632
        11        10        30        31     9      180.000000        1.589975         4    ;  uncertainty k = 0.157540
        11        10        30        52     9        0.000000       -0.252637         1    ;  uncertainty k = 0.210989
        11        10        30        52     9      180.000000        7.903100         2    ;  uncertainty k = 0.317354
        11        10        30        52     9        0.000000        0.883453         3    ;  uncertainty k = 0.189990
        11        10        30        52     9      180.000000        1.081895         4    ;  uncertainty k = 0.133568
        11        12        13        14     9        0.000000        1.094677         1    ;  uncertainty k = 1.061918
        11        12        13        14     9      180.000000       18.029313         2    ;  uncertainty k = 0.463163
        11        12        13        14     9        0.000000        2.921584         3    ;  uncertainty k = 0.300070
        11        12        13        14     9      180.000000        1.660946         4    ;  uncertainty k = 0.300808
        11        12        20        16     9        0.000000       -0.935144         1    ;  uncertainty k = 0.961490
        11        12        20        16     9      180.000000        5.420647         2    ;  uncertainty k = 0.735007
        11        12        20        16     9        0.000000        0.466482         3    ;  uncertainty k = 0.276418
        11        12        20        16     9      180.000000        0.426563         4    ;  uncertainty k = 0.145930
        11        12        20        19     9        0.000000       -0.723521         1    ;  uncertainty k = 0.720899
        11        12        20        19     9      180.000000        4.573870         2    ;  uncertainty k = 1.073141
        11        12        20        19     9        0.000000        0.567897         3    ;  uncertainty k = 0.420061
        11        12        20        19     9      180.000000        0.320348         4    ;  uncertainty k = 0.222145
        12        11        10        30     9        0.000000        1.515222         1    ;  uncertainty k = 0.780244
        12        11        10        30     9      180.000000        5.841324         2    ;  uncertainty k = 0.115168
        12        11        10        30     9        0.000000        0.950563         3    ;  uncertainty k = 0.177317
        12        11        10        30     9      180.000000        0.176697         4    ;  uncertainty k = 0.121187
        12        13        14        15     9        0.000000        1.017504         1    ;  uncertainty k = 1.516360
        12        13        14        15     9      180.000000        5.410036         2    ;  uncertainty k = 1.406424
        12        13        14        15     9        0.000000        1.183504         3    ;  uncertainty k = 0.850444
        12        13        14        15     9      180.000000        0.501686         4    ;  uncertainty k = 0.531969
        12        13        14        21     9        0.000000        1.001242         1    ;  uncertainty k = 1.290635
        12        13        14        21     9      180.000000        8.728254         2    ;  uncertainty k = 0.911473
        12        13        14        21     9        0.000000        1.568762         3    ;  uncertainty k = 0.631592
        12        13        14        21     9      180.000000        0.401595         4    ;  uncertainty k = 0.332617
        12        20        16        15     9        0.000000       -0.065679         1    ;  uncertainty k = 0.930309
        12        20        16        15     9      180.000000        5.131901         2    ;  uncertainty k = 1.526753
        12        20        16        15     9        0.000000        1.363593         3    ;  uncertainty k = 0.467515
        12        20        16        15     9      180.000000        0.395973         4    ;  uncertainty k = 0.312049
        12        20        16        17     9        0.000000        0.340421         1    ;  uncertainty k = 0.792595
        12        20        16        17     9      180.000000        6.024515         2    ;  uncertainty k = 0.492566
        12        20        16        17     9        0.000000        0.209998         3    ;  uncertainty k = 0.527723
        12        20        16        17     9      180.000000        0.585310         4    ;  uncertainty k = 0.374830
        12        20        19        18     9        0.000000       -0.258736         1    ;  uncertainty k = 0.813751
        12        20        19        18     9      180.000000       16.417004         2    ;  uncertainty k = 0.455553
        12        20        19        18     9        0.000000        0.694004         3    ;  uncertainty k = 0.637623
        12        20        19        18     9      180.000000        1.345365         4    ;  uncertainty k = 0.597909
        13        12        11        43     9        0.000000        8.943455         1    ;  uncertainty k = 0.591279
        13        12        11        43     9      180.000000        9.687470         2    ;  uncertainty k = 0.280063
        13        12        11        43     9        0.000000        1.090516         3    ;  uncertainty k = 0.309512
        13        12        11        43     9      180.000000       -0.065768         4    ;  uncertainty k = 0.148564
        13        12        20        16     9        0.000000       -0.508120         1    ;  uncertainty k = 0.649583
        13        12        20        16     9      180.000000        6.006908         2    ;  uncertainty k = 0.721136
        13        12        20        16     9        0.000000       -0.359701         3    ;  uncertainty k = 0.319120
        13        12        20        16     9      180.000000        0.564109         4    ;  uncertainty k = 0.160688
        13        12        20        19     9        0.000000       -1.431194         1    ;  uncertainty k = 2.218090
        13        12        20        19     9      180.000000        4.468096         2    ;  uncertainty k = 0.589322
        13        12        20        19     9        0.000000        0.454907         3    ;  uncertainty k = 0.408290
        13        12        20        19     9      180.000000        0.386347         4    ;  uncertainty k = 0.295938
        13        14        15        16     9        0.000000        0.021628         1    ;  uncertainty k = 0.553837
        13        14        15        16     9      180.000000       21.308096         2    ;  uncertainty k = 0.618902
        13        14        15        16     9        0.000000        0.542129         3    ;  uncertainty k = 0.330363
        13        14        15        16     9      180.000000        0.532400         4    ;  uncertainty k = 0.522570
        13        14        15        44     9        0.000000        0.413530         1    ;  uncertainty k = 1.053393
        13        14        15        44     9      180.000000       12.778725         2    ;  uncertainty k = 0.373644
        13        14        15        44     9        0.000000        1.633797         3    ;  uncertainty k = 0.611850
        13        14        15        44     9      180.000000        1.088488         4    ;  uncertainty k = 0.439227
        13        14        21        22     9        0.000000       -0.628626         1    ;  uncertainty k = 1.518760
        13        14        21        22     9      180.000000        5.052242         2    ;  uncertainty k = 0.325806
        13        14        21        22     9        0.000000        0.583181         3    ;  uncertainty k = 0.127910
        13        14        21        22     9      180.000000        0.120920         4    ;  uncertainty k = 0.102121
        13        14        21        29     9        0.000000       -0.766604         1    ;  uncertainty k = 0.919108
        13        14        21        29     9      180.000000        4.899228         2    ;  uncertainty k = 0.217939
        13        14        21        29     9        0.000000        0.251595         3    ;  uncertainty k = 0.135564
        13        14        21        29     9      180.000000        0.082027         4    ;  uncertainty k = 0.123430
        14        13        12        20     9        0.000000       -0.097990         1    ;  uncertainty k = 2.188335
        14        13        12        20     9      180.000000       13.736996         2    ;  uncertainty k = 0.596844
        14        13        12        20     9        0.000000        2.511290         3    ;  uncertainty k = 0.854062
        14        13        12        20     9      180.000000        1.344029         4    ;  uncertainty k = 0.393277
        14        15        16        17     9        0.000000        0.387181         1    ;  uncertainty k = 1.514247
        14        15        16        17     9      180.000000        4.670308         2    ;  uncertainty k = 0.661014
        14        15        16        17     9        0.000000        0.721864         3    ;  uncertainty k = 0.341868
        14        15        16        17     9      180.000000        0.327281         4    ;  uncertainty k = 0.086812
        14        15        16        20     9        0.000000       -0.099694         1    ;  uncertainty k = 1.661026
        14        15        16        20     9      180.000000        6.351588         2    ;  uncertainty k = 0.533147
        14        15        16        20     9        0.000000       -0.869395         3    ;  uncertainty k = 0.839908
        14        15        16        20     9      180.000000        0.595359         4    ;  uncertainty k = 0.141779
        14        21        22        23     9        0.000000        0.068897         1    ;  uncertainty k = 0.215292
        14        21        22        23     9      180.000000        7.691152         2    ;  uncertainty k = 0.666200
        14        21        22        23     9        0.000000        1.290426         3    ;  uncertainty k = 0.312196
        14        21        22        23     9      180.000000        1.752418         4    ;  uncertainty k = 0.200484
        14        21        22        47     9        0.000000       -0.141044         1    ;  uncertainty k = 0.221408
        14        21        22        47     9      180.000000        6.709611         2    ;  uncertainty k = 0.380861
        14        21        22        47     9        0.000000        0.642981         3    ;  uncertainty k = 0.210089
        14        21        22        47     9      180.000000        1.030651         4    ;  uncertainty k = 0.217591
        14        21        29        28     9        0.000000        0.000207         1    ;  uncertainty k = 0.464893
        14        21        29        28     9      180.000000       11.593241         2    ;  uncertainty k = 0.463797
        14        21        29        28     9        0.000000        1.506096         3    ;  uncertainty k = 0.271513
        14        21        29        28     9      180.000000        1.554865         4    ;  uncertainty k = 0.288141
        14        21        29        51     9        0.000000       -0.122720         1    ;  uncertainty k = 0.281943
        14        21        29        51     9      180.000000        7.836517         2    ;  uncertainty k = 0.236328
        14        21        29        51     9        0.000000        0.688202         3    ;  uncertainty k = 0.200003
        14        21        29        51     9      180.000000        1.091534         4    ;  uncertainty k = 0.143245
        15        14        21        22     9        0.000000       -0.057218         1    ;  uncertainty k = 0.349503
        15        14        21        22     9      180.000000        3.916624         2    ;  uncertainty k = 0.545493
        15        14        21        22     9        0.000000        0.619050         3    ;  uncertainty k = 0.176087
        15        14        21        22     9      180.000000       -0.314910         4    ;  uncertainty k = 0.160497
        15        14        21        29     9        0.000000        0.027964         1    ;  uncertainty k = 0.248734
        15        14        21        29     9      180.000000        3.790324         2    ;  uncertainty k = 0.442273
        15        14        21        29     9        0.000000        0.910899         3    ;  uncertainty k = 0.183968
        15        14        21        29     9      180.000000       -0.341866         4    ;  uncertainty k = 0.189715
        15        16        17        18     9        0.000000        0.238879         1    ;  uncertainty k = 1.268059
        15        16        17        18     9      180.000000        9.618342         2    ;  uncertainty k = 0.775422
        15        16        17        18     9        0.000000        0.407411         3    ;  uncertainty k = 0.759266
        15        16        17        18     9      180.000000        0.559103         4    ;  uncertainty k = 0.314044
        15        16        17        45     9        0.000000        0.591128         1    ;  uncertainty k = 1.266310
        15        16        17        45     9      180.000000        2.793743         2    ;  uncertainty k = 1.401654
        15        16        17        45     9        0.000000        1.235888         3    ;  uncertainty k = 0.395832
        15        16        17        45     9      180.000000        0.135474         4    ;  uncertainty k = 0.120547
        15        16        20        19     9        0.000000        0.318033         1    ;  uncertainty k = 0.549936
        15        16        20        19     9      180.000000        8.739854         2    ;  uncertainty k = 0.549403
        15        16        20        19     9        0.000000        0.448820         3    ;  uncertainty k = 0.411752
        15        16        20        19     9      180.000000        0.878822         4    ;  uncertainty k = 0.217911
        16        15        14        21     9        0.000000        0.576730         1    ;  uncertainty k = 0.305749
        16        15        14        21     9      180.000000       17.337469         2    ;  uncertainty k = 0.521845
        16        15        14        21     9        0.000000        1.919282         3    ;  uncertainty k = 0.425533
        16        15        14        21     9      180.000000        0.788516         4    ;  uncertainty k = 0.297652
        16        17        18        19     9        0.000000       -0.424259         1    ;  uncertainty k = 0.720471
        16        17        18        19     9      180.000000       21.948844         2    ;  uncertainty k = 0.272817
        16        17        18        19     9        0.000000       -9.453916         3    ;  uncertainty k = 0.408148
        16        17        18        19     9      180.000000        1.578950         4    ;  uncertainty k = 0.654473
        16        17        18        46     9        0.000000        0.427383         1    ;  uncertainty k = 0.828520
        16        17        18        46     9      180.000000       13.870596         2    ;  uncertainty k = 0.182398
        16        17        18        46     9        0.000000        1.815389         3    ;  uncertainty k = 0.320274
        16        17        18        46     9      180.000000        0.903574         4    ;  uncertainty k = 0.223947
        16        20        19        18     9        0.000000       -0.698106         1    ;  uncertainty k = 0.543243
        16        20        19        18     9      180.000000       23.970051         2    ;  uncertainty k = 0.495895
        16        20        19        18     9        0.000000      -11.206153         3    ;  uncertainty k = 1.161985
        16        20        19        18     9      180.000000        1.981051         4    ;  uncertainty k = 0.603215
        17        16        15        44     9        0.000000        1.230264         1    ;  uncertainty k = 1.227408
        17        16        15        44     9      180.000000        2.935755         2    ;  uncertainty k = 1.100422
        17        16        15        44     9        0.000000        1.028872         3    ;  uncertainty k = 0.513157
        17        16        15        44     9      180.000000        0.182735         4    ;  uncertainty k = 0.171564
        17        16        20        19     9        0.000000       -0.600194         1    ;  uncertainty k = 0.427509
        17        16        20        19     9      180.000000       12.032075         2    ;  uncertainty k = 0.540572
        17        16        20        19     9        0.000000       -4.884606         3    ;  uncertainty k = 1.243656
        17        16        20        19     9      180.000000        1.176890         4    ;  uncertainty k = 0.463084
        17        18        19        20     9        0.000000       -0.719371         1    ;  uncertainty k = 0.806440
        17        18        19        20     9      180.000000       16.306391         2    ;  uncertainty k = 0.372137
        17        18        19        20     9        0.000000       -5.546726         3    ;  uncertainty k = 0.784851
        17        18        19        20     9      180.000000        2.138755         4    ;  uncertainty k = 0.319469
        18        17        16        20     9        0.000000        0.425340         1    ;  uncertainty k = 0.911889
        18        17        16        20     9      180.000000       13.121731         2    ;  uncertainty k = 1.266973
        18        17        16        20     9        0.000000      -13.119121         3    ;  uncertainty k = 1.817832
        18        17        16        20     9      180.000000        1.693366         4    ;  uncertainty k = 0.377703
        19        18        17        45     9        0.000000       -0.210816         1    ;  uncertainty k = 0.409318
        19        18        17        45     9      180.000000       14.525460         2    ;  uncertainty k = 0.474526
        19        18        17        45     9        0.000000        1.399987         3    ;  uncertainty k = 0.472591
        19        18        17        45     9      180.000000        0.597840         4    ;  uncertainty k = 0.116226
        20        12        11        43     9        0.000000        5.300787         1    ;  uncertainty k = 1.095312
        20        12        11        43     9      180.000000        6.151860         2    ;  uncertainty k = 0.321337
        20        12        11        43     9        0.000000        1.372350         3    ;  uncertainty k = 0.427877
        20        12        11        43     9      180.000000       -0.022341         4    ;  uncertainty k = 0.217792
        20        16        15        44     9        0.000000        1.226557         1    ;  uncertainty k = 1.441980
        20        16        15        44     9      180.000000        4.293775         2    ;  uncertainty k = 0.542296
        20        16        15        44     9        0.000000        1.116225         3    ;  uncertainty k = 0.349206
        20        16        15        44     9      180.000000        0.197252         4    ;  uncertainty k = 0.128616
        20        16        17        45     9        0.000000        0.337817         1    ;  uncertainty k = 0.998519
        20        16        17        45     9      180.000000        7.392009         2    ;  uncertainty k = 0.385665
        20        16        17        45     9        0.000000        1.061986         3    ;  uncertainty k = 0.365240
        20        16        17        45     9      180.000000        0.171584         4    ;  uncertainty k = 0.281011
        20        19        18        46     9        0.000000       -0.095582         1    ;  uncertainty k = 0.393923
        20        19        18        46     9      180.000000       14.177386         2    ;  uncertainty k = 0.352374
        20        19        18        46     9        0.000000        1.588169         3    ;  uncertainty k = 0.688228
        20        19        18        46     9      180.000000        0.904862         4    ;  uncertainty k = 0.448977
        21        14        15        44     9        0.000000       -0.219214         1    ;  uncertainty k = 0.332985
        21        14        15        44     9      180.000000        9.215237         2    ;  uncertainty k = 0.441043
        21        14        15        44     9        0.000000        1.515665         3    ;  uncertainty k = 0.270368
        21        14        15        44     9      180.000000        0.995306         4    ;  uncertainty k = 0.143311
        21        22        23        24     9        0.000000        0.036572         1    ;  uncertainty k = 0.331158
        21        22        23        24     9      180.000000       16.840932         2    ;  uncertainty k = 0.256778
        21        22        23        24     9        0.000000       -0.285123         3    ;  uncertainty k = 0.467322
        21        22        23        24     9      180.000000        0.632981         4    ;  uncertainty k = 0.299892
        21        22        23        48     9        0.000000       -0.036442         1    ;  uncertainty k = 0.215492
        21        22        23        48     9      180.000000        8.973969         2    ;  uncertainty k = 0.439173
        21        22        23        48     9        0.000000        1.439949         3    ;  uncertainty k = 0.248957
        21        22        23        48     9      180.000000        1.896736         4    ;  uncertainty k = 0.257135
        21        29        28        24     9        0.000000       -0.198172         1    ;  uncertainty k = 0.398265
        21        29        28        24     9      180.000000       12.419193         2    ;  uncertainty k = 0.132303
        21        29        28        24     9        0.000000       -1.380873         3    ;  uncertainty k = 0.530178
        21        29        28        24     9      180.000000        0.756409         4    ;  uncertainty k = 0.234868
        21        29        28        27     9        0.000000        0.161251         1    ;  uncertainty k = 0.187507
        21        29        28        27     9      180.000000       10.407056         2    ;  uncertainty k = 0.716703
        21        29        28        27     9        0.000000        0.894492         3    ;  uncertainty k = 0.361046
        21        29        28        27     9      180.000000        1.248653         4    ;  uncertainty k = 0.351138
        22        21        29        28     9        0.000000        0.050053         1    ;  uncertainty k = 0.216230
        22        21        29        28     9      180.000000       13.680778         2    ;  uncertainty k = 0.248895
        22        21        29        28     9        0.000000        0.002234         3    ;  uncertainty k = 0.286610
        22        21        29        28     9      180.000000        0.895120         4    ;  uncertainty k = 0.337935
        22        21        29        51     9        0.000000        0.247218         1    ;  uncertainty k = 0.158863
        22        21        29        51     9      180.000000        7.919297         2    ;  uncertainty k = 0.573084
        22        21        29        51     9        0.000000        1.544085         3    ;  uncertainty k = 0.138737
        22        21        29        51     9      180.000000        1.705629         4    ;  uncertainty k = 0.254640
        22        23        24        25     9        0.000000        0.312960         1    ;  uncertainty k = 0.413870
        22        23        24        25     9      180.000000        8.161813         2    ;  uncertainty k = 0.408100
        22        23        24        25     9        0.000000        0.680187         3    ;  uncertainty k = 0.316207
        22        23        24        25     9      180.000000        1.318401         4    ;  uncertainty k = 0.118210
        22        23        24        28     9        0.000000        0.024027         1    ;  uncertainty k = 0.234713
        22        23        24        28     9      180.000000       13.393022         2    ;  uncertainty k = 0.123364
        22        23        24        28     9        0.000000       -1.965306         3    ;  uncertainty k = 0.693199
        22        23        24        28     9      180.000000        0.688655         4    ;  uncertainty k = 0.252291
        23        22        21        29     9        0.000000       -0.064850         1    ;  uncertainty k = 0.238097
        23        22        21        29     9      180.000000        8.627471         2    ;  uncertainty k = 0.426027
        23        22        21        29     9        0.000000       -0.116894         3    ;  uncertainty k = 0.347151
        23        22        21        29     9      180.000000        1.107068         4    ;  uncertainty k = 0.235544
        23        24        25        26     9        0.000000        0.545698         1    ;  uncertainty k = 0.710680
        23        24        25        26     9      180.000000        7.153060         2    ;  uncertainty k = 0.604346
        23        24        25        26     9        0.000000       -0.042578         3    ;  uncertainty k = 0.385672
        23        24        25        26     9      180.000000        1.038495         4    ;  uncertainty k = 0.212607
        23        24        25        49     9        0.000000        0.564420         1    ;  uncertainty k = 0.984440
        23        24        25        49     9      180.000000        3.627038         2    ;  uncertainty k = 0.844669
        23        24        25        49     9        0.000000        1.294258         3    ;  uncertainty k = 0.243708
        23        24        25        49     9      180.000000        0.092482         4    ;  uncertainty k = 0.127683
        23        24        28        27     9        0.000000       -0.063129         1    ;  uncertainty k = 0.386315
        23        24        28        27     9      180.000000        8.412513         2    ;  uncertainty k = 0.121049
        23        24        28        27     9        0.000000       -0.287403         3    ;  uncertainty k = 0.440323
        23        24        28        27     9      180.000000        1.255913         4    ;  uncertainty k = 0.401647
        23        24        28        29     9        0.000000       -0.562856         1    ;  uncertainty k = 0.745394
        23        24        28        29     9      180.000000        7.458514         2    ;  uncertainty k = 0.459216
        23        24        28        29     9        0.000000        0.136454         3    ;  uncertainty k = 0.199056
        23        24        28        29     9      180.000000        1.050165         4    ;  uncertainty k = 0.325664
        24        23        22        47     9        0.000000        0.020909         1    ;  uncertainty k = 0.300364
        24        23        22        47     9      180.000000       11.611134         2    ;  uncertainty k = 0.328467
        24        23        22        47     9        0.000000        1.514345         3    ;  uncertainty k = 0.287097
        24        23        22        47     9      180.000000        1.729218         4    ;  uncertainty k = 0.314044
        24        25        26        27     9        0.000000       -0.120151         1    ;  uncertainty k = 0.731968
        24        25        26        27     9      180.000000       26.305453         2    ;  uncertainty k = 0.190420
        24        25        26        27     9        0.000000       -5.118995         3    ;  uncertainty k = 1.092191
        24        25        26        27     9      180.000000        1.921340         4    ;  uncertainty k = 0.544336
        24        28        27        26     9        0.000000        0.445886         1    ;  uncertainty k = 0.538503
        24        28        27        26     9      180.000000       17.377664         2    ;  uncertainty k = 0.937307
        24        28        27        26     9        0.000000       -8.620328         3    ;  uncertainty k = 1.375362
        24        28        27        26     9      180.000000        0.798738         4    ;  uncertainty k = 0.449853
        24        28        27        50     9        0.000000        4.597756         1    ;  uncertainty k = 2.148014
        24        28        27        50     9      180.000000        5.842092         2    ;  uncertainty k = 1.205206
        24        28        27        50     9        0.000000        1.417090         3    ;  uncertainty k = 0.198828
        24        28        27        50     9      180.000000        0.079654         4    ;  uncertainty k = 0.179784
        24        28        29        51     9        0.000000        0.013418         1    ;  uncertainty k = 0.418706
        24        28        29        51     9      180.000000        6.790814         2    ;  uncertainty k = 1.175804
        24        28        29        51     9        0.000000        1.352570         3    ;  uncertainty k = 0.132010
        24        28        29        51     9      180.000000        1.195216         4    ;  uncertainty k = 0.438465
        25        24        23        48     9        0.000000        0.217395         1    ;  uncertainty k = 0.480879
        25        24        23        48     9      180.000000        5.634350         2    ;  uncertainty k = 0.518608
        25        24        23        48     9        0.000000        1.012531         3    ;  uncertainty k = 0.158569
        25        24        23        48     9      180.000000        0.531503         4    ;  uncertainty k = 0.245181
        25        24        28        27     9        0.000000       -0.643775         1    ;  uncertainty k = 0.381049
        25        24        28        27     9      180.000000       11.992308         2    ;  uncertainty k = 0.969249
        25        24        28        27     9        0.000000       -3.882658         3    ;  uncertainty k = 1.450463
        25        24        28        27     9      180.000000        1.660887         4    ;  uncertainty k = 0.668480
        25        24        28        29     9        0.000000        0.241076         1    ;  uncertainty k = 0.298478
        25        24        28        29     9      180.000000        6.850321         2    ;  uncertainty k = 0.103680
        25        24        28        29     9        0.000000        0.207085         3    ;  uncertainty k = 0.461047
        25        24        28        29     9      180.000000        1.308351         4    ;  uncertainty k = 0.339157
        25        26        27        28     9        0.000000        0.010604         1    ;  uncertainty k = 0.662710
        25        26        27        28     9      180.000000       18.143358         2    ;  uncertainty k = 0.626429
        25        26        27        28     9        0.000000       -5.124361         3    ;  uncertainty k = 1.731977
        25        26        27        28     9      180.000000        1.047797         4    ;  uncertainty k = 0.635563
        25        26        27        50     9        0.000000        4.250974         1    ;  uncertainty k = 1.972130
        25        26        27        50     9      180.000000       14.221018         2    ;  uncertainty k = 0.376681
        25        26        27        50     9        0.000000        1.503734         3    ;  uncertainty k = 1.418969
        25        26        27        50     9      180.000000       -0.516135         4    ;  uncertainty k = 0.508753
        26        25        24        28     9        0.000000        0.359306         1    ;  uncertainty k = 0.778422
        26        25        24        28     9      180.000000       13.632398         2    ;  uncertainty k = 1.052808
        26        25        24        28     9        0.000000      -12.345143         3    ;  uncertainty k = 2.648213
        26        25        24        28     9      180.000000        2.230091         4    ;  uncertainty k = 0.628090
        26        27        28        29     9        0.000000        1.000030         1    ;  uncertainty k = 0.963976
        26        27        28        29     9      180.000000        6.598531         2    ;  uncertainty k = 0.456533
        26        27        28        29     9        0.000000        0.523615         3    ;  uncertainty k = 0.549524
        26        27        28        29     9      180.000000        0.305440         4    ;  uncertainty k = 0.151087
        27        26        25        49     9        0.000000        0.518235         1    ;  uncertainty k = 0.650450
        27        26        25        49     9      180.000000       24.335930         2    ;  uncertainty k = 0.403779
        27        26        25        49     9        0.000000        1.548246         3    ;  uncertainty k = 0.953166
        27        26        25        49     9      180.000000        1.092166         4    ;  uncertainty k = 0.377301
        27        28        29        51     9        0.000000        0.314928         1    ;  uncertainty k = 0.315516
        27        28        29        51     9      180.000000        5.699467         2    ;  uncertainty k = 0.975195
        27        28        29        51     9        0.000000        1.146583         3    ;  uncertainty k = 0.270923
        27        28        29        51     9      180.000000        0.857597         4    ;  uncertainty k = 0.459903
        28        24        23        48     9        0.000000       -0.020110         1    ;  uncertainty k = 0.552058
        28        24        23        48     9      180.000000        7.540400         2    ;  uncertainty k = 0.762481
        28        24        23        48     9        0.000000        1.344634         3    ;  uncertainty k = 0.335085
        28        24        23        48     9      180.000000        1.075326         4    ;  uncertainty k = 0.499322
        28        24        25        49     9        0.000000        0.126420         1    ;  uncertainty k = 0.442510
        28        24        25        49     9      180.000000        8.054401         2    ;  uncertainty k = 0.926413
        28        24        25        49     9        0.000000        1.381881         3    ;  uncertainty k = 0.459935
        28        24        25        49     9      180.000000        0.310454         4    ;  uncertainty k = 0.234121
        29        21        22        47     9        0.000000       -0.091765         1    ;  uncertainty k = 0.174121
        29        21        22        47     9      180.000000        6.129199         2    ;  uncertainty k = 0.575207
        29        21        22        47     9        0.000000        1.243235         3    ;  uncertainty k = 0.113303
        29        21        22        47     9      180.000000        1.508541         4    ;  uncertainty k = 0.244145
        29        28        27        50     9        0.000000        1.977926         1    ;  uncertainty k = 0.648831
        29        28        27        50     9      180.000000        1.587494         2    ;  uncertainty k = 0.601508
        29        28        27        50     9        0.000000        1.310227         3    ;  uncertainty k = 0.630296
        29        28        27        50     9      180.000000        0.107901         4    ;  uncertainty k = 0.145848
        30        10         9        42     9        0.000000        0.099116         1    ;  uncertainty k = 0.246381
        30        10         9        42     9      180.000000        6.426364         2    ;  uncertainty k = 0.681133
        30        10         9        42     9        0.000000        1.273368         3    ;  uncertainty k = 0.298945
        30        10         9        42     9      180.000000        1.497844         4    ;  uncertainty k = 0.150234
        30        10        11        43     9        0.000000        2.640838         1    ;  uncertainty k = 0.288143
        30        10        11        43     9      180.000000        4.638911         2    ;  uncertainty k = 0.263171
        30        10        11        43     9        0.000000        0.671403         3    ;  uncertainty k = 0.173016
        30        10        11        43     9      180.000000        0.394715         4    ;  uncertainty k = 0.075476
        31         7         3        36     9        0.000000       -0.223349         1    ;  uncertainty k = 0.370688
        31         7         3        36     9      180.000000        1.758731         2    ;  uncertainty k = 0.161547
        31         7         3        36     9        0.000000        0.469386         3    ;  uncertainty k = 0.139268
        31         7         3        36     9      180.000000        0.313234         4    ;  uncertainty k = 0.052092
        31         7         8        41     9        0.000000        0.000980         1    ;  uncertainty k = 0.222223
        31         7         8        41     9      180.000000        7.014830         2    ;  uncertainty k = 0.418988
        31         7         8        41     9        0.000000        1.442001         3    ;  uncertainty k = 0.410495
        31         7         8        41     9      180.000000        1.584408         4    ;  uncertainty k = 0.177634
        32         1         2        34     9        0.000000       -0.253738         1    ;  uncertainty k = 0.344988
        32         1         2        34     9      180.000000        0.736588         2    ;  uncertainty k = 0.324709
        32         1         2        34     9        0.000000        0.131174         3    ;  uncertainty k = 0.047209
        32         1         2        34     9      180.000000       -0.327016         4    ;  uncertainty k = 0.056178
        32         1         2        35     9        0.000000       -0.253738         1    ;  uncertainty k = 0.344988
        32         1         2        35     9      180.000000        0.736588         2    ;  uncertainty k = 0.324709
        32         1         2        35     9        0.000000        0.131174         3    ;  uncertainty k = 0.047209
        32         1         2        35     9      180.000000       -0.327016         4    ;  uncertainty k = 0.056178
        33         1         2        34     9        0.000000       -0.253738         1    ;  uncertainty k = 0.344988
        33         1         2        34     9      180.000000        0.736588         2    ;  uncertainty k = 0.324709
        33         1         2        34     9        0.000000        0.131174         3    ;  uncertainty k = 0.047209
        33         1         2        34     9      180.000000       -0.327016         4    ;  uncertainty k = 0.056178
        33         1         2        35     9        0.000000       -0.253738         1    ;  uncertainty k = 0.344988
        33         1         2        35     9      180.000000        0.736588         2    ;  uncertainty k = 0.324709
        33         1         2        35     9        0.000000        0.131174         3    ;  uncertainty k = 0.047209
        33         1         2        35     9      180.000000       -0.327016         4    ;  uncertainty k = 0.056178
        34         2         3        36     9        0.000000        1.641615         1    ;  uncertainty k = 0.352322
        34         2         3        36     9      180.000000       -0.174504         2    ;  uncertainty k = 0.216186
        34         2         3        36     9        0.000000       -0.037967         3    ;  uncertainty k = 0.102218
        34         2         3        36     9      180.000000        0.080445         4    ;  uncertainty k = 0.061130
        35         2         3        36     9        0.000000        1.641615         1    ;  uncertainty k = 0.352322
        35         2         3        36     9      180.000000       -0.174504         2    ;  uncertainty k = 0.216186
        35         2         3        36     9        0.000000       -0.037967         3    ;  uncertainty k = 0.102218
        35         2         3        36     9      180.000000        0.080445         4    ;  uncertainty k = 0.061130
        36         3         4        37     9        0.000000        1.641615         1    ;  uncertainty k = 0.352322
        36         3         4        37     9      180.000000       -0.174504         2    ;  uncertainty k = 0.216186
        36         3         4        37     9        0.000000       -0.037967         3    ;  uncertainty k = 0.102218
        36         3         4        37     9      180.000000        0.080445         4    ;  uncertainty k = 0.061130
        36         3         4        38     9        0.000000        1.641615         1    ;  uncertainty k = 0.352322
        36         3         4        38     9      180.000000       -0.174504         2    ;  uncertainty k = 0.216186
        36         3         4        38     9        0.000000       -0.037967         3    ;  uncertainty k = 0.102218
        36         3         4        38     9      180.000000        0.080445         4    ;  uncertainty k = 0.061130
        37         4         5        39     9        0.000000       -0.253738         1    ;  uncertainty k = 0.344988
        37         4         5        39     9      180.000000        0.736588         2    ;  uncertainty k = 0.324709
        37         4         5        39     9        0.000000        0.131174         3    ;  uncertainty k = 0.047209
        37         4         5        39     9      180.000000       -0.327016         4    ;  uncertainty k = 0.056178
        37         4         5        40     9        0.000000       -0.253738         1    ;  uncertainty k = 0.344988
        37         4         5        40     9      180.000000        0.736588         2    ;  uncertainty k = 0.324709
        37         4         5        40     9        0.000000        0.131174         3    ;  uncertainty k = 0.047209
        37         4         5        40     9      180.000000       -0.327016         4    ;  uncertainty k = 0.056178
        38         4         5        39     9        0.000000       -0.253738         1    ;  uncertainty k = 0.344988
        38         4         5        39     9      180.000000        0.736588         2    ;  uncertainty k = 0.324709
        38         4         5        39     9        0.000000        0.131174         3    ;  uncertainty k = 0.047209
        38         4         5        39     9      180.000000       -0.327016         4    ;  uncertainty k = 0.056178
        38         4         5        40     9        0.000000       -0.253738         1    ;  uncertainty k = 0.344988
        38         4         5        40     9      180.000000        0.736588         2    ;  uncertainty k = 0.324709
        38         4         5        40     9        0.000000        0.131174         3    ;  uncertainty k = 0.047209
        38         4         5        40     9      180.000000       -0.327016         4    ;  uncertainty k = 0.056178
        41         8         9        42     9        0.000000       -0.146852         1    ;  uncertainty k = 0.220672
        41         8         9        42     9      180.000000        7.917433         2    ;  uncertainty k = 0.388494
        41         8         9        42     9        0.000000       -0.439660         3    ;  uncertainty k = 0.319385
        41         8         9        42     9      180.000000        0.309418         4    ;  uncertainty k = 0.206468
        45        17        18        46     9        0.000000       -0.311075         1    ;  uncertainty k = 0.492453
        45        17        18        46     9      180.000000        5.384359         2    ;  uncertainty k = 0.598234
        45        17        18        46     9        0.000000        1.243313         3    ;  uncertainty k = 0.430720
        45        17        18        46     9      180.000000        0.271791         4    ;  uncertainty k = 0.092255
        47        22        23        48     9        0.000000       -0.250847         1    ;  uncertainty k = 0.196331
        47        22        23        48     9      180.000000        8.235113         2    ;  uncertainty k = 0.381562
        47        22        23        48     9        0.000000       -0.155117         3    ;  uncertainty k = 0.220769
        47        22        23        48     9      180.000000        0.305847         4    ;  uncertainty k = 0.262587
        52        30        31        53     9        0.000000       -0.146854         1    ;  uncertainty k = 0.220671
        52        30        31        53     9      180.000000        7.917434         2    ;  uncertainty k = 0.388494
        52        30        31        53     9        0.000000       -0.439660         3    ;  uncertainty k = 0.319385
        52        30        31        53     9      180.000000        0.309418         4    ;  uncertainty k = 0.206468

[ dihedrals ] ; impropers
;       ai        aj        ak        al funct           phase               k        pn
         7         3         8        31     4      180.000000       13.134015         2    ;  uncertainty k = 0.126600
         7         8        31         3     4      180.000000       13.134015         2    ;  uncertainty k = 0.126600
         7        31         3         8     4      180.000000       13.134015         2    ;  uncertainty k = 0.126600
         8         7         9        41     4      180.000000        3.774530         2    ;  uncertainty k = 0.118355
         8         9        41         7     4      180.000000        3.774530         2    ;  uncertainty k = 0.118355
         8        41         7         9     4      180.000000        3.774530         2    ;  uncertainty k = 0.118355
         9         8        10        42     4      180.000000        3.037367         2    ;  uncertainty k = 0.317790
         9        10        42         8     4      180.000000        3.037367         2    ;  uncertainty k = 0.317790
         9        42         8        10     4      180.000000        3.037367         2    ;  uncertainty k = 0.317790
        10         9        11        30     4      180.000000       17.934003         2    ;  uncertainty k = 0.061056
        10        11        30         9     4      180.000000       17.934003         2    ;  uncertainty k = 0.061056
        10        30         9        11     4      180.000000       17.934003         2    ;  uncertainty k = 0.061056
        11        10        12        43     4      180.000000        1.623728         2    ;  uncertainty k = 0.682079
        11        12        43        10     4      180.000000        1.623728         2    ;  uncertainty k = 0.682079
        11        43        10        12     4      180.000000        1.623728         2    ;  uncertainty k = 0.682079
        12        11        13        20     4      180.000000       28.346684         2    ;  uncertainty k = 0.062767
        12        13        20        11     4      180.000000       28.346684         2    ;  uncertainty k = 0.062767
        12        20        11        13     4      180.000000       28.346684         2    ;  uncertainty k = 0.062767
        14        13        15        21     4      180.000000       19.200791         2    ;  uncertainty k = 0.081082
        14        15        21        13     4      180.000000       19.200791         2    ;  uncertainty k = 0.081082
        14        21        13        15     4      180.000000       19.200791         2    ;  uncertainty k = 0.081082
        15        14        16        44     4      180.000000        1.291987         2    ;  uncertainty k = 1.146498
        15        16        44        14     4      180.000000        1.291987         2    ;  uncertainty k = 1.146498
        15        44        14        16     4      180.000000        1.291987         2    ;  uncertainty k = 1.146498
        16        15        17        20     4      180.000000        1.588086         2    ;  uncertainty k = 1.398469
        16        17        20        15     4      180.000000        1.588086         2    ;  uncertainty k = 1.398469
        16        20        15        17     4      180.000000        1.588086         2    ;  uncertainty k = 1.398469
        17        16        18        45     4      180.000000        0.105195         2    ;  uncertainty k = 0.235223
        17        18        45        16     4      180.000000        0.105195         2    ;  uncertainty k = 0.235223
        17        45        16        18     4      180.000000        0.105195         2    ;  uncertainty k = 0.235223
        18        17        19        46     4      180.000000        1.779599         2    ;  uncertainty k = 0.230150
        18        19        46        17     4      180.000000        1.779599         2    ;  uncertainty k = 0.230150
        18        46        17        19     4      180.000000        1.779599         2    ;  uncertainty k = 0.230150
        20        12        16        19     4      180.000000        2.165381         2    ;  uncertainty k = 0.627947
        20        16        19        12     4      180.000000        2.165381         2    ;  uncertainty k = 0.627947
        20        19        12        16     4      180.000000        2.165381         2    ;  uncertainty k = 0.627947
        21        14        22        29     4      180.000000       11.787880         2    ;  uncertainty k = 0.110513
        21        22        29        14     4      180.000000       11.787880         2    ;  uncertainty k = 0.110513
        21        29        14        22     4      180.000000       11.787880         2    ;  uncertainty k = 0.110513
        22        21        23        47     4      180.000000        2.954189         2    ;  uncertainty k = 0.225776
        22        23        47        21     4      180.000000        2.954189         2    ;  uncertainty k = 0.225776
        22        47        21        23     4      180.000000        2.954189         2    ;  uncertainty k = 0.225776
        23        22        24        48     4      180.000000        5.148360         2    ;  uncertainty k = 0.214210
        23        24        48        22     4      180.000000        5.148360         2    ;  uncertainty k = 0.214210
        23        48        22        24     4      180.000000        5.148360         2    ;  uncertainty k = 0.214210
        25        24        26        49     4      180.000000        1.421392         2    ;  uncertainty k = 0.357579
        25        26        49        24     4      180.000000        1.421392         2    ;  uncertainty k = 0.357579
        25        49        24        26     4      180.000000        1.421392         2    ;  uncertainty k = 0.357579
        28        24        27        29     4      180.000000        1.427404         2    ;  uncertainty k = 0.758146
        28        27        29        24     4      180.000000        1.427404         2    ;  uncertainty k = 0.758146
        28        29        24        27     4      180.000000        1.427404         2    ;  uncertainty k = 0.758146
        29        21        28        51     4      180.000000        2.575295         2    ;  uncertainty k = 0.237857
        29        28        51        21     4      180.000000        2.575295         2    ;  uncertainty k = 0.237857
        29        51        21        28     4      180.000000        2.575295         2    ;  uncertainty k = 0.237857
        30        10        31        52     4      180.000000        3.037368         2    ;  uncertainty k = 0.317790
        30        31        52        10     4      180.000000        3.037368         2    ;  uncertainty k = 0.317790
        30        52        10        31     4      180.000000        3.037368         2    ;  uncertainty k = 0.317790
        31         7        30        53     4      180.000000        3.774531         2    ;  uncertainty k = 0.118354
        31        30        53         7     4      180.000000        3.774531         2    ;  uncertainty k = 0.118354
        31        53         7        30     4      180.000000        3.774531         2    ;  uncertainty k = 0.118354

[ pairs ]
;       ai        aj funct
         1         4     1
         1         7     1
         1        36     1
         1        39     1
         1        40     1
         2         5     1
         2         8     1
         2        31     1
         2        37     1
         2        38     1
         3         6     1
         3         9     1
         3        30     1
         3        32     1
         3        33     1
         3        39     1
         3        40     1
         3        41     1
         3        53     1
         4         8     1
         4        31     1
         4        34     1
         4        35     1
         5         7     1
         5        32     1
         5        33     1
         5        36     1
         6        34     1
         6        35     1
         6        37     1
         6        38     1
         7        10     1
         7        34     1
         7        35     1
         7        37     1
         7        38     1
         7        42     1
         7        52     1
         8        11     1
         8        30     1
         8        36     1
         8        53     1
         9        12     1
         9        31     1
         9        43     1
         9        52     1
        10        13     1
        10        20     1
        10        41     1
        10        53     1
        11        14     1
        11        16     1
        11        19     1
        11        31     1
        11        42     1
        11        52     1
        12        15     1
        12        17     1
        12        18     1
        12        21     1
        12        30     1
        13        16     1
        13        19     1
        13        22     1
        13        29     1
        13        43     1
        13        44     1
        14        17     1
        14        20     1
        14        23     1
        14        28     1
        14        47     1
        14        51     1
        15        18     1
        15        19     1
        15        22     1
        15        29     1
        15        45     1
        16        21     1
        16        46     1
        17        44     1
        19        45     1
        20        43     1
        20        44     1
        20        45     1
        20        46     1
        21        24     1
        21        27     1
        21        44     1
        21        48     1
        22        25     1
        22        28     1
        22        51     1
        23        26     1
        23        27     1
        23        29     1
        23        49     1
        24        47     1
        24        50     1
        24        51     1
        25        29     1
        25        48     1
        25        50     1
        26        29     1
        27        49     1
        27        51     1
        28        48     1
        28        49     1
        29        47     1
        29        50     1
        30        42     1
        30        43     1
        31        36     1
        31        41     1
        32        34     1
        32        35     1
        33        34     1
        33        35     1
        34        36     1
        35        36     1
        36        37     1
        36        38     1
        37        39     1
        37        40     1
        38        39     1
        38        40     1
        41        42     1
        45        46     1
        47        48     1
        52        53     1
