; ITP file created by ByteFF-joint-25, 2026-02-17 09:37:36.851816

[ atomtypes ]
;name           bonded.type        at.num        mass        charge   ptype           sigma         epsilon
 c0bf                                   6      0.0000       0.00000       A     3.39777e-01     4.51092e-01    ;  uncertainty sigma = 0.000006, epsilon = 0.000513
 o1bf                                   8      0.0000       0.00000       A     3.15625e-01     3.03887e-01    ;  uncertainty sigma = 0.000008, epsilon = 0.000773
 c2bf                                   6      0.0000       0.00000       A     3.31539e-01     4.13053e-01    ;  uncertainty sigma = 0.000011, epsilon = 0.001016
 o3bf                                   8      0.0000       0.00000       A     3.04819e-01     6.12434e-01    ;  uncertainty sigma = 0.000014, epsilon = 0.001166
 c4bf                                   6      0.0000       0.00000       A     3.31522e-01     4.13188e-01    ;  uncertainty sigma = 0.000009, epsilon = 0.000586
 c5bf                                   6      0.0000       0.00000       A     3.31532e-01     4.13577e-01    ;  uncertainty sigma = 0.000006, epsilon = 0.000556
 c6bf                                   6      0.0000       0.00000       A     3.31519e-01     4.13736e-01    ;  uncertainty sigma = 0.000007, epsilon = 0.000600
 c7bf                                   6      0.0000       0.00000       A     3.31517e-01     4.13288e-01    ;  uncertainty sigma = 0.000007, epsilon = 0.000858
 n8bf                                   7      0.0000       0.00000       A     3.27030e-01     4.90216e-01    ;  uncertainty sigma = 0.000013, epsilon = 0.001849
 c9bf                                   6      0.0000       0.00000       A     3.31534e-01     4.13239e-01    ;  uncertainty sigma = 0.000008, epsilon = 0.000887
 o10bf                                  8      0.0000       0.00000       A     3.04831e-01     6.12684e-01    ;  uncertainty sigma = 0.000012, epsilon = 0.001335
 c11bf                                  6      0.0000       0.00000       A     3.31499e-01     4.13171e-01    ;  uncertainty sigma = 0.000007, epsilon = 0.001003
 c12bf                                  6      0.0000       0.00000       A     3.31522e-01     4.13424e-01    ;  uncertainty sigma = 0.000004, epsilon = 0.000558
 c13bf                                  6      0.0000       0.00000       A     3.31516e-01     4.13332e-01    ;  uncertainty sigma = 0.000003, epsilon = 0.000561
 c14bf                                  6      0.0000       0.00000       A     3.31521e-01     4.13297e-01    ;  uncertainty sigma = 0.000006, epsilon = 0.000668
 c15bf                                  6      0.0000       0.00000       A     3.31506e-01     4.13271e-01    ;  uncertainty sigma = 0.000014, epsilon = 0.000878
 c16bf                                  6      0.0000       0.00000       A     3.31531e-01     4.13211e-01    ;  uncertainty sigma = 0.000017, epsilon = 0.000754
 c17bf                                  6      0.0000       0.00000       A     3.31556e-01     4.13456e-01    ;  uncertainty sigma = 0.000023, epsilon = 0.000743
 c18bf                                  6      0.0000       0.00000       A     3.31559e-01     4.13603e-01    ;  uncertainty sigma = 0.000013, epsilon = 0.001559
 n19bf                                  7      0.0000       0.00000       A     3.20547e-01     8.53303e-01    ;  uncertainty sigma = 0.000017, epsilon = 0.000844
 c20bf                                  6      0.0000       0.00000       A     3.31503e-01     4.12978e-01    ;  uncertainty sigma = 0.000012, epsilon = 0.001136
 c21bf                                  6      0.0000       0.00000       A     3.31531e-01     4.13187e-01    ;  uncertainty sigma = 0.000008, epsilon = 0.000700
 n22bf                                  7      0.0000       0.00000       A     3.38427e-01     3.92895e-01    ;  uncertainty sigma = 0.000039, epsilon = 0.000415
 c23bf                                  6      0.0000       0.00000       A     3.31554e-01     4.12537e-01    ;  uncertainty sigma = 0.000015, epsilon = 0.000432
 c24bf                                  6      0.0000       0.00000       A     3.31526e-01     4.13887e-01    ;  uncertainty sigma = 0.000017, epsilon = 0.001682
 n25bf                                  7      0.0000       0.00000       A     3.27852e-01     6.46168e-01    ;  uncertainty sigma = 0.000043, epsilon = 0.003219
 c26bf                                  6      0.0000       0.00000       A     3.31528e-01     4.13588e-01    ;  uncertainty sigma = 0.000010, epsilon = 0.000818
 c27bf                                  6      0.0000       0.00000       A     3.31525e-01     4.13354e-01    ;  uncertainty sigma = 0.000006, epsilon = 0.000662
 c28bf                                  6      0.0000       0.00000       A     3.31529e-01     4.13639e-01    ;  uncertainty sigma = 0.000005, epsilon = 0.000792
 c29bf                                  6      0.0000       0.00000       A     3.31526e-01     4.13474e-01    ;  uncertainty sigma = 0.000006, epsilon = 0.000721
 o30bf                                  8      0.0000       0.00000       A     3.15641e-01     3.03850e-01    ;  uncertainty sigma = 0.000015, epsilon = 0.000455
 c31bf                                  6      0.0000       0.00000       A     3.39774e-01     4.50890e-01    ;  uncertainty sigma = 0.000006, epsilon = 0.000513
 c32bf                                  6      0.0000       0.00000       A     3.31531e-01     4.13728e-01    ;  uncertainty sigma = 0.000008, epsilon = 0.001049
 o33bf                                  8      0.0000       0.00000       A     3.15636e-01     3.03949e-01    ;  uncertainty sigma = 0.000015, epsilon = 0.000670
 c34bf                                  6      0.0000       0.00000       A     3.39774e-01     4.50890e-01    ;  uncertainty sigma = 0.000006, epsilon = 0.000513
 c35bf                                  6      0.0000       0.00000       A     3.31516e-01     4.13129e-01    ;  uncertainty sigma = 0.000010, epsilon = 0.000957
 n36bf                                  7      0.0000       0.00000       A     3.38466e-01     3.93319e-01    ;  uncertainty sigma = 0.000031, epsilon = 0.000671
 c37bf                                  6      0.0000       0.00000       A     3.31519e-01     4.13736e-01    ;  uncertainty sigma = 0.000007, epsilon = 0.000600
 c38bf                                  6      0.0000       0.00000       A     3.31532e-01     4.13577e-01    ;  uncertainty sigma = 0.000006, epsilon = 0.000556
 h39bf                                  1      0.0000       0.00000       A     2.42203e-01     8.67205e-02    ;  uncertainty sigma = 0.000017, epsilon = 0.000494
 h40bf                                  1      0.0000       0.00000       A     2.42203e-01     8.67205e-02    ;  uncertainty sigma = 0.000017, epsilon = 0.000494
 h41bf                                  1      0.0000       0.00000       A     2.42203e-01     8.67205e-02    ;  uncertainty sigma = 0.000017, epsilon = 0.000494
 h42bf                                  1      0.0000       0.00000       A     2.62562e-01     6.71665e-02    ;  uncertainty sigma = 0.000010, epsilon = 0.000680
 h43bf                                  1      0.0000       0.00000       A     2.62561e-01     6.70940e-02    ;  uncertainty sigma = 0.000014, epsilon = 0.000476
 h44bf                                  1      0.0000       0.00000       A     1.10697e-01     4.15616e-02    ;  uncertainty sigma = 0.000094, epsilon = 0.000787
 h45bf                                  1      0.0000       0.00000       A     2.62550e-01     6.70182e-02    ;  uncertainty sigma = 0.000010, epsilon = 0.000665
 h46bf                                  1      0.0000       0.00000       A     2.62563e-01     6.70148e-02    ;  uncertainty sigma = 0.000010, epsilon = 0.000410
 h47bf                                  1      0.0000       0.00000       A     2.62560e-01     6.70283e-02    ;  uncertainty sigma = 0.000012, epsilon = 0.000523
 h48bf                                  1      0.0000       0.00000       A     2.62559e-01     6.73323e-02    ;  uncertainty sigma = 0.000013, epsilon = 0.000843
 h49bf                                  1      0.0000       0.00000       A     2.53612e-01     6.73649e-02    ;  uncertainty sigma = 0.000081, epsilon = 0.000889
 h50bf                                  1      0.0000       0.00000       A     2.53649e-01     6.68496e-02    ;  uncertainty sigma = 0.000023, epsilon = 0.000657
 h51bf                                  1      0.0000       0.00000       A     2.53645e-01     6.69491e-02    ;  uncertainty sigma = 0.000020, epsilon = 0.000834
 h52bf                                  1      0.0000       0.00000       A     1.10708e-01     4.06501e-02    ;  uncertainty sigma = 0.000118, epsilon = 0.000465
 h53bf                                  1      0.0000       0.00000       A     2.62564e-01     6.70247e-02    ;  uncertainty sigma = 0.000015, epsilon = 0.000426
 h54bf                                  1      0.0000       0.00000       A     2.62570e-01     6.70700e-02    ;  uncertainty sigma = 0.000012, epsilon = 0.000330
 h55bf                                  1      0.0000       0.00000       A     2.42205e-01     8.67537e-02    ;  uncertainty sigma = 0.000015, epsilon = 0.000624
 h56bf                                  1      0.0000       0.00000       A     2.42205e-01     8.67537e-02    ;  uncertainty sigma = 0.000015, epsilon = 0.000624
 h57bf                                  1      0.0000       0.00000       A     2.42205e-01     8.67537e-02    ;  uncertainty sigma = 0.000015, epsilon = 0.000624
 h58bf                                  1      0.0000       0.00000       A     2.42205e-01     8.67537e-02    ;  uncertainty sigma = 0.000015, epsilon = 0.000624
 h59bf                                  1      0.0000       0.00000       A     2.42205e-01     8.67537e-02    ;  uncertainty sigma = 0.000015, epsilon = 0.000624
 h60bf                                  1      0.0000       0.00000       A     2.42205e-01     8.67537e-02    ;  uncertainty sigma = 0.000015, epsilon = 0.000624
 h61bf                                  1      0.0000       0.00000       A     2.62560e-01     6.71374e-02    ;  uncertainty sigma = 0.000017, epsilon = 0.000539
 h62bf                                  1      0.0000       0.00000       A     2.62561e-01     6.70939e-02    ;  uncertainty sigma = 0.000014, epsilon = 0.000476
 h63bf                                  1      0.0000       0.00000       A     2.62562e-01     6.71665e-02    ;  uncertainty sigma = 0.000010, epsilon = 0.000680

[ moleculetype ]
;name             nrexcl
 MOL                   3

[ atoms ]
;       nr            type      resi   res      atom      cgnr      charge          mass ; qtot
         1            c0bf         1   UNL        c0         1     0.12786       12.0110 ; qtot    0.128
         2            o1bf         1   UNL        o1         2    -0.42504       15.9990 ; qtot   -0.297
         3            c2bf         1   UNL        c2         3     0.65308       12.0110 ; qtot    0.356
         4            o3bf         1   UNL        o3         4    -0.53127       15.9990 ; qtot   -0.175
         5            c4bf         1   UNL        c4         5    -0.18484       12.0110 ; qtot   -0.360
         6            c5bf         1   UNL        c5         6    -0.03928       12.0110 ; qtot   -0.399
         7            c6bf         1   UNL        c6         7    -0.18631       12.0110 ; qtot   -0.586
         8            c7bf         1   UNL        c7         8     0.10539       12.0110 ; qtot   -0.480
         9            n8bf         1   UNL        n8         9    -0.47580       14.0070 ; qtot   -0.956
        10            c9bf         1   UNL        c9        10     0.68793       12.0110 ; qtot   -0.268
        11           o10bf         1   UNL       o10        11    -0.57695       15.9990 ; qtot   -0.845
        12           c11bf         1   UNL       c11        12    -0.15397       12.0110 ; qtot   -0.999
        13           c12bf         1   UNL       c12        13    -0.07833       12.0110 ; qtot   -1.078
        14           c13bf         1   UNL       c13        14    -0.14069       12.0110 ; qtot   -1.218
        15           c14bf         1   UNL       c14        15    -0.09091       12.0110 ; qtot   -1.309
        16           c15bf         1   UNL       c15        16    -0.12399       12.0110 ; qtot   -1.433
        17           c16bf         1   UNL       c16        17    -0.06503       12.0110 ; qtot   -1.498
        18           c17bf         1   UNL       c17        18     0.47399       12.0110 ; qtot   -1.024
        19           c18bf         1   UNL       c18        19    -0.21980       12.0110 ; qtot   -1.244
        20           n19bf         1   UNL       n19        20     0.05302       14.0070 ; qtot   -1.191
        21           c20bf         1   UNL       c20        21    -0.21243       12.0110 ; qtot   -1.403
        22           c21bf         1   UNL       c21        22     0.01175       12.0110 ; qtot   -1.392
        23           n22bf         1   UNL       n22        23    -0.27543       14.0070 ; qtot   -1.667
        24           c23bf         1   UNL       c23        24    -0.18461       12.0110 ; qtot   -1.852
        25           c24bf         1   UNL       c24        25     0.75065       12.0110 ; qtot   -1.101
        26           n25bf         1   UNL       n25        26    -0.73903       14.0070 ; qtot   -1.840
        27           c26bf         1   UNL       c26        27     0.16694       12.0110 ; qtot   -1.673
        28           c27bf         1   UNL       c27        28    -0.15106       12.0110 ; qtot   -1.824
        29           c28bf         1   UNL       c28        29    -0.15014       12.0110 ; qtot   -1.974
        30           c29bf         1   UNL       c29        30     0.07584       12.0110 ; qtot   -1.898
        31           o30bf         1   UNL       o30        31    -0.32010       15.9990 ; qtot   -2.219
        32           c31bf         1   UNL       c31        32     0.11960       12.0110 ; qtot   -2.099
        33           c32bf         1   UNL       c32        33     0.11790       12.0110 ; qtot   -1.981
        34           o33bf         1   UNL       o33        34    -0.31927       15.9990 ; qtot   -2.300
        35           c34bf         1   UNL       c34        35     0.11995       12.0110 ; qtot   -2.180
        36           c35bf         1   UNL       c35        36    -0.20840       12.0110 ; qtot   -2.389
        37           n36bf         1   UNL       n36        37    -0.76815       14.0070 ; qtot   -3.157
        38           c37bf         1   UNL       c37        38    -0.18631       12.0110 ; qtot   -3.343
        39           c38bf         1   UNL       c38        39    -0.03928       12.0110 ; qtot   -3.383
        40           h39bf         1   UNL       h39        40     0.05338        1.0080 ; qtot   -3.329
        41           h40bf         1   UNL       h40        41     0.05338        1.0080 ; qtot   -3.276
        42           h41bf         1   UNL       h41        42     0.05338        1.0080 ; qtot   -3.222
        43           h42bf         1   UNL       h42        43     0.15096        1.0080 ; qtot   -3.071
        44           h43bf         1   UNL       h43        44     0.15692        1.0080 ; qtot   -2.914
        45           h44bf         1   UNL       h44        45     0.32030        1.0080 ; qtot   -2.594
        46           h45bf         1   UNL       h45        46     0.14604        1.0080 ; qtot   -2.448
        47           h46bf         1   UNL       h46        47     0.13869        1.0080 ; qtot   -2.309
        48           h47bf         1   UNL       h47        48     0.14240        1.0080 ; qtot   -2.167
        49           h48bf         1   UNL       h48        49     0.15611        1.0080 ; qtot   -2.011
        50           h49bf         1   UNL       h49        50     0.17424        1.0080 ; qtot   -1.837
        51           h50bf         1   UNL       h50        51     0.18619        1.0080 ; qtot   -1.651
        52           h51bf         1   UNL       h51        52     0.17120        1.0080 ; qtot   -1.479
        53           h52bf         1   UNL       h52        53     0.46165        1.0080 ; qtot   -1.018
        54           h53bf         1   UNL       h53        54     0.15302        1.0080 ; qtot   -0.865
        55           h54bf         1   UNL       h54        55     0.14091        1.0080 ; qtot   -0.724
        56           h55bf         1   UNL       h55        56     0.04337        1.0080 ; qtot   -0.680
        57           h56bf         1   UNL       h56        57     0.04337        1.0080 ; qtot   -0.637
        58           h57bf         1   UNL       h57        58     0.04337        1.0080 ; qtot   -0.594
        59           h58bf         1   UNL       h58        59     0.04337        1.0080 ; qtot   -0.550
        60           h59bf         1   UNL       h59        60     0.04337        1.0080 ; qtot   -0.507
        61           h60bf         1   UNL       h60        61     0.04337        1.0080 ; qtot   -0.464
        62           h61bf         1   UNL       h61        62     0.15565        1.0080 ; qtot   -0.308
        63           h62bf         1   UNL       h62        63     0.15692        1.0080 ; qtot   -0.151
        64           h63bf         1   UNL       h63        64     0.15096        1.0080 ; qtot    0.000

[ bonds ]
;       ai        aj funct               r               k
         1         2     1        0.144109   237191.787402    ;  uncertainty r = 0.000043, k = 5.520813
         1        40     1        0.109248   309145.351074    ;  uncertainty r = 0.000010, k = 1.351115
         1        41     1        0.109248   309145.351074    ;  uncertainty r = 0.000010, k = 1.351115
         1        42     1        0.109248   309145.351074    ;  uncertainty r = 0.000010, k = 1.351115
         2         3     1        0.135368   317671.272559    ;  uncertainty r = 0.000057, k = 8.279449
         3         4     1        0.122102   641859.206836    ;  uncertainty r = 0.000031, k = 7.643942
         3         5     1        0.148181   249682.038672    ;  uncertainty r = 0.000044, k = 4.552442
         5         6     1        0.140096   346315.839551    ;  uncertainty r = 0.000039, k = 5.648562
         5        39     1        0.140096   346315.839551    ;  uncertainty r = 0.000039, k = 5.648539
         6         7     1        0.138826   359227.657422    ;  uncertainty r = 0.000036, k = 2.778082
         6        43     1        0.108541   330314.899707    ;  uncertainty r = 0.000021, k = 1.184014
         7         8     1        0.140334   355643.064453    ;  uncertainty r = 0.000051, k = 5.956266
         7        44     1        0.108691   335677.896973    ;  uncertainty r = 0.000029, k = 1.834688
         8         9     1        0.141119   318705.551025    ;  uncertainty r = 0.000023, k = 4.257081
         8        38     1        0.140334   355643.064453    ;  uncertainty r = 0.000051, k = 5.956280
         9        10     1        0.137814   296597.462549    ;  uncertainty r = 0.000072, k = 12.488581
         9        45     1        0.101457   428400.612939    ;  uncertainty r = 0.000049, k = 2.224449
        10        11     1        0.123300   722890.600000    ;  uncertainty r = 0.000032, k = 4.344640
        10        12     1        0.150006   228889.366699    ;  uncertainty r = 0.000053, k = 8.709343
        12        13     1        0.139945   347323.891406    ;  uncertainty r = 0.000044, k = 2.678135
        12        17     1        0.139511   342478.710107    ;  uncertainty r = 0.000088, k = 2.190805
        13        14     1        0.139393   367173.835449    ;  uncertainty r = 0.000027, k = 0.860275
        13        46     1        0.108733   333169.437793    ;  uncertainty r = 0.000011, k = 1.040727
        14        15     1        0.139321   367843.112012    ;  uncertainty r = 0.000034, k = 2.571056
        14        47     1        0.108816   332716.000879    ;  uncertainty r = 0.000021, k = 1.311971
        15        16     1        0.140010   345196.624658    ;  uncertainty r = 0.000042, k = 2.989720
        15        48     1        0.108756   334095.821973    ;  uncertainty r = 0.000021, k = 0.785553
        16        17     1        0.139614   339276.892871    ;  uncertainty r = 0.000072, k = 4.017789
        16        18     1        0.147260   263607.577637    ;  uncertainty r = 0.000133, k = 9.331848
        17        49     1        0.108716   333864.864355    ;  uncertainty r = 0.000035, k = 2.283483
        18        19     1        0.136955   381436.030127    ;  uncertainty r = 0.000105, k = 11.906462
        18        37     1        0.137509   259598.762207    ;  uncertainty r = 0.000250, k = 25.283783
        19        20     1        0.137882   325401.764160    ;  uncertainty r = 0.000063, k = 6.041362
        19        50     1        0.108486   340798.879053    ;  uncertainty r = 0.000072, k = 2.317259
        20        21     1        0.137812   342777.341064    ;  uncertainty r = 0.000099, k = 5.088033
        20        24     1        0.139016   307421.187598    ;  uncertainty r = 0.000151, k = 23.940616
        21        22     1        0.138713   413349.372656    ;  uncertainty r = 0.000044, k = 11.515240
        21        51     1        0.108153   341281.121826    ;  uncertainty r = 0.000029, k = 4.725625
        22        23     1        0.136694   264650.921777    ;  uncertainty r = 0.000104, k = 21.676854
        22        52     1        0.108374   336399.626758    ;  uncertainty r = 0.000052, k = 2.763003
        23        24     1        0.133277   447135.785547    ;  uncertainty r = 0.000097, k = 11.841677
        24        25     1        0.143016   286566.971191    ;  uncertainty r = 0.000095, k = 10.976596
        25        26     1        0.137988   330814.507715    ;  uncertainty r = 0.000224, k = 31.605655
        25        37     1        0.132294   443005.822070    ;  uncertainty r = 0.000186, k = 13.577344
        26        27     1        0.141333   346668.455957    ;  uncertainty r = 0.000119, k = 12.315027
        26        53     1        0.102091   426736.793652    ;  uncertainty r = 0.000039, k = 5.302962
        27        28     1        0.139713   352891.517529    ;  uncertainty r = 0.000095, k = 4.859071
        27        36     1        0.140236   355873.307031    ;  uncertainty r = 0.000083, k = 5.100078
        28        29     1        0.139369   369864.629590    ;  uncertainty r = 0.000071, k = 2.574385
        28        54     1        0.108700   336152.248779    ;  uncertainty r = 0.000031, k = 1.798271
        29        30     1        0.139488   349133.476514    ;  uncertainty r = 0.000031, k = 2.724671
        29        55     1        0.108705   336290.634375    ;  uncertainty r = 0.000024, k = 1.905479
        30        31     1        0.136892   321113.087549    ;  uncertainty r = 0.000059, k = 4.532913
        30        33     1        0.140227   349402.944092    ;  uncertainty r = 0.000054, k = 7.584620
        31        32     1        0.142504   247060.424561    ;  uncertainty r = 0.000030, k = 4.357261
        32        56     1        0.109559   311162.527344    ;  uncertainty r = 0.000020, k = 1.272524
        32        57     1        0.109559   311162.527344    ;  uncertainty r = 0.000020, k = 1.272524
        32        58     1        0.109559   311162.527344    ;  uncertainty r = 0.000020, k = 1.272524
        33        34     1        0.136641   322875.250244    ;  uncertainty r = 0.000095, k = 4.764545
        33        36     1        0.139270   345625.571484    ;  uncertainty r = 0.000054, k = 5.224468
        34        35     1        0.142472   247648.263281    ;  uncertainty r = 0.000036, k = 5.188432
        35        59     1        0.109559   311162.527344    ;  uncertainty r = 0.000020, k = 1.272508
        35        60     1        0.109559   311162.527344    ;  uncertainty r = 0.000020, k = 1.272508
        35        61     1        0.109559   311162.527344    ;  uncertainty r = 0.000020, k = 1.272508
        36        62     1        0.108746   339222.268994    ;  uncertainty r = 0.000057, k = 2.203674
        38        39     1        0.138826   359227.657422    ;  uncertainty r = 0.000036, k = 2.778075
        38        63     1        0.108691   335677.896973    ;  uncertainty r = 0.000029, k = 1.834696
        39        64     1        0.108541   330314.899707    ;  uncertainty r = 0.000021, k = 1.184019

[ angles ]
;       ai        aj        ak funct           theta             cth
         1         2         3     1      112.963730      515.604900    ;  uncertainty theta = 0.001307, k = 0.096603
         2         1        40     1      108.458473      434.924297    ;  uncertainty theta = 0.000847, k = 0.028788
         2         1        41     1      108.458473      434.924297    ;  uncertainty theta = 0.000847, k = 0.028788
         2         1        42     1      108.458473      434.924297    ;  uncertainty theta = 0.000847, k = 0.028788
         2         3         4     1      123.554344      674.502668    ;  uncertainty theta = 0.001867, k = 0.074989
         2         3         5     1      111.345886      403.417538    ;  uncertainty theta = 0.003344, k = 0.173198
         3         5         6     1      117.839821      394.299960    ;  uncertainty theta = 0.004361, k = 0.246439
         3         5        39     1      117.839821      394.299960    ;  uncertainty theta = 0.004361, k = 0.246439
         4         3         5     1      126.727173      504.237471    ;  uncertainty theta = 0.002204, k = 0.101053
         5         6         7     1      122.253685      517.399712    ;  uncertainty theta = 0.002354, k = 0.060298
         5         6        43     1      117.673035      258.310830    ;  uncertainty theta = 0.001453, k = 0.065479
         5        39        38     1      122.253685      517.399712    ;  uncertainty theta = 0.002354, k = 0.060298
         5        39        64     1      117.673019      258.310766    ;  uncertainty theta = 0.001453, k = 0.065479
         6         5        39     1      121.604538      463.850181    ;  uncertainty theta = 0.002289, k = 0.100546
         6         7         8     1      119.944923      503.895784    ;  uncertainty theta = 0.001918, k = 0.072971
         6         7        44     1      120.820450      310.595763    ;  uncertainty theta = 0.002950, k = 0.127520
         7         6        43     1      119.623940      273.742778    ;  uncertainty theta = 0.002298, k = 0.058010
         7         8         9     1      120.282394      505.153327    ;  uncertainty theta = 0.003064, k = 0.108820
         7         8        38     1      118.756836      378.787666    ;  uncertainty theta = 0.005760, k = 0.103391
         8         7        44     1      118.961281      265.854508    ;  uncertainty theta = 0.002163, k = 0.093675
         8         9        10     1      119.158081      431.049711    ;  uncertainty theta = 0.005066, k = 0.134173
         8         9        45     1      113.935303      310.181328    ;  uncertainty theta = 0.003740, k = 0.161047
         8        38        39     1      119.944923      503.895752    ;  uncertainty theta = 0.001918, k = 0.072971
         8        38        63     1      118.961281      265.854508    ;  uncertainty theta = 0.002163, k = 0.093675
         9         8        38     1      120.282394      505.153327    ;  uncertainty theta = 0.003064, k = 0.108820
         9        10        11     1      121.886520      732.198404    ;  uncertainty theta = 0.003572, k = 0.128227
         9        10        12     1      113.843094      459.140564    ;  uncertainty theta = 0.005340, k = 0.145088
        10         9        45     1      116.254066      336.797891    ;  uncertainty theta = 0.003704, k = 0.193593
        10        12        13     1      119.138565      320.977428    ;  uncertainty theta = 0.003243, k = 0.207437
        10        12        17     1      118.324501      333.598155    ;  uncertainty theta = 0.001455, k = 0.206880
        11        10        12     1      124.278099      544.496947    ;  uncertainty theta = 0.004630, k = 0.121258
        12        13        14     1      120.614319      517.906304    ;  uncertainty theta = 0.001567, k = 0.078762
        12        13        46     1      118.913414      268.435177    ;  uncertainty theta = 0.002890, k = 0.087973
        12        17        16     1      122.519272      513.078897    ;  uncertainty theta = 0.002494, k = 0.135587
        12        17        49     1      118.781784      268.287413    ;  uncertainty theta = 0.003995, k = 0.098747
        13        12        17     1      122.378014      447.619241    ;  uncertainty theta = 0.001332, k = 0.140231
        13        14        15     1      120.683754      518.232222    ;  uncertainty theta = 0.002543, k = 0.075513
        13        14        47     1      120.272667      282.891990    ;  uncertainty theta = 0.000802, k = 0.033099
        14        13        46     1      120.459457      287.953987    ;  uncertainty theta = 0.002786, k = 0.055552
        14        15        16     1      120.311562      529.372594    ;  uncertainty theta = 0.001859, k = 0.062576
        14        15        48     1      120.459389      291.342602    ;  uncertainty theta = 0.001794, k = 0.009196
        15        14        47     1      120.274796      284.693760    ;  uncertainty theta = 0.001302, k = 0.025005
        15        16        17     1      121.170792      430.515667    ;  uncertainty theta = 0.002829, k = 0.178401
        15        16        18     1      119.873581      404.772920    ;  uncertainty theta = 0.002360, k = 0.126907
        16        15        48     1      118.619164      269.017997    ;  uncertainty theta = 0.001373, k = 0.071415
        16        17        49     1      118.673218      268.490018    ;  uncertainty theta = 0.003891, k = 0.023478
        16        18        19     1      120.994980      375.420023    ;  uncertainty theta = 0.004458, k = 0.077933
        16        18        37     1      116.963966      455.945839    ;  uncertainty theta = 0.001426, k = 0.137000
        17        16        18     1      119.208656      396.888369    ;  uncertainty theta = 0.002346, k = 0.210180
        18        19        20     1      117.529312      532.910026    ;  uncertainty theta = 0.004092, k = 0.198409
        18        19        50     1      124.634438      233.175387    ;  uncertainty theta = 0.008734, k = 0.228842
        18        37        25     1      121.092026      437.385564    ;  uncertainty theta = 0.009289, k = 0.255263
        19        18        37     1      124.543556      546.714654    ;  uncertainty theta = 0.002872, k = 0.247730
        19        20        21     1      129.664673      428.594510    ;  uncertainty theta = 0.002270, k = 0.326701
        19        20        24     1      117.420067      429.560674    ;  uncertainty theta = 0.007263, k = 0.178528
        20        19        50     1      117.417358      315.021791    ;  uncertainty theta = 0.003619, k = 0.132846
        20        21        22     1      105.324844      767.668044    ;  uncertainty theta = 0.004981, k = 0.189091
        20        21        51     1      119.539230      282.399762    ;  uncertainty theta = 0.002926, k = 0.163946
        20        24        23     1      114.523727      791.406894    ;  uncertainty theta = 0.003446, k = 0.159720
        20        24        25     1      111.142784      333.997874    ;  uncertainty theta = 0.012736, k = 0.456018
        21        20        24     1      106.195145      846.636256    ;  uncertainty theta = 0.003800, k = 0.266754
        21        22        23     1      111.223167      865.900238    ;  uncertainty theta = 0.003390, k = 0.157112
        21        22        52     1      125.339584      238.965640    ;  uncertainty theta = 0.004247, k = 0.092339
        22        21        51     1      130.781418      240.351874    ;  uncertainty theta = 0.003259, k = 0.025087
        22        23        24     1      106.065872      820.721261    ;  uncertainty theta = 0.001716, k = 0.145917
        23        22        52     1      119.156937      297.238865    ;  uncertainty theta = 0.004129, k = 0.152925
        23        24        25     1      125.515465      293.448009    ;  uncertainty theta = 0.008643, k = 0.324338
        24        25        26     1      118.339066      493.433390    ;  uncertainty theta = 0.006804, k = 0.121644
        24        25        37     1      122.397118      559.509001    ;  uncertainty theta = 0.006110, k = 0.249098
        25        26        27     1      116.303787      381.015013    ;  uncertainty theta = 0.002927, k = 0.210540
        25        26        53     1      117.061234      430.294834    ;  uncertainty theta = 0.006370, k = 0.198640
        26        25        37     1      122.084122      743.704340    ;  uncertainty theta = 0.005979, k = 0.187139
        26        27        28     1      120.412048      523.951864    ;  uncertainty theta = 0.002787, k = 0.145671
        26        27        36     1      119.861717      533.495145    ;  uncertainty theta = 0.003869, k = 0.077420
        27        26        53     1      114.186111      355.760727    ;  uncertainty theta = 0.005751, k = 0.200139
        27        28        29     1      119.248634      497.970217    ;  uncertainty theta = 0.001680, k = 0.102369
        27        28        54     1      119.526833      271.877771    ;  uncertainty theta = 0.001413, k = 0.081498
        27        36        33     1      121.379723      503.760023    ;  uncertainty theta = 0.003678, k = 0.097546
        27        36        62     1      119.577965      269.429815    ;  uncertainty theta = 0.003301, k = 0.060634
        28        27        36     1      119.564781      370.288916    ;  uncertainty theta = 0.004616, k = 0.068312
        28        29        30     1      122.308617      511.833644    ;  uncertainty theta = 0.002874, k = 0.098838
        28        29        55     1      120.002708      276.762860    ;  uncertainty theta = 0.000635, k = 0.063552
        29        28        54     1      121.012962      296.103549    ;  uncertainty theta = 0.002653, k = 0.108838
        29        30        31     1      120.713829      429.663653    ;  uncertainty theta = 0.002887, k = 0.102451
        29        30        33     1      121.473427      368.904805    ;  uncertainty theta = 0.004194, k = 0.139265
        30        29        55     1      117.399490      269.501096    ;  uncertainty theta = 0.000644, k = 0.068639
        30        31        32     1      110.612503      514.276204    ;  uncertainty theta = 0.001142, k = 0.053109
        30        33        34     1      116.892044      375.388038    ;  uncertainty theta = 0.003912, k = 0.086739
        30        33        36     1      122.924828      372.294473    ;  uncertainty theta = 0.004880, k = 0.131595
        31        30        33     1      116.739212      371.002167    ;  uncertainty theta = 0.004292, k = 0.133275
        31        32        56     1      108.817703      445.633093    ;  uncertainty theta = 0.001397, k = 0.017155
        31        32        57     1      108.817703      445.633093    ;  uncertainty theta = 0.001397, k = 0.017155
        31        32        58     1      108.817703      445.633093    ;  uncertainty theta = 0.001397, k = 0.017155
        33        34        35     1      110.584335      514.931710    ;  uncertainty theta = 0.000760, k = 0.054259
        33        36        62     1      118.198837      267.442230    ;  uncertainty theta = 0.001362, k = 0.058523
        34        33        36     1      119.984230      446.391321    ;  uncertainty theta = 0.002825, k = 0.109278
        34        35        59     1      108.804810      446.467230    ;  uncertainty theta = 0.001256, k = 0.017591
        34        35        60     1      108.804810      446.467230    ;  uncertainty theta = 0.001256, k = 0.017591
        34        35        61     1      108.804810      446.467230    ;  uncertainty theta = 0.001256, k = 0.017591
        38        39        64     1      119.623924      273.742778    ;  uncertainty theta = 0.002298, k = 0.058011
        39        38        63     1      120.820450      310.595731    ;  uncertainty theta = 0.002950, k = 0.127520
        40         1        41     1      109.126160      326.985735    ;  uncertainty theta = 0.001435, k = 0.015436
        40         1        42     1      109.126160      326.985735    ;  uncertainty theta = 0.001435, k = 0.015436
        41         1        42     1      109.126160      326.985735    ;  uncertainty theta = 0.001435, k = 0.015436
        56        32        57     1      109.159256      331.008596    ;  uncertainty theta = 0.001734, k = 0.015290
        56        32        58     1      109.159256      331.008596    ;  uncertainty theta = 0.001734, k = 0.015290
        57        32        58     1      109.159256      331.008596    ;  uncertainty theta = 0.001734, k = 0.015290
        59        35        60     1      109.159256      331.008596    ;  uncertainty theta = 0.001734, k = 0.015289
        59        35        61     1      109.159256      331.008596    ;  uncertainty theta = 0.001734, k = 0.015289
        60        35        61     1      109.159256      331.008596    ;  uncertainty theta = 0.001734, k = 0.015289

[ dihedrals ] ; propers for gromacs 4.5 or higher, use funct 9
;       ai        aj        ak        al funct           phase               k        pn
         1         2         3         4     9        0.000000        4.171821         1    ;  uncertainty k = 0.970804
         1         2         3         4     9      180.000000       14.364191         2    ;  uncertainty k = 0.154211
         1         2         3         4     9        0.000000        0.083076         3    ;  uncertainty k = 0.251997
         1         2         3         4     9      180.000000        0.074540         4    ;  uncertainty k = 0.144446
         1         2         3         5     9        0.000000        3.058172         1    ;  uncertainty k = 0.803887
         1         2         3         5     9      180.000000        8.451453         2    ;  uncertainty k = 0.276975
         1         2         3         5     9        0.000000        1.434398         3    ;  uncertainty k = 0.178414
         1         2         3         5     9      180.000000        0.153686         4    ;  uncertainty k = 0.138419
         2         3         5         6     9        0.000000        0.829889         1    ;  uncertainty k = 0.435701
         2         3         5         6     9      180.000000        4.958370         2    ;  uncertainty k = 0.121205
         2         3         5         6     9        0.000000        0.609079         3    ;  uncertainty k = 0.111819
         2         3         5         6     9      180.000000        0.170261         4    ;  uncertainty k = 0.053418
         2         3         5        39     9        0.000000        0.829891         1    ;  uncertainty k = 0.435701
         2         3         5        39     9      180.000000        4.958371         2    ;  uncertainty k = 0.121205
         2         3         5        39     9        0.000000        0.609079         3    ;  uncertainty k = 0.111819
         2         3         5        39     9      180.000000        0.170261         4    ;  uncertainty k = 0.053417
         3         2         1        40     9        0.000000        4.922284         1    ;  uncertainty k = 0.349530
         3         2         1        40     9      180.000000        0.149245         2    ;  uncertainty k = 0.140678
         3         2         1        40     9        0.000000        0.445461         3    ;  uncertainty k = 0.093538
         3         2         1        40     9      180.000000        0.796613         4    ;  uncertainty k = 0.135342
         3         2         1        41     9        0.000000        4.922284         1    ;  uncertainty k = 0.349530
         3         2         1        41     9      180.000000        0.149245         2    ;  uncertainty k = 0.140678
         3         2         1        41     9        0.000000        0.445461         3    ;  uncertainty k = 0.093538
         3         2         1        41     9      180.000000        0.796613         4    ;  uncertainty k = 0.135342
         3         2         1        42     9        0.000000        4.922284         1    ;  uncertainty k = 0.349530
         3         2         1        42     9      180.000000        0.149245         2    ;  uncertainty k = 0.140678
         3         2         1        42     9        0.000000        0.445461         3    ;  uncertainty k = 0.093538
         3         2         1        42     9      180.000000        0.796613         4    ;  uncertainty k = 0.135342
         3         5         6         7     9        0.000000        0.061568         1    ;  uncertainty k = 0.398679
         3         5         6         7     9      180.000000        8.887214         2    ;  uncertainty k = 0.406014
         3         5         6         7     9        0.000000        1.418442         3    ;  uncertainty k = 0.364491
         3         5         6         7     9      180.000000        1.718613         4    ;  uncertainty k = 0.173345
         3         5         6        43     9        0.000000       -0.252449         1    ;  uncertainty k = 0.136111
         3         5         6        43     9      180.000000        8.212763         2    ;  uncertainty k = 0.149783
         3         5         6        43     9        0.000000        0.767380         3    ;  uncertainty k = 0.298090
         3         5         6        43     9      180.000000        1.042814         4    ;  uncertainty k = 0.202678
         3         5        39        38     9        0.000000        0.061568         1    ;  uncertainty k = 0.398679
         3         5        39        38     9      180.000000        8.887210         2    ;  uncertainty k = 0.406014
         3         5        39        38     9        0.000000        1.418441         3    ;  uncertainty k = 0.364491
         3         5        39        38     9      180.000000        1.718613         4    ;  uncertainty k = 0.173345
         3         5        39        64     9        0.000000       -0.252449         1    ;  uncertainty k = 0.136110
         3         5        39        64     9      180.000000        8.212763         2    ;  uncertainty k = 0.149781
         3         5        39        64     9        0.000000        0.767381         3    ;  uncertainty k = 0.298090
         3         5        39        64     9      180.000000        1.042814         4    ;  uncertainty k = 0.202678
         4         3         5         6     9        0.000000       -0.883950         1    ;  uncertainty k = 0.448831
         4         3         5         6     9      180.000000        4.152894         2    ;  uncertainty k = 0.198346
         4         3         5         6     9        0.000000        0.427735         3    ;  uncertainty k = 0.063654
         4         3         5         6     9      180.000000       -0.073946         4    ;  uncertainty k = 0.100134
         4         3         5        39     9        0.000000       -0.883950         1    ;  uncertainty k = 0.448832
         4         3         5        39     9      180.000000        4.152894         2    ;  uncertainty k = 0.198345
         4         3         5        39     9        0.000000        0.427735         3    ;  uncertainty k = 0.063654
         4         3         5        39     9      180.000000       -0.073946         4    ;  uncertainty k = 0.100134
         5         6         7         8     9        0.000000       -0.205325         1    ;  uncertainty k = 0.251057
         5         6         7         8     9      180.000000       13.122792         2    ;  uncertainty k = 0.583107
         5         6         7         8     9        0.000000       -0.460055         3    ;  uncertainty k = 0.483071
         5         6         7         8     9      180.000000        0.933410         4    ;  uncertainty k = 0.364232
         5         6         7        44     9        0.000000       -0.034035         1    ;  uncertainty k = 0.262056
         5         6         7        44     9      180.000000        8.587134         2    ;  uncertainty k = 0.322272
         5         6         7        44     9        0.000000        1.358810         3    ;  uncertainty k = 0.275948
         5         6         7        44     9      180.000000        1.833255         4    ;  uncertainty k = 0.230856
         5        39        38         8     9        0.000000       -0.205324         1    ;  uncertainty k = 0.251057
         5        39        38         8     9      180.000000       13.122791         2    ;  uncertainty k = 0.583108
         5        39        38         8     9        0.000000       -0.460055         3    ;  uncertainty k = 0.483070
         5        39        38         8     9      180.000000        0.933410         4    ;  uncertainty k = 0.364232
         5        39        38        63     9        0.000000       -0.034035         1    ;  uncertainty k = 0.262056
         5        39        38        63     9      180.000000        8.587134         2    ;  uncertainty k = 0.322273
         5        39        38        63     9        0.000000        1.358810         3    ;  uncertainty k = 0.275947
         5        39        38        63     9      180.000000        1.833255         4    ;  uncertainty k = 0.230856
         6         5        39        38     9        0.000000       -0.119139         1    ;  uncertainty k = 0.252304
         6         5        39        38     9      180.000000       10.930290         2    ;  uncertainty k = 0.358123
         6         5        39        38     9        0.000000       -0.755030         3    ;  uncertainty k = 0.441253
         6         5        39        38     9      180.000000        0.895555         4    ;  uncertainty k = 0.269432
         6         5        39        64     9        0.000000        0.061214         1    ;  uncertainty k = 0.418041
         6         5        39        64     9      180.000000        6.921589         2    ;  uncertainty k = 0.473858
         6         5        39        64     9        0.000000        1.128867         3    ;  uncertainty k = 0.304816
         6         5        39        64     9      180.000000        1.586682         4    ;  uncertainty k = 0.211963
         6         7         8         9     9        0.000000       -0.040988         1    ;  uncertainty k = 0.250961
         6         7         8         9     9      180.000000       10.312747         2    ;  uncertainty k = 0.417197
         6         7         8         9     9        0.000000        1.097698         3    ;  uncertainty k = 0.452612
         6         7         8         9     9      180.000000        1.607810         4    ;  uncertainty k = 0.198796
         6         7         8        38     9        0.000000       -0.146441         1    ;  uncertainty k = 0.163323
         6         7         8        38     9      180.000000        9.661100         2    ;  uncertainty k = 0.310910
         6         7         8        38     9        0.000000       -0.004448         3    ;  uncertainty k = 0.318133
         6         7         8        38     9      180.000000        1.157509         4    ;  uncertainty k = 0.238938
         7         6         5        39     9        0.000000       -0.119138         1    ;  uncertainty k = 0.252305
         7         6         5        39     9      180.000000       10.930292         2    ;  uncertainty k = 0.358124
         7         6         5        39     9        0.000000       -0.755030         3    ;  uncertainty k = 0.441253
         7         6         5        39     9      180.000000        0.895556         4    ;  uncertainty k = 0.269432
         7         8         9        10     9        0.000000        0.679699         1    ;  uncertainty k = 0.706267
         7         8         9        10     9      180.000000        4.996352         2    ;  uncertainty k = 0.237857
         7         8         9        10     9        0.000000        1.052087         3    ;  uncertainty k = 0.149655
         7         8         9        10     9      180.000000        0.051270         4    ;  uncertainty k = 0.181582
         7         8         9        45     9        0.000000        0.015177         1    ;  uncertainty k = 0.598599
         7         8         9        45     9      180.000000        4.993827         2    ;  uncertainty k = 0.259250
         7         8         9        45     9        0.000000        0.695733         3    ;  uncertainty k = 0.200159
         7         8         9        45     9      180.000000        0.235985         4    ;  uncertainty k = 0.073607
         7         8        38        39     9        0.000000       -0.146441         1    ;  uncertainty k = 0.163324
         7         8        38        39     9      180.000000        9.661098         2    ;  uncertainty k = 0.310911
         7         8        38        39     9        0.000000       -0.004449         3    ;  uncertainty k = 0.318134
         7         8        38        39     9      180.000000        1.157510         4    ;  uncertainty k = 0.238938
         7         8        38        63     9        0.000000        0.165885         1    ;  uncertainty k = 0.318982
         7         8        38        63     9      180.000000        6.964015         2    ;  uncertainty k = 0.487374
         7         8        38        63     9        0.000000        1.250058         3    ;  uncertainty k = 0.270128
         7         8        38        63     9      180.000000        1.473910         4    ;  uncertainty k = 0.190973
         8         7         6        43     9        0.000000       -0.216917         1    ;  uncertainty k = 0.219383
         8         7         6        43     9      180.000000        8.300576         2    ;  uncertainty k = 0.388494
         8         7         6        43     9        0.000000        1.219277         3    ;  uncertainty k = 0.303139
         8         7         6        43     9      180.000000        1.662735         4    ;  uncertainty k = 0.157366
         8         9        10        11     9        0.000000        1.150361         1    ;  uncertainty k = 1.170411
         8         9        10        11     9      180.000000       10.984844         2    ;  uncertainty k = 0.135907
         8         9        10        11     9        0.000000        0.976167         3    ;  uncertainty k = 0.185093
         8         9        10        11     9      180.000000       -0.195732         4    ;  uncertainty k = 0.158426
         8         9        10        12     9        0.000000        5.120680         1    ;  uncertainty k = 1.283097
         8         9        10        12     9      180.000000       11.298740         2    ;  uncertainty k = 0.143037
         8         9        10        12     9        0.000000        1.898950         3    ;  uncertainty k = 0.163250
         8         9        10        12     9      180.000000       -1.338208         4    ;  uncertainty k = 0.410813
         8        38        39        64     9        0.000000       -0.216917         1    ;  uncertainty k = 0.219384
         8        38        39        64     9      180.000000        8.300576         2    ;  uncertainty k = 0.388494
         8        38        39        64     9        0.000000        1.219278         3    ;  uncertainty k = 0.303139
         8        38        39        64     9      180.000000        1.662734         4    ;  uncertainty k = 0.157366
         9         8         7        44     9        0.000000       -0.249958         1    ;  uncertainty k = 0.277106
         9         8         7        44     9      180.000000        8.359581         2    ;  uncertainty k = 0.349354
         9         8         7        44     9        0.000000        0.825310         3    ;  uncertainty k = 0.243084
         9         8         7        44     9      180.000000        1.132442         4    ;  uncertainty k = 0.236088
         9         8        38        39     9        0.000000       -0.040988         1    ;  uncertainty k = 0.250961
         9         8        38        39     9      180.000000       10.312748         2    ;  uncertainty k = 0.417196
         9         8        38        39     9        0.000000        1.097699         3    ;  uncertainty k = 0.452612
         9         8        38        39     9      180.000000        1.607810         4    ;  uncertainty k = 0.198795
         9         8        38        63     9        0.000000       -0.249958         1    ;  uncertainty k = 0.277106
         9         8        38        63     9      180.000000        8.359581         2    ;  uncertainty k = 0.349355
         9         8        38        63     9        0.000000        0.825311         3    ;  uncertainty k = 0.243084
         9         8        38        63     9      180.000000        1.132442         4    ;  uncertainty k = 0.236088
         9        10        12        13     9        0.000000        0.453306         1    ;  uncertainty k = 0.366055
         9        10        12        13     9      180.000000        3.159615         2    ;  uncertainty k = 0.129444
         9        10        12        13     9        0.000000        0.126851         3    ;  uncertainty k = 0.234351
         9        10        12        13     9      180.000000       -0.133120         4    ;  uncertainty k = 0.092920
         9        10        12        17     9        0.000000        0.406589         1    ;  uncertainty k = 0.336885
         9        10        12        17     9      180.000000        3.201968         2    ;  uncertainty k = 0.180299
         9        10        12        17     9        0.000000        0.061329         3    ;  uncertainty k = 0.209610
         9        10        12        17     9      180.000000       -0.098926         4    ;  uncertainty k = 0.087651
        10         9         8        38     9        0.000000        0.679699         1    ;  uncertainty k = 0.706267
        10         9         8        38     9      180.000000        4.996353         2    ;  uncertainty k = 0.237859
        10         9         8        38     9        0.000000        1.052086         3    ;  uncertainty k = 0.149654
        10         9         8        38     9      180.000000        0.051270         4    ;  uncertainty k = 0.181582
        10        12        13        14     9        0.000000        0.358468         1    ;  uncertainty k = 0.141657
        10        12        13        14     9      180.000000        9.364145         2    ;  uncertainty k = 0.630542
        10        12        13        14     9        0.000000        1.429780         3    ;  uncertainty k = 0.340637
        10        12        13        14     9      180.000000        1.818460         4    ;  uncertainty k = 0.299564
        10        12        13        46     9        0.000000       -0.072404         1    ;  uncertainty k = 0.402341
        10        12        13        46     9      180.000000        8.074981         2    ;  uncertainty k = 0.442134
        10        12        13        46     9        0.000000        0.956914         3    ;  uncertainty k = 0.223886
        10        12        13        46     9      180.000000        1.118667         4    ;  uncertainty k = 0.216780
        10        12        17        16     9        0.000000        0.534430         1    ;  uncertainty k = 0.111543
        10        12        17        16     9      180.000000        9.192381         2    ;  uncertainty k = 0.655105
        10        12        17        16     9        0.000000        1.531090         3    ;  uncertainty k = 0.184352
        10        12        17        16     9      180.000000        1.837484         4    ;  uncertainty k = 0.326806
        10        12        17        49     9        0.000000        0.072630         1    ;  uncertainty k = 0.672942
        10        12        17        49     9      180.000000        8.146616         2    ;  uncertainty k = 0.443491
        10        12        17        49     9        0.000000        1.060816         3    ;  uncertainty k = 0.252472
        10        12        17        49     9      180.000000        1.243253         4    ;  uncertainty k = 0.262901
        11        10         9        45     9        0.000000        2.401828         1    ;  uncertainty k = 0.865931
        11        10         9        45     9      180.000000       13.419717         2    ;  uncertainty k = 0.265945
        11        10         9        45     9        0.000000        1.830305         3    ;  uncertainty k = 0.326787
        11        10         9        45     9      180.000000       -0.410216         4    ;  uncertainty k = 0.142662
        11        10        12        13     9        0.000000       -0.561310         1    ;  uncertainty k = 0.394338
        11        10        12        13     9      180.000000        3.721701         2    ;  uncertainty k = 0.304205
        11        10        12        13     9        0.000000        0.367548         3    ;  uncertainty k = 0.197809
        11        10        12        13     9      180.000000       -0.044178         4    ;  uncertainty k = 0.073166
        11        10        12        17     9        0.000000       -0.325456         1    ;  uncertainty k = 0.582173
        11        10        12        17     9      180.000000        3.617189         2    ;  uncertainty k = 0.440175
        11        10        12        17     9        0.000000        0.338274         3    ;  uncertainty k = 0.183021
        11        10        12        17     9      180.000000       -0.038581         4    ;  uncertainty k = 0.081435
        12        10         9        45     9        0.000000       -1.609390         1    ;  uncertainty k = 0.535227
        12        10         9        45     9      180.000000        6.149565         2    ;  uncertainty k = 0.709002
        12        10         9        45     9        0.000000        2.306895         3    ;  uncertainty k = 0.331977
        12        10         9        45     9      180.000000        0.110650         4    ;  uncertainty k = 0.293875
        12        13        14        15     9        0.000000       -0.139381         1    ;  uncertainty k = 0.136333
        12        13        14        15     9      180.000000       13.339093         2    ;  uncertainty k = 0.375751
        12        13        14        15     9        0.000000       -0.717445         3    ;  uncertainty k = 0.324663
        12        13        14        15     9      180.000000        0.797221         4    ;  uncertainty k = 0.243008
        12        13        14        47     9        0.000000       -0.096751         1    ;  uncertainty k = 0.244414
        12        13        14        47     9      180.000000        8.104426         2    ;  uncertainty k = 0.284428
        12        13        14        47     9        0.000000        1.374024         3    ;  uncertainty k = 0.182477
        12        13        14        47     9      180.000000        1.777524         4    ;  uncertainty k = 0.143783
        12        17        16        15     9        0.000000       -0.012457         1    ;  uncertainty k = 0.090713
        12        17        16        15     9      180.000000       10.180231         2    ;  uncertainty k = 0.276967
        12        17        16        15     9        0.000000       -0.056222         3    ;  uncertainty k = 0.291322
        12        17        16        15     9      180.000000        1.125297         4    ;  uncertainty k = 0.190464
        12        17        16        18     9        0.000000       -0.009980         1    ;  uncertainty k = 0.175008
        12        17        16        18     9      180.000000        8.877144         2    ;  uncertainty k = 0.512528
        12        17        16        18     9        0.000000        1.246806         3    ;  uncertainty k = 0.254354
        12        17        16        18     9      180.000000        1.710790         4    ;  uncertainty k = 0.090191
        13        12        17        16     9        0.000000       -0.042378         1    ;  uncertainty k = 0.140863
        13        12        17        16     9      180.000000       10.650535         2    ;  uncertainty k = 0.356486
        13        12        17        16     9        0.000000       -0.298412         3    ;  uncertainty k = 0.337589
        13        12        17        16     9      180.000000        1.089194         4    ;  uncertainty k = 0.278688
        13        12        17        49     9        0.000000        0.352611         1    ;  uncertainty k = 0.263431
        13        12        17        49     9      180.000000        7.518729         2    ;  uncertainty k = 0.471067
        13        12        17        49     9        0.000000        1.236784         3    ;  uncertainty k = 0.248635
        13        12        17        49     9      180.000000        1.686867         4    ;  uncertainty k = 0.251883
        13        14        15        16     9        0.000000       -0.012056         1    ;  uncertainty k = 0.151620
        13        14        15        16     9      180.000000       13.850233         2    ;  uncertainty k = 0.338643
        13        14        15        16     9        0.000000       -0.893392         3    ;  uncertainty k = 0.307527
        13        14        15        16     9      180.000000        0.681687         4    ;  uncertainty k = 0.299981
        13        14        15        48     9        0.000000        0.091675         1    ;  uncertainty k = 0.056305
        13        14        15        48     9      180.000000        7.393375         2    ;  uncertainty k = 0.308207
        13        14        15        48     9        0.000000        1.415457         3    ;  uncertainty k = 0.242920
        13        14        15        48     9      180.000000        1.825501         4    ;  uncertainty k = 0.122624
        14        13        12        17     9        0.000000       -0.109853         1    ;  uncertainty k = 0.137131
        14        13        12        17     9      180.000000       10.905347         2    ;  uncertainty k = 0.374384
        14        13        12        17     9        0.000000       -0.711942         3    ;  uncertainty k = 0.170744
        14        13        12        17     9      180.000000        0.964915         4    ;  uncertainty k = 0.195520
        14        15        16        17     9        0.000000       -0.070635         1    ;  uncertainty k = 0.075333
        14        15        16        17     9      180.000000       10.756695         2    ;  uncertainty k = 0.285726
        14        15        16        17     9        0.000000       -0.527966         3    ;  uncertainty k = 0.267427
        14        15        16        17     9      180.000000        0.956765         4    ;  uncertainty k = 0.212678
        14        15        16        18     9        0.000000        0.059497         1    ;  uncertainty k = 0.170005
        14        15        16        18     9      180.000000        9.082570         2    ;  uncertainty k = 0.568610
        14        15        16        18     9        0.000000        1.268652         3    ;  uncertainty k = 0.336252
        14        15        16        18     9      180.000000        1.713418         4    ;  uncertainty k = 0.243957
        15        14        13        46     9        0.000000        0.068500         1    ;  uncertainty k = 0.079350
        15        14        13        46     9      180.000000        7.276538         2    ;  uncertainty k = 0.273482
        15        14        13        46     9        0.000000        1.393918         3    ;  uncertainty k = 0.234871
        15        14        13        46     9      180.000000        1.819480         4    ;  uncertainty k = 0.136310
        15        16        17        49     9        0.000000        0.181575         1    ;  uncertainty k = 0.115112
        15        16        17        49     9      180.000000        7.261848         2    ;  uncertainty k = 0.554433
        15        16        17        49     9        0.000000        1.303618         3    ;  uncertainty k = 0.158239
        15        16        17        49     9      180.000000        1.634910         4    ;  uncertainty k = 0.232983
        15        16        18        19     9        0.000000       -0.073073         1    ;  uncertainty k = 0.402833
        15        16        18        19     9      180.000000        3.730324         2    ;  uncertainty k = 0.332928
        15        16        18        19     9        0.000000        0.762576         3    ;  uncertainty k = 0.247151
        15        16        18        19     9      180.000000       -0.326397         4    ;  uncertainty k = 0.135735
        15        16        18        37     9        0.000000       -0.842924         1    ;  uncertainty k = 1.576911
        15        16        18        37     9      180.000000        4.811965         2    ;  uncertainty k = 0.164611
        15        16        18        37     9        0.000000        0.396917         3    ;  uncertainty k = 0.157235
        15        16        18        37     9      180.000000        0.104740         4    ;  uncertainty k = 0.135082
        16        15        14        47     9        0.000000        0.060658         1    ;  uncertainty k = 0.117380
        16        15        14        47     9      180.000000        7.697439         2    ;  uncertainty k = 0.360548
        16        15        14        47     9        0.000000        1.435851         3    ;  uncertainty k = 0.226551
        16        15        14        47     9      180.000000        1.851607         4    ;  uncertainty k = 0.107761
        16        18        19        20     9        0.000000        0.591760         1    ;  uncertainty k = 0.266729
        16        18        19        20     9      180.000000       17.691271         2    ;  uncertainty k = 0.416571
        16        18        19        20     9        0.000000        1.855432         3    ;  uncertainty k = 0.438797
        16        18        19        20     9      180.000000        0.749920         4    ;  uncertainty k = 0.228529
        16        18        19        50     9        0.000000       -0.216927         1    ;  uncertainty k = 0.346341
        16        18        19        50     9      180.000000        9.418172         2    ;  uncertainty k = 0.495732
        16        18        19        50     9        0.000000        1.500648         3    ;  uncertainty k = 0.314168
        16        18        19        50     9      180.000000        1.007881         4    ;  uncertainty k = 0.136891
        16        18        37        25     9        0.000000        0.794450         1    ;  uncertainty k = 1.385570
        16        18        37        25     9      180.000000        8.981134         2    ;  uncertainty k = 0.771215
        16        18        37        25     9        0.000000        1.556127         3    ;  uncertainty k = 0.550784
        16        18        37        25     9      180.000000        0.428246         4    ;  uncertainty k = 0.313577
        17        12        13        46     9        0.000000        0.371817         1    ;  uncertainty k = 0.211011
        17        12        13        46     9      180.000000        7.161688         2    ;  uncertainty k = 0.494660
        17        12        13        46     9        0.000000        1.269366         3    ;  uncertainty k = 0.269259
        17        12        13        46     9      180.000000        1.675677         4    ;  uncertainty k = 0.260199
        17        16        15        48     9        0.000000        0.214331         1    ;  uncertainty k = 0.100065
        17        16        15        48     9      180.000000        6.830144         2    ;  uncertainty k = 0.464070
        17        16        15        48     9        0.000000        1.336017         3    ;  uncertainty k = 0.189897
        17        16        15        48     9      180.000000        1.643551         4    ;  uncertainty k = 0.238792
        17        16        18        19     9        0.000000       -0.186094         1    ;  uncertainty k = 0.280727
        17        16        18        19     9      180.000000        3.699147         2    ;  uncertainty k = 0.287042
        17        16        18        19     9        0.000000        0.865803         3    ;  uncertainty k = 0.199031
        17        16        18        19     9      180.000000       -0.305306         4    ;  uncertainty k = 0.142109
        17        16        18        37     9        0.000000       -0.372739         1    ;  uncertainty k = 1.621860
        17        16        18        37     9      180.000000        4.794671         2    ;  uncertainty k = 0.205596
        17        16        18        37     9        0.000000        0.390302         3    ;  uncertainty k = 0.141423
        17        16        18        37     9      180.000000        0.081330         4    ;  uncertainty k = 0.149739
        18        16        15        48     9        0.000000        0.004902         1    ;  uncertainty k = 0.159335
        18        16        15        48     9      180.000000        7.002721         2    ;  uncertainty k = 0.358410
        18        16        15        48     9        0.000000        0.662384         3    ;  uncertainty k = 0.254752
        18        16        15        48     9      180.000000        1.137411         4    ;  uncertainty k = 0.196707
        18        16        17        49     9        0.000000        0.027708         1    ;  uncertainty k = 0.271705
        18        16        17        49     9      180.000000        7.234969         2    ;  uncertainty k = 0.297320
        18        16        17        49     9        0.000000        0.739096         3    ;  uncertainty k = 0.231375
        18        16        17        49     9      180.000000        1.270063         4    ;  uncertainty k = 0.187282
        18        19        20        21     9        0.000000        0.426659         1    ;  uncertainty k = 1.499799
        18        19        20        21     9      180.000000        4.652440         2    ;  uncertainty k = 0.599161
        18        19        20        21     9        0.000000        0.715390         3    ;  uncertainty k = 0.332561
        18        19        20        21     9      180.000000        0.335557         4    ;  uncertainty k = 0.092543
        18        19        20        24     9        0.000000       -0.092030         1    ;  uncertainty k = 1.657471
        18        19        20        24     9      180.000000        6.297307         2    ;  uncertainty k = 0.496589
        18        19        20        24     9        0.000000       -0.827331         3    ;  uncertainty k = 0.837727
        18        19        20        24     9      180.000000        0.591428         4    ;  uncertainty k = 0.145930
        18        37        25        24     9        0.000000       -0.079282         1    ;  uncertainty k = 2.218225
        18        37        25        24     9      180.000000       13.592964         2    ;  uncertainty k = 0.610320
        18        37        25        24     9        0.000000        2.514815         3    ;  uncertainty k = 0.854001
        18        37        25        24     9      180.000000        1.355385         4    ;  uncertainty k = 0.396240
        18        37        25        26     9        0.000000        1.093747         1    ;  uncertainty k = 1.036214
        18        37        25        26     9      180.000000       17.904271         2    ;  uncertainty k = 0.458529
        18        37        25        26     9        0.000000        2.916475         3    ;  uncertainty k = 0.276347
        18        37        25        26     9      180.000000        1.662492         4    ;  uncertainty k = 0.298465
        19        18        37        25     9        0.000000        0.939472         1    ;  uncertainty k = 1.501291
        19        18        37        25     9      180.000000        5.478742         2    ;  uncertainty k = 1.436526
        19        18        37        25     9        0.000000        1.155134         3    ;  uncertainty k = 0.833320
        19        18        37        25     9      180.000000        0.505236         4    ;  uncertainty k = 0.531949
        19        20        21        22     9        0.000000        0.230793         1    ;  uncertainty k = 1.269737
        19        20        21        22     9      180.000000        9.569834         2    ;  uncertainty k = 0.766860
        19        20        21        22     9        0.000000        0.431847         3    ;  uncertainty k = 0.749472
        19        20        21        22     9      180.000000        0.562970         4    ;  uncertainty k = 0.317996
        19        20        21        51     9        0.000000        0.582736         1    ;  uncertainty k = 1.282917
        19        20        21        51     9      180.000000        2.797133         2    ;  uncertainty k = 1.416072
        19        20        21        51     9        0.000000        1.235338         3    ;  uncertainty k = 0.396602
        19        20        21        51     9      180.000000        0.134009         4    ;  uncertainty k = 0.120872
        19        20        24        23     9        0.000000        0.339779         1    ;  uncertainty k = 0.557631
        19        20        24        23     9      180.000000        8.702717         2    ;  uncertainty k = 0.552037
        19        20        24        23     9        0.000000        0.461034         3    ;  uncertainty k = 0.395643
        19        20        24        23     9      180.000000        0.883728         4    ;  uncertainty k = 0.214014
        19        20        24        25     9        0.000000       -0.074403         1    ;  uncertainty k = 0.950776
        19        20        24        25     9      180.000000        5.131695         2    ;  uncertainty k = 1.540544
        19        20        24        25     9        0.000000        1.364865         3    ;  uncertainty k = 0.461387
        19        20        24        25     9      180.000000        0.396565         4    ;  uncertainty k = 0.312989
        20        19        18        37     9        0.000000        0.000360         1    ;  uncertainty k = 0.567486
        20        19        18        37     9      180.000000       21.321777         2    ;  uncertainty k = 0.622601
        20        19        18        37     9        0.000000        0.535648         3    ;  uncertainty k = 0.315066
        20        19        18        37     9      180.000000        0.534099         4    ;  uncertainty k = 0.517790
        20        21        22        23     9        0.000000       -0.424260         1    ;  uncertainty k = 0.720468
        20        21        22        23     9      180.000000       21.948840         2    ;  uncertainty k = 0.272816
        20        21        22        23     9        0.000000       -9.453918         3    ;  uncertainty k = 0.408148
        20        21        22        23     9      180.000000        1.578950         4    ;  uncertainty k = 0.654473
        20        21        22        52     9        0.000000        0.427384         1    ;  uncertainty k = 0.828523
        20        21        22        52     9      180.000000       13.870591         2    ;  uncertainty k = 0.182399
        20        21        22        52     9        0.000000        1.815389         3    ;  uncertainty k = 0.320274
        20        21        22        52     9      180.000000        0.903574         4    ;  uncertainty k = 0.223947
        20        24        23        22     9        0.000000       -0.698105         1    ;  uncertainty k = 0.543242
        20        24        23        22     9      180.000000       23.970047         2    ;  uncertainty k = 0.495895
        20        24        23        22     9        0.000000      -11.206153         3    ;  uncertainty k = 1.161988
        20        24        23        22     9      180.000000        1.981051         4    ;  uncertainty k = 0.603215
        20        24        25        26     9        0.000000       -0.953521         1    ;  uncertainty k = 0.960772
        20        24        25        26     9      180.000000        5.426485         2    ;  uncertainty k = 0.732993
        20        24        25        26     9        0.000000        0.463830         3    ;  uncertainty k = 0.276198
        20        24        25        26     9      180.000000        0.425034         4    ;  uncertainty k = 0.145521
        20        24        25        37     9        0.000000       -0.501337         1    ;  uncertainty k = 0.640963
        20        24        25        37     9      180.000000        6.017651         2    ;  uncertainty k = 0.720254
        20        24        25        37     9        0.000000       -0.364994         3    ;  uncertainty k = 0.314830
        20        24        25        37     9      180.000000        0.566313         4    ;  uncertainty k = 0.158573
        21        20        19        50     9        0.000000        1.227127         1    ;  uncertainty k = 1.232866
        21        20        19        50     9      180.000000        2.938475         2    ;  uncertainty k = 1.102516
        21        20        19        50     9        0.000000        1.033215         3    ;  uncertainty k = 0.512497
        21        20        19        50     9      180.000000        0.184974         4    ;  uncertainty k = 0.169272
        21        20        24        23     9        0.000000       -0.600194         1    ;  uncertainty k = 0.427508
        21        20        24        23     9      180.000000       12.032077         2    ;  uncertainty k = 0.540573
        21        20        24        23     9        0.000000       -4.884607         3    ;  uncertainty k = 1.243657
        21        20        24        23     9      180.000000        1.176890         4    ;  uncertainty k = 0.463084
        21        20        24        25     9        0.000000        0.340423         1    ;  uncertainty k = 0.792595
        21        20        24        25     9      180.000000        6.024514         2    ;  uncertainty k = 0.492564
        21        20        24        25     9        0.000000        0.209998         3    ;  uncertainty k = 0.527723
        21        20        24        25     9      180.000000        0.585311         4    ;  uncertainty k = 0.374830
        21        22        23        24     9        0.000000       -0.719371         1    ;  uncertainty k = 0.806441
        21        22        23        24     9      180.000000       16.306388         2    ;  uncertainty k = 0.372138
        21        22        23        24     9        0.000000       -5.546729         3    ;  uncertainty k = 0.784850
        21        22        23        24     9      180.000000        2.138755         4    ;  uncertainty k = 0.319470
        22        21        20        24     9        0.000000        0.425343         1    ;  uncertainty k = 0.911888
        22        21        20        24     9      180.000000       13.121731         2    ;  uncertainty k = 1.266974
        22        21        20        24     9        0.000000      -13.119123         3    ;  uncertainty k = 1.817829
        22        21        20        24     9      180.000000        1.693366         4    ;  uncertainty k = 0.377703
        22        23        24        25     9        0.000000       -0.258736         1    ;  uncertainty k = 0.813751
        22        23        24        25     9      180.000000       16.417004         2    ;  uncertainty k = 0.455555
        22        23        24        25     9        0.000000        0.694003         3    ;  uncertainty k = 0.637623
        22        23        24        25     9      180.000000        1.345365         4    ;  uncertainty k = 0.597909
        23        22        21        51     9        0.000000       -0.210817         1    ;  uncertainty k = 0.409317
        23        22        21        51     9      180.000000       14.525460         2    ;  uncertainty k = 0.474527
        23        22        21        51     9        0.000000        1.399988         3    ;  uncertainty k = 0.472592
        23        22        21        51     9      180.000000        0.597840         4    ;  uncertainty k = 0.116226
        23        24        25        26     9        0.000000       -0.723786         1    ;  uncertainty k = 0.708755
        23        24        25        26     9      180.000000        4.584248         2    ;  uncertainty k = 1.077486
        23        24        25        26     9        0.000000        0.569780         3    ;  uncertainty k = 0.418446
        23        24        25        26     9      180.000000        0.322209         4    ;  uncertainty k = 0.225420
        23        24        25        37     9        0.000000       -1.422783         1    ;  uncertainty k = 2.244568
        23        24        25        37     9      180.000000        4.485013         2    ;  uncertainty k = 0.589709
        23        24        25        37     9        0.000000        0.451574         3    ;  uncertainty k = 0.408181
        23        24        25        37     9      180.000000        0.387928         4    ;  uncertainty k = 0.297233
        24        20        19        50     9        0.000000        1.224014         1    ;  uncertainty k = 1.441616
        24        20        19        50     9      180.000000        4.285565         2    ;  uncertainty k = 0.541131
        24        20        19        50     9        0.000000        1.126047         3    ;  uncertainty k = 0.359169
        24        20        19        50     9      180.000000        0.200397         4    ;  uncertainty k = 0.127762
        24        20        21        51     9        0.000000        0.337819         1    ;  uncertainty k = 0.998519
        24        20        21        51     9      180.000000        7.392009         2    ;  uncertainty k = 0.385666
        24        20        21        51     9        0.000000        1.061985         3    ;  uncertainty k = 0.365240
        24        20        21        51     9      180.000000        0.171584         4    ;  uncertainty k = 0.281011
        24        23        22        52     9        0.000000       -0.095582         1    ;  uncertainty k = 0.393922
        24        23        22        52     9      180.000000       14.177386         2    ;  uncertainty k = 0.352375
        24        23        22        52     9        0.000000        1.588169         3    ;  uncertainty k = 0.688228
        24        23        22        52     9      180.000000        0.904862         4    ;  uncertainty k = 0.448977
        24        25        26        27     9        0.000000        7.039560         1    ;  uncertainty k = 0.599172
        24        25        26        27     9      180.000000        8.681780         2    ;  uncertainty k = 0.097888
        24        25        26        27     9        0.000000        0.920443         3    ;  uncertainty k = 0.381758
        24        25        26        27     9      180.000000       -0.164554         4    ;  uncertainty k = 0.221364
        24        25        26        53     9        0.000000        5.299480         1    ;  uncertainty k = 1.071663
        24        25        26        53     9      180.000000        6.121002         2    ;  uncertainty k = 0.320628
        24        25        26        53     9        0.000000        1.371092         3    ;  uncertainty k = 0.426495
        24        25        26        53     9      180.000000       -0.017305         4    ;  uncertainty k = 0.216319
        25        26        27        28     9        0.000000        1.717569         1    ;  uncertainty k = 0.660148
        25        26        27        28     9      180.000000        5.521742         2    ;  uncertainty k = 0.179950
        25        26        27        28     9        0.000000        0.912155         3    ;  uncertainty k = 0.268356
        25        26        27        28     9      180.000000        0.224590         4    ;  uncertainty k = 0.108909
        25        26        27        36     9        0.000000        1.597951         1    ;  uncertainty k = 0.980883
        25        26        27        36     9      180.000000        5.574007         2    ;  uncertainty k = 0.231879
        25        26        27        36     9        0.000000        0.917734         3    ;  uncertainty k = 0.237919
        25        26        27        36     9      180.000000        0.218590         4    ;  uncertainty k = 0.147860
        26        27        28        29     9        0.000000        0.058897         1    ;  uncertainty k = 0.517001
        26        27        28        29     9      180.000000        9.907040         2    ;  uncertainty k = 0.506714
        26        27        28        29     9        0.000000        0.979238         3    ;  uncertainty k = 0.327123
        26        27        28        29     9      180.000000        1.580945         4    ;  uncertainty k = 0.224706
        26        27        28        54     9        0.000000       -0.291936         1    ;  uncertainty k = 0.233188
        26        27        28        54     9      180.000000        7.944709         2    ;  uncertainty k = 0.164351
        26        27        28        54     9        0.000000        0.918005         3    ;  uncertainty k = 0.228756
        26        27        28        54     9      180.000000        1.083856         4    ;  uncertainty k = 0.164908
        26        27        36        33     9        0.000000        0.148911         1    ;  uncertainty k = 0.574989
        26        27        36        33     9      180.000000        9.899586         2    ;  uncertainty k = 0.247386
        26        27        36        33     9        0.000000        1.000997         3    ;  uncertainty k = 0.351814
        26        27        36        33     9      180.000000        1.610986         4    ;  uncertainty k = 0.137508
        26        27        36        62     9        0.000000       -0.272932         1    ;  uncertainty k = 0.329124
        26        27        36        62     9      180.000000        7.865304         2    ;  uncertainty k = 0.242077
        26        27        36        62     9        0.000000        0.914516         3    ;  uncertainty k = 0.283704
        26        27        36        62     9      180.000000        1.068015         4    ;  uncertainty k = 0.243003
        27        26        25        37     9        0.000000        4.371474         1    ;  uncertainty k = 1.288135
        27        26        25        37     9      180.000000       10.778641         2    ;  uncertainty k = 0.228701
        27        26        25        37     9        0.000000        0.680674         3    ;  uncertainty k = 0.311324
        27        26        25        37     9      180.000000       -0.507605         4    ;  uncertainty k = 0.056382
        27        28        29        30     9        0.000000        0.022057         1    ;  uncertainty k = 0.194404
        27        28        29        30     9      180.000000       12.959077         2    ;  uncertainty k = 0.175269
        27        28        29        30     9        0.000000       -0.661283         3    ;  uncertainty k = 0.452962
        27        28        29        30     9      180.000000        0.977500         4    ;  uncertainty k = 0.267395
        27        28        29        55     9        0.000000       -0.099822         1    ;  uncertainty k = 0.241524
        27        28        29        55     9      180.000000        7.800451         2    ;  uncertainty k = 0.321388
        27        28        29        55     9        0.000000        1.212039         3    ;  uncertainty k = 0.364603
        27        28        29        55     9      180.000000        1.643101         4    ;  uncertainty k = 0.155684
        27        36        33        30     9        0.000000        0.071801         1    ;  uncertainty k = 0.106892
        27        36        33        30     9      180.000000        8.578018         2    ;  uncertainty k = 0.448413
        27        36        33        30     9        0.000000        0.405195         3    ;  uncertainty k = 0.328172
        27        36        33        30     9      180.000000        1.390162         4    ;  uncertainty k = 0.291061
        27        36        33        34     9        0.000000        0.152072         1    ;  uncertainty k = 0.236866
        27        36        33        34     9      180.000000       11.350407         2    ;  uncertainty k = 0.544002
        27        36        33        34     9        0.000000        1.355670         3    ;  uncertainty k = 0.349765
        27        36        33        34     9      180.000000        1.696486         4    ;  uncertainty k = 0.237430
        28        27        26        53     9        0.000000        2.355177         1    ;  uncertainty k = 0.449211
        28        27        26        53     9      180.000000        4.348203         2    ;  uncertainty k = 0.302695
        28        27        26        53     9        0.000000        0.613845         3    ;  uncertainty k = 0.145998
        28        27        26        53     9      180.000000        0.455801         4    ;  uncertainty k = 0.028343
        28        27        36        33     9        0.000000        0.019455         1    ;  uncertainty k = 0.133756
        28        27        36        33     9      180.000000        8.784467         2    ;  uncertainty k = 0.478984
        28        27        36        33     9        0.000000        0.119276         3    ;  uncertainty k = 0.283811
        28        27        36        33     9      180.000000        1.288078         4    ;  uncertainty k = 0.208848
        28        27        36        62     9        0.000000        0.155297         1    ;  uncertainty k = 0.281419
        28        27        36        62     9      180.000000        6.373830         2    ;  uncertainty k = 0.633801
        28        27        36        62     9        0.000000        1.253627         3    ;  uncertainty k = 0.220579
        28        27        36        62     9      180.000000        1.460767         4    ;  uncertainty k = 0.207379
        28        29        30        31     9        0.000000        0.075453         1    ;  uncertainty k = 0.391183
        28        29        30        31     9      180.000000       11.200366         2    ;  uncertainty k = 0.281956
        28        29        30        31     9        0.000000        1.350673         3    ;  uncertainty k = 0.315697
        28        29        30        31     9      180.000000        1.737822         4    ;  uncertainty k = 0.262819
        28        29        30        33     9        0.000000        0.085736         1    ;  uncertainty k = 0.237541
        28        29        30        33     9      180.000000        8.042171         2    ;  uncertainty k = 0.816839
        28        29        30        33     9        0.000000        0.289470         3    ;  uncertainty k = 0.178601
        28        29        30        33     9      180.000000        1.427392         4    ;  uncertainty k = 0.249188
        29        28        27        36     9        0.000000       -0.065843         1    ;  uncertainty k = 0.278585
        29        28        27        36     9      180.000000        9.979294         2    ;  uncertainty k = 0.397780
        29        28        27        36     9        0.000000       -0.194578         3    ;  uncertainty k = 0.190669
        29        28        27        36     9      180.000000        1.171069         4    ;  uncertainty k = 0.255361
        29        30        31        32     9        0.000000        1.161590         1    ;  uncertainty k = 0.424581
        29        30        31        32     9      180.000000        5.978609         2    ;  uncertainty k = 0.113714
        29        30        31        32     9        0.000000       -0.081692         3    ;  uncertainty k = 0.147719
        29        30        31        32     9      180.000000        0.002725         4    ;  uncertainty k = 0.132587
        29        30        33        34     9        0.000000        0.651705         1    ;  uncertainty k = 0.176594
        29        30        33        34     9      180.000000        7.590395         2    ;  uncertainty k = 0.603024
        29        30        33        34     9        0.000000        1.174713         3    ;  uncertainty k = 0.330890
        29        30        33        34     9      180.000000        1.724085         4    ;  uncertainty k = 0.232454
        29        30        33        36     9        0.000000       -0.246362         1    ;  uncertainty k = 0.323017
        29        30        33        36     9      180.000000        5.364288         2    ;  uncertainty k = 1.281070
        29        30        33        36     9        0.000000        0.277799         3    ;  uncertainty k = 0.286511
        29        30        33        36     9      180.000000        1.297118         4    ;  uncertainty k = 0.309451
        30        29        28        54     9        0.000000        0.089133         1    ;  uncertainty k = 0.324050
        30        29        28        54     9      180.000000        7.832724         2    ;  uncertainty k = 0.398222
        30        29        28        54     9        0.000000        1.298748         3    ;  uncertainty k = 0.324375
        30        29        28        54     9      180.000000        1.779744         4    ;  uncertainty k = 0.055929
        30        31        32        56     9        0.000000        1.112845         1    ;  uncertainty k = 0.103178
        30        31        32        56     9      180.000000       -2.022643         2    ;  uncertainty k = 0.082864
        30        31        32        56     9        0.000000        1.040478         3    ;  uncertainty k = 0.039004
        30        31        32        56     9      180.000000        0.229250         4    ;  uncertainty k = 0.034228
        30        31        32        57     9        0.000000        1.112845         1    ;  uncertainty k = 0.103178
        30        31        32        57     9      180.000000       -2.022643         2    ;  uncertainty k = 0.082864
        30        31        32        57     9        0.000000        1.040478         3    ;  uncertainty k = 0.039004
        30        31        32        57     9      180.000000        0.229250         4    ;  uncertainty k = 0.034228
        30        31        32        58     9        0.000000        1.112845         1    ;  uncertainty k = 0.103178
        30        31        32        58     9      180.000000       -2.022643         2    ;  uncertainty k = 0.082864
        30        31        32        58     9        0.000000        1.040478         3    ;  uncertainty k = 0.039004
        30        31        32        58     9      180.000000        0.229250         4    ;  uncertainty k = 0.034228
        30        33        34        35     9        0.000000        0.964834         1    ;  uncertainty k = 0.487891
        30        33        34        35     9      180.000000        5.588063         2    ;  uncertainty k = 0.185698
        30        33        34        35     9        0.000000        1.649424         3    ;  uncertainty k = 0.107621
        30        33        34        35     9      180.000000        0.043020         4    ;  uncertainty k = 0.050223
        30        33        36        62     9        0.000000        0.127330         1    ;  uncertainty k = 0.442114
        30        33        36        62     9      180.000000        6.705909         2    ;  uncertainty k = 0.374608
        30        33        36        62     9        0.000000        1.449706         3    ;  uncertainty k = 0.216502
        30        33        36        62     9      180.000000        1.651952         4    ;  uncertainty k = 0.099447
        31        30        29        55     9        0.000000       -0.165175         1    ;  uncertainty k = 0.217548
        31        30        29        55     9      180.000000        9.159951         2    ;  uncertainty k = 0.396818
        31        30        29        55     9        0.000000        0.851184         3    ;  uncertainty k = 0.126617
        31        30        29        55     9      180.000000        1.218800         4    ;  uncertainty k = 0.309716
        31        30        33        34     9        0.000000       -0.341457         1    ;  uncertainty k = 1.859912
        31        30        33        34     9      180.000000       13.064535         2    ;  uncertainty k = 0.569184
        31        30        33        34     9        0.000000        0.817588         3    ;  uncertainty k = 0.428631
        31        30        33        34     9      180.000000        1.204285         4    ;  uncertainty k = 0.526598
        31        30        33        36     9        0.000000        0.515556         1    ;  uncertainty k = 0.299237
        31        30        33        36     9      180.000000        7.954900         2    ;  uncertainty k = 0.736957
        31        30        33        36     9        0.000000        1.164308         3    ;  uncertainty k = 0.363484
        31        30        33        36     9      180.000000        1.614907         4    ;  uncertainty k = 0.248125
        32        31        30        33     9        0.000000        0.710051         1    ;  uncertainty k = 0.461814
        32        31        30        33     9      180.000000        5.168558         2    ;  uncertainty k = 0.168703
        32        31        30        33     9        0.000000        1.522737         3    ;  uncertainty k = 0.085019
        32        31        30        33     9      180.000000        0.086569         4    ;  uncertainty k = 0.079161
        33        30        29        55     9        0.000000       -0.032440         1    ;  uncertainty k = 0.368383
        33        30        29        55     9      180.000000        5.959630         2    ;  uncertainty k = 0.432855
        33        30        29        55     9        0.000000        1.321132         3    ;  uncertainty k = 0.261790
        33        30        29        55     9      180.000000        1.598350         4    ;  uncertainty k = 0.068541
        33        34        35        59     9        0.000000        1.110243         1    ;  uncertainty k = 0.221947
        33        34        35        59     9      180.000000       -2.083405         2    ;  uncertainty k = 0.117430
        33        34        35        59     9        0.000000        1.033193         3    ;  uncertainty k = 0.049822
        33        34        35        59     9      180.000000        0.223293         4    ;  uncertainty k = 0.039928
        33        34        35        60     9        0.000000        1.110243         1    ;  uncertainty k = 0.221947
        33        34        35        60     9      180.000000       -2.083405         2    ;  uncertainty k = 0.117430
        33        34        35        60     9        0.000000        1.033193         3    ;  uncertainty k = 0.049822
        33        34        35        60     9      180.000000        0.223293         4    ;  uncertainty k = 0.039928
        33        34        35        61     9        0.000000        1.110243         1    ;  uncertainty k = 0.221947
        33        34        35        61     9      180.000000       -2.083405         2    ;  uncertainty k = 0.117430
        33        34        35        61     9        0.000000        1.033193         3    ;  uncertainty k = 0.049822
        33        34        35        61     9      180.000000        0.223293         4    ;  uncertainty k = 0.039928
        34        33        36        62     9        0.000000       -0.013363         1    ;  uncertainty k = 0.227813
        34        33        36        62     9      180.000000        9.629863         2    ;  uncertainty k = 0.341225
        34        33        36        62     9        0.000000        0.885574         3    ;  uncertainty k = 0.134168
        34        33        36        62     9      180.000000        1.294493         4    ;  uncertainty k = 0.314813
        35        34        33        36     9        0.000000        1.341408         1    ;  uncertainty k = 0.791976
        35        34        33        36     9      180.000000        6.361827         2    ;  uncertainty k = 0.220151
        35        34        33        36     9        0.000000       -0.225719         3    ;  uncertainty k = 0.095999
        35        34        33        36     9      180.000000        0.006632         4    ;  uncertainty k = 0.110606
        36        27        26        53     9        0.000000        3.766905         1    ;  uncertainty k = 0.282403
        36        27        26        53     9      180.000000        4.224137         2    ;  uncertainty k = 0.219472
        36        27        26        53     9        0.000000        0.731782         3    ;  uncertainty k = 0.239893
        36        27        26        53     9      180.000000        0.435986         4    ;  uncertainty k = 0.107234
        36        27        28        54     9        0.000000        0.060116         1    ;  uncertainty k = 0.285327
        36        27        28        54     9      180.000000        6.705138         2    ;  uncertainty k = 0.811644
        36        27        28        54     9        0.000000        1.254750         3    ;  uncertainty k = 0.282861
        36        27        28        54     9      180.000000        1.489479         4    ;  uncertainty k = 0.123485
        37        18        19        50     9        0.000000        0.400301         1    ;  uncertainty k = 0.999411
        37        18        19        50     9      180.000000       12.773516         2    ;  uncertainty k = 0.371019
        37        18        19        50     9        0.000000        1.630574         3    ;  uncertainty k = 0.622599
        37        18        19        50     9      180.000000        1.089831         4    ;  uncertainty k = 0.430455
        37        25        26        53     9        0.000000        8.922955         1    ;  uncertainty k = 0.590684
        37        25        26        53     9      180.000000        9.664258         2    ;  uncertainty k = 0.294391
        37        25        26        53     9        0.000000        1.087485         3    ;  uncertainty k = 0.311608
        37        25        26        53     9      180.000000       -0.057211         4    ;  uncertainty k = 0.149118
        38         8         7        44     9        0.000000        0.165886         1    ;  uncertainty k = 0.318981
        38         8         7        44     9      180.000000        6.964016         2    ;  uncertainty k = 0.487373
        38         8         7        44     9        0.000000        1.250058         3    ;  uncertainty k = 0.270128
        38         8         7        44     9      180.000000        1.473911         4    ;  uncertainty k = 0.190974
        38         8         9        45     9        0.000000        0.015178         1    ;  uncertainty k = 0.598600
        38         8         9        45     9      180.000000        4.993828         2    ;  uncertainty k = 0.259252
        38         8         9        45     9        0.000000        0.695733         3    ;  uncertainty k = 0.200159
        38         8         9        45     9      180.000000        0.235985         4    ;  uncertainty k = 0.073608
        39         5         6        43     9        0.000000        0.061214         1    ;  uncertainty k = 0.418042
        39         5         6        43     9      180.000000        6.921590         2    ;  uncertainty k = 0.473859
        39         5         6        43     9        0.000000        1.128867         3    ;  uncertainty k = 0.304817
        39         5         6        43     9      180.000000        1.586682         4    ;  uncertainty k = 0.211963
        43         6         7        44     9        0.000000       -0.248941         1    ;  uncertainty k = 0.398648
        43         6         7        44     9      180.000000        8.045735         2    ;  uncertainty k = 0.547880
        43         6         7        44     9        0.000000       -0.261470         3    ;  uncertainty k = 0.219544
        43         6         7        44     9      180.000000        0.404008         4    ;  uncertainty k = 0.207409
        46        13        14        47     9        0.000000       -0.184964         1    ;  uncertainty k = 0.269497
        46        13        14        47     9      180.000000        7.819209         2    ;  uncertainty k = 0.379674
        46        13        14        47     9        0.000000       -0.376881         3    ;  uncertainty k = 0.213324
        46        13        14        47     9      180.000000        0.166142         4    ;  uncertainty k = 0.144263
        47        14        15        48     9        0.000000       -0.168338         1    ;  uncertainty k = 0.209337
        47        14        15        48     9      180.000000        7.942595         2    ;  uncertainty k = 0.305248
        47        14        15        48     9        0.000000       -0.425408         3    ;  uncertainty k = 0.239929
        47        14        15        48     9      180.000000        0.154353         4    ;  uncertainty k = 0.150806
        51        21        22        52     9        0.000000       -0.311076         1    ;  uncertainty k = 0.492452
        51        21        22        52     9      180.000000        5.384358         2    ;  uncertainty k = 0.598236
        51        21        22        52     9        0.000000        1.243313         3    ;  uncertainty k = 0.430720
        51        21        22        52     9      180.000000        0.271791         4    ;  uncertainty k = 0.092255
        54        28        29        55     9        0.000000       -0.108356         1    ;  uncertainty k = 0.187629
        54        28        29        55     9      180.000000        7.451231         2    ;  uncertainty k = 0.478630
        54        28        29        55     9        0.000000       -0.297348         3    ;  uncertainty k = 0.298878
        54        28        29        55     9      180.000000        0.257401         4    ;  uncertainty k = 0.173209
        63        38        39        64     9        0.000000       -0.248940         1    ;  uncertainty k = 0.398649
        63        38        39        64     9      180.000000        8.045736         2    ;  uncertainty k = 0.547880
        63        38        39        64     9        0.000000       -0.261470         3    ;  uncertainty k = 0.219544
        63        38        39        64     9      180.000000        0.404008         4    ;  uncertainty k = 0.207409

[ dihedrals ] ; impropers
;       ai        aj        ak        al funct           phase               k        pn
         3         2         4         5     4      180.000000       53.340595         2    ;  uncertainty k = 0.018007
         3         4         5         2     4      180.000000       53.340595         2    ;  uncertainty k = 0.018007
         3         5         2         4     4      180.000000       53.340595         2    ;  uncertainty k = 0.018007
         5         3         6        39     4      180.000000        5.148679         2    ;  uncertainty k = 0.284555
         5         6        39         3     4      180.000000        5.148679         2    ;  uncertainty k = 0.284555
         5        39         3         6     4      180.000000        5.148679         2    ;  uncertainty k = 0.284555
         6         5         7        43     4      180.000000        5.462448         2    ;  uncertainty k = 0.134197
         6         7        43         5     4      180.000000        5.462448         2    ;  uncertainty k = 0.134197
         6        43         5         7     4      180.000000        5.462448         2    ;  uncertainty k = 0.134197
         7         6         8        44     4      180.000000        2.562720         2    ;  uncertainty k = 0.304203
         7         8        44         6     4      180.000000        2.562720         2    ;  uncertainty k = 0.304203
         7        44         6         8     4      180.000000        2.562720         2    ;  uncertainty k = 0.304203
         8         7         9        38     4      180.000000       18.967982         2    ;  uncertainty k = 0.121648
         8         9        38         7     4      180.000000       18.967982         2    ;  uncertainty k = 0.121648
         8        38         7         9     4      180.000000       18.967982         2    ;  uncertainty k = 0.121648
         9         8        10        45     4      180.000000        0.157076         2    ;  uncertainty k = 0.217157
         9        10        45         8     4      180.000000        0.157076         2    ;  uncertainty k = 0.217157
         9        45         8        10     4      180.000000        0.157076         2    ;  uncertainty k = 0.217157
        10         9        11        12     4      180.000000       52.715904         2    ;  uncertainty k = 0.035090
        10        11        12         9     4      180.000000       52.715904         2    ;  uncertainty k = 0.035090
        10        12         9        11     4      180.000000       52.715904         2    ;  uncertainty k = 0.035090
        12        10        13        17     4      180.000000        7.405496         2    ;  uncertainty k = 0.127914
        12        13        17        10     4      180.000000        7.405496         2    ;  uncertainty k = 0.127914
        12        17        10        13     4      180.000000        7.405496         2    ;  uncertainty k = 0.127914
        13        12        14        46     4      180.000000        4.336300         2    ;  uncertainty k = 0.147131
        13        14        46        12     4      180.000000        4.336300         2    ;  uncertainty k = 0.147131
        13        46        12        14     4      180.000000        4.336300         2    ;  uncertainty k = 0.147131
        14        13        15        47     4      180.000000        3.384208         2    ;  uncertainty k = 0.178258
        14        15        47        13     4      180.000000        3.384208         2    ;  uncertainty k = 0.178258
        14        47        13        15     4      180.000000        3.384208         2    ;  uncertainty k = 0.178258
        15        14        16        48     4      180.000000        4.456895         2    ;  uncertainty k = 0.077296
        15        16        48        14     4      180.000000        4.456895         2    ;  uncertainty k = 0.077296
        15        48        14        16     4      180.000000        4.456895         2    ;  uncertainty k = 0.077296
        16        15        17        18     4      180.000000       10.912962         2    ;  uncertainty k = 0.153895
        16        17        18        15     4      180.000000       10.912962         2    ;  uncertainty k = 0.153895
        16        18        15        17     4      180.000000       10.912962         2    ;  uncertainty k = 0.153895
        17        12        16        49     4      180.000000        4.458781         2    ;  uncertainty k = 0.241908
        17        16        49        12     4      180.000000        4.458781         2    ;  uncertainty k = 0.241908
        17        49        12        16     4      180.000000        4.458781         2    ;  uncertainty k = 0.241908
        18        16        19        37     4      180.000000       19.449386         2    ;  uncertainty k = 0.082010
        18        19        37        16     4      180.000000       19.449386         2    ;  uncertainty k = 0.082010
        18        37        16        19     4      180.000000       19.449386         2    ;  uncertainty k = 0.082010
        19        18        20        50     4      180.000000        1.395889         2    ;  uncertainty k = 1.170222
        19        20        50        18     4      180.000000        1.395889         2    ;  uncertainty k = 1.170222
        19        50        18        20     4      180.000000        1.395889         2    ;  uncertainty k = 1.170222
        20        19        21        24     4      180.000000        1.589328         2    ;  uncertainty k = 1.390533
        20        21        24        19     4      180.000000        1.589328         2    ;  uncertainty k = 1.390533
        20        24        19        21     4      180.000000        1.589328         2    ;  uncertainty k = 1.390533
        21        20        22        51     4      180.000000        0.105193         2    ;  uncertainty k = 0.235219
        21        22        51        20     4      180.000000        0.105193         2    ;  uncertainty k = 0.235219
        21        51        20        22     4      180.000000        0.105193         2    ;  uncertainty k = 0.235219
        22        21        23        52     4      180.000000        1.779605         2    ;  uncertainty k = 0.230154
        22        23        52        21     4      180.000000        1.779605         2    ;  uncertainty k = 0.230154
        22        52        21        23     4      180.000000        1.779605         2    ;  uncertainty k = 0.230154
        24        20        23        25     4      180.000000        2.165377         2    ;  uncertainty k = 0.627947
        24        23        25        20     4      180.000000        2.165377         2    ;  uncertainty k = 0.627947
        24        25        20        23     4      180.000000        2.165377         2    ;  uncertainty k = 0.627947
        25        24        26        37     4      180.000000       28.356143         2    ;  uncertainty k = 0.063061
        25        26        37        24     4      180.000000       28.356143         2    ;  uncertainty k = 0.063061
        25        37        24        26     4      180.000000       28.356143         2    ;  uncertainty k = 0.063061
        26        25        27        53     4      180.000000        1.622506         2    ;  uncertainty k = 0.666334
        26        27        53        25     4      180.000000        1.622506         2    ;  uncertainty k = 0.666334
        26        53        25        27     4      180.000000        1.622506         2    ;  uncertainty k = 0.666334
        27        26        28        36     4      180.000000       17.507521         2    ;  uncertainty k = 0.057196
        27        28        36        26     4      180.000000       17.507521         2    ;  uncertainty k = 0.057196
        27        36        26        28     4      180.000000       17.507521         2    ;  uncertainty k = 0.057196
        28        27        29        54     4      180.000000        2.607477         2    ;  uncertainty k = 0.379218
        28        29        54        27     4      180.000000        2.607477         2    ;  uncertainty k = 0.379218
        28        54        27        29     4      180.000000        2.607477         2    ;  uncertainty k = 0.379218
        29        28        30        55     4      180.000000        2.008332         2    ;  uncertainty k = 0.230962
        29        30        55        28     4      180.000000        2.008332         2    ;  uncertainty k = 0.230962
        29        55        28        30     4      180.000000        2.008332         2    ;  uncertainty k = 0.230962
        30        29        31        33     4      180.000000       15.206029         2    ;  uncertainty k = 0.074968
        30        31        33        29     4      180.000000       15.206029         2    ;  uncertainty k = 0.074968
        30        33        29        31     4      180.000000       15.206029         2    ;  uncertainty k = 0.074968
        33        30        34        36     4      180.000000       16.672265         2    ;  uncertainty k = 0.075717
        33        34        36        30     4      180.000000       16.672265         2    ;  uncertainty k = 0.075717
        33        36        30        34     4      180.000000       16.672265         2    ;  uncertainty k = 0.075717
        36        27        33        62     4      180.000000        1.689053         2    ;  uncertainty k = 0.529660
        36        33        62        27     4      180.000000        1.689053         2    ;  uncertainty k = 0.529660
        36        62        27        33     4      180.000000        1.689053         2    ;  uncertainty k = 0.529660
        38         8        39        63     4      180.000000        2.562718         2    ;  uncertainty k = 0.304203
        38        39        63         8     4      180.000000        2.562718         2    ;  uncertainty k = 0.304203
        38        63         8        39     4      180.000000        2.562718         2    ;  uncertainty k = 0.304203
        39         5        38        64     4      180.000000        5.462450         2    ;  uncertainty k = 0.134196
        39        38        64         5     4      180.000000        5.462450         2    ;  uncertainty k = 0.134196
        39        64         5        38     4      180.000000        5.462450         2    ;  uncertainty k = 0.134196

[ pairs ]
;       ai        aj funct
         1         4     1
         1         5     1
         2         6     1
         2        39     1
         3         7     1
         3        38     1
         3        40     1
         3        41     1
         3        42     1
         3        43     1
         3        64     1
         4         6     1
         4        39     1
         5         8     1
         5        44     1
         5        63     1
         6         9     1
         6        38     1
         6        64     1
         7        10     1
         7        39     1
         7        45     1
         7        63     1
         8        11     1
         8        12     1
         8        43     1
         8        64     1
         9        13     1
         9        17     1
         9        39     1
         9        44     1
         9        63     1
        10        14     1
        10        16     1
        10        38     1
        10        46     1
        10        49     1
        11        13     1
        11        17     1
        11        45     1
        12        15     1
        12        18     1
        12        45     1
        12        47     1
        13        16     1
        13        48     1
        13        49     1
        14        17     1
        14        18     1
        15        19     1
        15        37     1
        15        46     1
        15        49     1
        16        20     1
        16        25     1
        16        47     1
        16        50     1
        17        19     1
        17        37     1
        17        46     1
        17        48     1
        18        21     1
        18        24     1
        18        26     1
        18        48     1
        18        49     1
        19        22     1
        19        23     1
        19        25     1
        19        51     1
        20        26     1
        20        37     1
        20        52     1
        21        25     1
        21        50     1
        22        25     1
        23        26     1
        23        37     1
        23        51     1
        24        27     1
        24        50     1
        24        51     1
        24        52     1
        24        53     1
        25        28     1
        25        36     1
        26        29     1
        26        33     1
        26        54     1
        26        62     1
        27        30     1
        27        34     1
        27        37     1
        27        55     1
        28        31     1
        28        33     1
        28        53     1
        28        62     1
        29        32     1
        29        34     1
        29        36     1
        30        35     1
        30        54     1
        30        56     1
        30        57     1
        30        58     1
        30        62     1
        31        34     1
        31        36     1
        31        55     1
        32        33     1
        33        55     1
        33        59     1
        33        60     1
        33        61     1
        34        62     1
        35        36     1
        36        53     1
        36        54     1
        37        50     1
        37        53     1
        38        44     1
        38        45     1
        39        43     1
        43        44     1
        46        47     1
        47        48     1
        51        52     1
        54        55     1
        63        64     1
