; ITP file created by ByteFF-joint-25, 2026-02-17 09:41:39.545255

[ atomtypes ]
;name           bonded.type        at.num        mass        charge   ptype           sigma         epsilon
 c0bf                                   6      0.0000       0.00000       A     3.39774e-01     4.50890e-01    ;  uncertainty sigma = 0.000006, epsilon = 0.000514
 o1bf                                   8      0.0000       0.00000       A     3.15641e-01     3.03850e-01    ;  uncertainty sigma = 0.000015, epsilon = 0.000455
 c2bf                                   6      0.0000       0.00000       A     3.31526e-01     4.13474e-01    ;  uncertainty sigma = 0.000006, epsilon = 0.000721
 c3bf                                   6      0.0000       0.00000       A     3.31529e-01     4.13640e-01    ;  uncertainty sigma = 0.000005, epsilon = 0.000792
 c4bf                                   6      0.0000       0.00000       A     3.31525e-01     4.13354e-01    ;  uncertainty sigma = 0.000006, epsilon = 0.000662
 c5bf                                   6      0.0000       0.00000       A     3.31528e-01     4.13588e-01    ;  uncertainty sigma = 0.000010, epsilon = 0.000818
 n6bf                                   7      0.0000       0.00000       A     3.27852e-01     6.46169e-01    ;  uncertainty sigma = 0.000043, epsilon = 0.003219
 c7bf                                   6      0.0000       0.00000       A     3.31526e-01     4.13887e-01    ;  uncertainty sigma = 0.000017, epsilon = 0.001682
 n8bf                                   7      0.0000       0.00000       A     3.38464e-01     3.93259e-01    ;  uncertainty sigma = 0.000031, epsilon = 0.000673
 c9bf                                   6      0.0000       0.00000       A     3.31552e-01     4.13495e-01    ;  uncertainty sigma = 0.000024, epsilon = 0.000765
 c10bf                                  6      0.0000       0.00000       A     3.31560e-01     4.13634e-01    ;  uncertainty sigma = 0.000013, epsilon = 0.001540
 n11bf                                  7      0.0000       0.00000       A     3.20547e-01     8.53303e-01    ;  uncertainty sigma = 0.000017, epsilon = 0.000844
 c12bf                                  6      0.0000       0.00000       A     3.31503e-01     4.12978e-01    ;  uncertainty sigma = 0.000012, epsilon = 0.001136
 c13bf                                  6      0.0000       0.00000       A     3.31531e-01     4.13187e-01    ;  uncertainty sigma = 0.000008, epsilon = 0.000699
 n14bf                                  7      0.0000       0.00000       A     3.38427e-01     3.92895e-01    ;  uncertainty sigma = 0.000039, epsilon = 0.000415
 c15bf                                  6      0.0000       0.00000       A     3.31554e-01     4.12537e-01    ;  uncertainty sigma = 0.000015, epsilon = 0.000432
 c16bf                                  6      0.0000       0.00000       A     3.31487e-01     4.12757e-01    ;  uncertainty sigma = 0.000022, epsilon = 0.000898
 c17bf                                  6      0.0000       0.00000       A     3.31518e-01     4.13294e-01    ;  uncertainty sigma = 0.000007, epsilon = 0.000527
 c18bf                                  6      0.0000       0.00000       A     3.31520e-01     4.13230e-01    ;  uncertainty sigma = 0.000005, epsilon = 0.000770
 c19bf                                  6      0.0000       0.00000       A     3.31509e-01     4.13179e-01    ;  uncertainty sigma = 0.000008, epsilon = 0.000678
 o20bf                                  8      0.0000       0.00000       A     3.15615e-01     3.03304e-01    ;  uncertainty sigma = 0.000010, epsilon = 0.001131
 c21bf                                  6      0.0000       0.00000       A     3.39779e-01     4.50677e-01    ;  uncertainty sigma = 0.000005, epsilon = 0.000496
 c22bf                                  6      0.0000       0.00000       A     3.39749e-01     4.50610e-01    ;  uncertainty sigma = 0.000022, epsilon = 0.001318
 n23bf                                  7      0.0000       0.00000       A     3.27915e-01     6.45951e-01    ;  uncertainty sigma = 0.000061, epsilon = 0.002798
 c24bf                                  6      0.0000       0.00000       A     3.31542e-01     4.12708e-01    ;  uncertainty sigma = 0.000016, epsilon = 0.001157
 c25bf                                  6      0.0000       0.00000       A     3.31535e-01     4.13041e-01    ;  uncertainty sigma = 0.000011, epsilon = 0.000725
 c26bf                                  6      0.0000       0.00000       A     3.31516e-01     4.13129e-01    ;  uncertainty sigma = 0.000010, epsilon = 0.000957
 c27bf                                  6      0.0000       0.00000       A     3.31531e-01     4.13728e-01    ;  uncertainty sigma = 0.000008, epsilon = 0.001049
 o28bf                                  8      0.0000       0.00000       A     3.15636e-01     3.03949e-01    ;  uncertainty sigma = 0.000015, epsilon = 0.000670
 c29bf                                  6      0.0000       0.00000       A     3.39774e-01     4.50890e-01    ;  uncertainty sigma = 0.000006, epsilon = 0.000514
 h30bf                                  1      0.0000       0.00000       A     2.42205e-01     8.67538e-02    ;  uncertainty sigma = 0.000015, epsilon = 0.000624
 h31bf                                  1      0.0000       0.00000       A     2.42205e-01     8.67538e-02    ;  uncertainty sigma = 0.000015, epsilon = 0.000624
 h32bf                                  1      0.0000       0.00000       A     2.42205e-01     8.67538e-02    ;  uncertainty sigma = 0.000015, epsilon = 0.000624
 h33bf                                  1      0.0000       0.00000       A     2.62570e-01     6.70700e-02    ;  uncertainty sigma = 0.000012, epsilon = 0.000330
 h34bf                                  1      0.0000       0.00000       A     2.62564e-01     6.70248e-02    ;  uncertainty sigma = 0.000015, epsilon = 0.000426
 h35bf                                  1      0.0000       0.00000       A     1.10708e-01     4.06502e-02    ;  uncertainty sigma = 0.000118, epsilon = 0.000465
 h36bf                                  1      0.0000       0.00000       A     2.53612e-01     6.73649e-02    ;  uncertainty sigma = 0.000081, epsilon = 0.000889
 h37bf                                  1      0.0000       0.00000       A     2.53649e-01     6.68496e-02    ;  uncertainty sigma = 0.000023, epsilon = 0.000657
 h38bf                                  1      0.0000       0.00000       A     2.53645e-01     6.69492e-02    ;  uncertainty sigma = 0.000020, epsilon = 0.000834
 h39bf                                  1      0.0000       0.00000       A     2.62562e-01     6.71926e-02    ;  uncertainty sigma = 0.000010, epsilon = 0.000548
 h40bf                                  1      0.0000       0.00000       A     2.62564e-01     6.68227e-02    ;  uncertainty sigma = 0.000011, epsilon = 0.000583
 h41bf                                  1      0.0000       0.00000       A     2.42199e-01     8.69929e-02    ;  uncertainty sigma = 0.000027, epsilon = 0.000921
 h42bf                                  1      0.0000       0.00000       A     2.42199e-01     8.69929e-02    ;  uncertainty sigma = 0.000027, epsilon = 0.000921
 h43bf                                  1      0.0000       0.00000       A     2.42191e-01     8.70100e-02    ;  uncertainty sigma = 0.000032, epsilon = 0.000566
 h44bf                                  1      0.0000       0.00000       A     2.42191e-01     8.70100e-02    ;  uncertainty sigma = 0.000032, epsilon = 0.000566
 h45bf                                  1      0.0000       0.00000       A     1.10695e-01     4.09423e-02    ;  uncertainty sigma = 0.000090, epsilon = 0.001229
 h46bf                                  1      0.0000       0.00000       A     2.62559e-01     6.71594e-02    ;  uncertainty sigma = 0.000020, epsilon = 0.000538
 h47bf                                  1      0.0000       0.00000       A     2.62560e-01     6.71373e-02    ;  uncertainty sigma = 0.000017, epsilon = 0.000539
 h48bf                                  1      0.0000       0.00000       A     2.42205e-01     8.67538e-02    ;  uncertainty sigma = 0.000015, epsilon = 0.000624
 h49bf                                  1      0.0000       0.00000       A     2.42205e-01     8.67538e-02    ;  uncertainty sigma = 0.000015, epsilon = 0.000624
 h50bf                                  1      0.0000       0.00000       A     2.42205e-01     8.67538e-02    ;  uncertainty sigma = 0.000015, epsilon = 0.000624

[ moleculetype ]
;name             nrexcl
 MOL                   3

[ atoms ]
;       nr            type      resi   res      atom      cgnr      charge          mass ; qtot
         1            c0bf         1   UNL        c0         1     0.11960       12.0110 ; qtot    0.120
         2            o1bf         1   UNL        o1         2    -0.32010       15.9990 ; qtot   -0.201
         3            c2bf         1   UNL        c2         3     0.07584       12.0110 ; qtot   -0.125
         4            c3bf         1   UNL        c3         4    -0.15014       12.0110 ; qtot   -0.275
         5            c4bf         1   UNL        c4         5    -0.15106       12.0110 ; qtot   -0.426
         6            c5bf         1   UNL        c5         6     0.16694       12.0110 ; qtot   -0.259
         7            n6bf         1   UNL        n6         7    -0.73903       14.0070 ; qtot   -0.998
         8            c7bf         1   UNL        c7         8     0.75081       12.0110 ; qtot   -0.247
         9            n8bf         1   UNL        n8         9    -0.76982       14.0070 ; qtot   -1.017
        10            c9bf         1   UNL        c9        10     0.47607       12.0110 ; qtot   -0.541
        11           c10bf         1   UNL       c10        11    -0.21819       12.0110 ; qtot   -0.759
        12           n11bf         1   UNL       n11        12     0.05331       14.0070 ; qtot   -0.706
        13           c12bf         1   UNL       c12        13    -0.21243       12.0110 ; qtot   -0.918
        14           c13bf         1   UNL       c13        14     0.01175       12.0110 ; qtot   -0.906
        15           n14bf         1   UNL       n14        15    -0.27543       14.0070 ; qtot   -1.182
        16           c15bf         1   UNL       c15        16    -0.18460       12.0110 ; qtot   -1.366
        17           c16bf         1   UNL       c16        17    -0.11868       12.0110 ; qtot   -1.485
        18           c17bf         1   UNL       c17        18    -0.10409       12.0110 ; qtot   -1.589
        19           c18bf         1   UNL       c18        19    -0.13222       12.0110 ; qtot   -1.721
        20           c19bf         1   UNL       c19        20     0.09180       12.0110 ; qtot   -1.630
        21           o20bf         1   UNL       o20        21    -0.32665       15.9990 ; qtot   -1.956
        22           c21bf         1   UNL       c21        22     0.11818       12.0110 ; qtot   -1.838
        23           c22bf         1   UNL       c22        23     0.15170       12.0110 ; qtot   -1.686
        24           n23bf         1   UNL       n23        24    -0.72746       14.0070 ; qtot   -2.414
        25           c24bf         1   UNL       c24        25     0.06118       12.0110 ; qtot   -2.353
        26           c25bf         1   UNL       c25        26    -0.13112       12.0110 ; qtot   -2.484
        27           c26bf         1   UNL       c26        27    -0.20840       12.0110 ; qtot   -2.692
        28           c27bf         1   UNL       c27        28     0.11790       12.0110 ; qtot   -2.574
        29           o28bf         1   UNL       o28        29    -0.31927       15.9990 ; qtot   -2.894
        30           c29bf         1   UNL       c29        30     0.11995       12.0110 ; qtot   -2.774
        31           h30bf         1   UNL       h30        31     0.04337        1.0080 ; qtot   -2.730
        32           h31bf         1   UNL       h31        32     0.04337        1.0080 ; qtot   -2.687
        33           h32bf         1   UNL       h32        33     0.04337        1.0080 ; qtot   -2.644
        34           h33bf         1   UNL       h33        34     0.14091        1.0080 ; qtot   -2.503
        35           h34bf         1   UNL       h34        35     0.15302        1.0080 ; qtot   -2.350
        36           h35bf         1   UNL       h35        36     0.46165        1.0080 ; qtot   -1.888
        37           h36bf         1   UNL       h36        37     0.17436        1.0080 ; qtot   -1.714
        38           h37bf         1   UNL       h37        38     0.18619        1.0080 ; qtot   -1.527
        39           h38bf         1   UNL       h38        39     0.17120        1.0080 ; qtot   -1.356
        40           h39bf         1   UNL       h39        40     0.14773        1.0080 ; qtot   -1.208
        41           h40bf         1   UNL       h40        41     0.14998        1.0080 ; qtot   -1.059
        42           h41bf         1   UNL       h41        42     0.06254        1.0080 ; qtot   -0.996
        43           h42bf         1   UNL       h42        43     0.06254        1.0080 ; qtot   -0.933
        44           h43bf         1   UNL       h43        44     0.05308        1.0080 ; qtot   -0.880
        45           h44bf         1   UNL       h44        45     0.05308        1.0080 ; qtot   -0.827
        46           h45bf         1   UNL       h45        46     0.40060        1.0080 ; qtot   -0.427
        47           h46bf         1   UNL       h46        47     0.14093        1.0080 ; qtot   -0.286
        48           h47bf         1   UNL       h47        48     0.15565        1.0080 ; qtot   -0.130
        49           h48bf         1   UNL       h48        49     0.04337        1.0080 ; qtot   -0.087
        50           h49bf         1   UNL       h49        50     0.04337        1.0080 ; qtot   -0.043
        51           h50bf         1   UNL       h50        51     0.04335        1.0080 ; qtot   -0.000

[ bonds ]
;       ai        aj funct               r               k
         1         2     1        0.142504   247060.424561    ;  uncertainty r = 0.000030, k = 4.357279
         1        31     1        0.109559   311162.501807    ;  uncertainty r = 0.000020, k = 1.272505
         1        32     1        0.109559   311162.501807    ;  uncertainty r = 0.000020, k = 1.272505
         1        33     1        0.109559   311162.501807    ;  uncertainty r = 0.000020, k = 1.272505
         2         3     1        0.136892   321113.062012    ;  uncertainty r = 0.000059, k = 4.532937
         3         4     1        0.139488   349133.425439    ;  uncertainty r = 0.000031, k = 2.724656
         3        28     1        0.140227   349402.969629    ;  uncertainty r = 0.000054, k = 7.584627
         4         5     1        0.139369   369864.655127    ;  uncertainty r = 0.000071, k = 2.574425
         4        34     1        0.108705   336290.634375    ;  uncertainty r = 0.000024, k = 1.905467
         5         6     1        0.139713   352891.517529    ;  uncertainty r = 0.000095, k = 4.859039
         5        35     1        0.108700   336152.248779    ;  uncertainty r = 0.000031, k = 1.798265
         6         7     1        0.141333   346668.455957    ;  uncertainty r = 0.000119, k = 12.315044
         6        27     1        0.140236   355873.307031    ;  uncertainty r = 0.000083, k = 5.100092
         7         8     1        0.137988   330814.533252    ;  uncertainty r = 0.000224, k = 31.605630
         7        36     1        0.102091   426736.870264    ;  uncertainty r = 0.000039, k = 5.302920
         8         9     1        0.132299   443077.019531    ;  uncertainty r = 0.000191, k = 13.204157
         8        16     1        0.143016   286566.945654    ;  uncertainty r = 0.000095, k = 10.976562
         9        10     1        0.137526   259825.301904    ;  uncertainty r = 0.000218, k = 24.352294
        10        11     1        0.136966   380248.529004    ;  uncertainty r = 0.000113, k = 12.691481
        10        17     1        0.147172   265759.334473    ;  uncertainty r = 0.000170, k = 12.434915
        11        12     1        0.137882   325077.442871    ;  uncertainty r = 0.000063, k = 6.431296
        11        37     1        0.108486   340803.731104    ;  uncertainty r = 0.000071, k = 2.327724
        12        13     1        0.137812   342777.341064    ;  uncertainty r = 0.000099, k = 5.087994
        12        16     1        0.139016   307421.213135    ;  uncertainty r = 0.000151, k = 23.940608
        13        14     1        0.138713   413349.321582    ;  uncertainty r = 0.000044, k = 11.515297
        13        38     1        0.108153   341281.147363    ;  uncertainty r = 0.000029, k = 4.725641
        14        15     1        0.136694   264650.947314    ;  uncertainty r = 0.000104, k = 21.676776
        14        39     1        0.108374   336399.652295    ;  uncertainty r = 0.000052, k = 2.763004
        15        16     1        0.133277   447135.785547    ;  uncertainty r = 0.000097, k = 11.841721
        17        18     1        0.140188   345781.935205    ;  uncertainty r = 0.000036, k = 3.958198
        17        26     1        0.139942   354651.560645    ;  uncertainty r = 0.000092, k = 4.947692
        18        19     1        0.139224   369667.304346    ;  uncertainty r = 0.000060, k = 2.552472
        18        40     1        0.108668   333345.260791    ;  uncertainty r = 0.000017, k = 1.555949
        19        20     1        0.139564   357590.371191    ;  uncertainty r = 0.000088, k = 5.635301
        19        41     1        0.108805   336772.851611    ;  uncertainty r = 0.000015, k = 1.658769
        20        21     1        0.137668   315539.051611    ;  uncertainty r = 0.000105, k = 5.762476
        20        25     1        0.140852   345814.341797    ;  uncertainty r = 0.000058, k = 4.051983
        21        22     1        0.142910   255816.128955    ;  uncertainty r = 0.000057, k = 3.719599
        22        23     1        0.152130   215423.419092    ;  uncertainty r = 0.000043, k = 3.862699
        22        42     1        0.109627   309780.944189    ;  uncertainty r = 0.000035, k = 2.057389
        22        43     1        0.109627   309780.944189    ;  uncertainty r = 0.000035, k = 2.057389
        23        24     1        0.145592   275138.118799    ;  uncertainty r = 0.000061, k = 16.757176
        23        44     1        0.109866   307209.842480    ;  uncertainty r = 0.000011, k = 1.829543
        23        45     1        0.109866   307209.842480    ;  uncertainty r = 0.000011, k = 1.829543
        24        25     1        0.140626   339859.138965    ;  uncertainty r = 0.000192, k = 14.799983
        24        46     1        0.101394   416827.884473    ;  uncertainty r = 0.000047, k = 3.153831
        25        26     1        0.140169   359775.173047    ;  uncertainty r = 0.000098, k = 9.543285
        26        47     1        0.108884   336425.546924    ;  uncertainty r = 0.000064, k = 1.650135
        27        28     1        0.139270   345625.520410    ;  uncertainty r = 0.000054, k = 5.224456
        27        48     1        0.108746   339222.268994    ;  uncertainty r = 0.000057, k = 2.203703
        28        29     1        0.136641   322875.224707    ;  uncertainty r = 0.000095, k = 4.764590
        29        30     1        0.142472   247648.314355    ;  uncertainty r = 0.000036, k = 5.188422
        30        49     1        0.109559   311162.501807    ;  uncertainty r = 0.000020, k = 1.272491
        30        50     1        0.109559   311162.501807    ;  uncertainty r = 0.000020, k = 1.272497
        30        51     1        0.109559   311162.501807    ;  uncertainty r = 0.000020, k = 1.272491

[ angles ]
;       ai        aj        ak funct           theta             cth
         1         2         3     1      110.612503      514.276204    ;  uncertainty theta = 0.001142, k = 0.053109
         2         1        31     1      108.817703      445.633093    ;  uncertainty theta = 0.001397, k = 0.017155
         2         1        32     1      108.817703      445.633093    ;  uncertainty theta = 0.001397, k = 0.017155
         2         1        33     1      108.817703      445.633093    ;  uncertainty theta = 0.001397, k = 0.017155
         2         3         4     1      120.713829      429.663653    ;  uncertainty theta = 0.002887, k = 0.102450
         2         3        28     1      116.739212      371.002135    ;  uncertainty theta = 0.004292, k = 0.133275
         3         4         5     1      122.308617      511.833707    ;  uncertainty theta = 0.002874, k = 0.098838
         3         4        34     1      117.399475      269.501128    ;  uncertainty theta = 0.000644, k = 0.068639
         3        28        27     1      122.924828      372.294473    ;  uncertainty theta = 0.004880, k = 0.131595
         3        28        29     1      116.892052      375.388038    ;  uncertainty theta = 0.003912, k = 0.086739
         4         3        28     1      121.473427      368.904773    ;  uncertainty theta = 0.004194, k = 0.139265
         4         5         6     1      119.248634      497.970121    ;  uncertainty theta = 0.001680, k = 0.102369
         4         5        35     1      121.012962      296.103549    ;  uncertainty theta = 0.002653, k = 0.108838
         5         4        34     1      120.002708      276.762860    ;  uncertainty theta = 0.000635, k = 0.063553
         5         6         7     1      120.412048      523.951864    ;  uncertainty theta = 0.002787, k = 0.145671
         5         6        27     1      119.564781      370.288948    ;  uncertainty theta = 0.004616, k = 0.068311
         6         5        35     1      119.526833      271.877771    ;  uncertainty theta = 0.001413, k = 0.081499
         6         7         8     1      116.303787      381.015013    ;  uncertainty theta = 0.002927, k = 0.210540
         6         7        36     1      114.186111      355.760727    ;  uncertainty theta = 0.005751, k = 0.200139
         6        27        28     1      121.379723      503.759991    ;  uncertainty theta = 0.003678, k = 0.097545
         6        27        48     1      119.577965      269.429783    ;  uncertainty theta = 0.003301, k = 0.060634
         7         6        27     1      119.861717      533.495177    ;  uncertainty theta = 0.003869, k = 0.077420
         7         8         9     1      122.093460      743.912723    ;  uncertainty theta = 0.005955, k = 0.186993
         7         8        16     1      118.339066      493.433486    ;  uncertainty theta = 0.006804, k = 0.121645
         8         7        36     1      117.061234      430.294771    ;  uncertainty theta = 0.006370, k = 0.198641
         8         9        10     1      121.126122      436.480593    ;  uncertainty theta = 0.009430, k = 0.247652
         8        16        12     1      111.142784      333.997874    ;  uncertainty theta = 0.012736, k = 0.456018
         8        16        15     1      125.515465      293.447945    ;  uncertainty theta = 0.008643, k = 0.324339
         9         8        16     1      122.411903      559.581718    ;  uncertainty theta = 0.006082, k = 0.248184
         9        10        11     1      124.571388      546.966258    ;  uncertainty theta = 0.003313, k = 0.240052
         9        10        17     1      117.067299      447.426245    ;  uncertainty theta = 0.000959, k = 0.097044
        10        11        12     1      117.544655      532.867092    ;  uncertainty theta = 0.004503, k = 0.195414
        10        11        37     1      124.602928      233.037359    ;  uncertainty theta = 0.008659, k = 0.230362
        10        17        18     1      119.903809      412.293662    ;  uncertainty theta = 0.002464, k = 0.161747
        10        17        26     1      119.341248      391.969411    ;  uncertainty theta = 0.003063, k = 0.204703
        11        10        17     1      121.286972      379.546373    ;  uncertainty theta = 0.005418, k = 0.095670
        11        12        13     1      129.651398      428.742370    ;  uncertainty theta = 0.002325, k = 0.325404
        11        12        16     1      117.440002      429.448183    ;  uncertainty theta = 0.007494, k = 0.179672
        12        11        37     1      117.408119      315.442387    ;  uncertainty theta = 0.003544, k = 0.139193
        12        13        14     1      105.324829      767.668044    ;  uncertainty theta = 0.004981, k = 0.189091
        12        13        38     1      119.539230      282.399762    ;  uncertainty theta = 0.002926, k = 0.163945
        12        16        15     1      114.523727      791.406958    ;  uncertainty theta = 0.003446, k = 0.159720
        13        12        16     1      106.195152      846.636320    ;  uncertainty theta = 0.003800, k = 0.266753
        13        14        15     1      111.223167      865.900238    ;  uncertainty theta = 0.003390, k = 0.157111
        13        14        39     1      125.339584      238.965640    ;  uncertainty theta = 0.004247, k = 0.092338
        14        13        38     1      130.781433      240.351826    ;  uncertainty theta = 0.003258, k = 0.025086
        14        15        16     1      106.065872      820.721453    ;  uncertainty theta = 0.001716, k = 0.145916
        15        14        39     1      119.156937      297.238833    ;  uncertainty theta = 0.004129, k = 0.152925
        17        18        19     1      121.128128      528.759703    ;  uncertainty theta = 0.001900, k = 0.130699
        17        18        40     1      118.769821      270.370666    ;  uncertainty theta = 0.002871, k = 0.068175
        17        26        25     1      122.300865      510.923182    ;  uncertainty theta = 0.001889, k = 0.124426
        17        26        47     1      119.010025      271.108082    ;  uncertainty theta = 0.003738, k = 0.095990
        18        17        26     1      121.467529      421.558366    ;  uncertainty theta = 0.004529, k = 0.173650
        18        19        20     1      121.433395      510.908594    ;  uncertainty theta = 0.000188, k = 0.117969
        18        19        41     1      121.129395      277.814191    ;  uncertainty theta = 0.000803, k = 0.055689
        19        18        40     1      119.859207      292.736992    ;  uncertainty theta = 0.001625, k = 0.066187
        19        20        21     1      119.520836      542.049024    ;  uncertainty theta = 0.001099, k = 0.108758
        19        20        25     1      120.240524      378.695285    ;  uncertainty theta = 0.002914, k = 0.149753
        20        19        41     1      120.091347      281.410710    ;  uncertainty theta = 0.002792, k = 0.107715
        20        21        22     1      114.293358      459.718277    ;  uncertainty theta = 0.004241, k = 0.134991
        20        25        24     1      121.678017      477.728898    ;  uncertainty theta = 0.006484, k = 0.401467
        20        25        26     1      119.445717      371.706162    ;  uncertainty theta = 0.004724, k = 0.161534
        21        20        25     1      121.751404      479.345844    ;  uncertainty theta = 0.002759, k = 0.124169
        21        22        23     1      110.106323      708.015974    ;  uncertainty theta = 0.002834, k = 0.143117
        21        22        42     1      107.042458      473.148434    ;  uncertainty theta = 0.002310, k = 0.062802
        21        22        43     1      107.042458      473.148434    ;  uncertainty theta = 0.002310, k = 0.062802
        22        23        24     1      106.919495      729.351719    ;  uncertainty theta = 0.004309, k = 0.075468
        22        23        44     1      108.600098      414.347069    ;  uncertainty theta = 0.001167, k = 0.055423
        22        23        45     1      108.600098      414.347069    ;  uncertainty theta = 0.001167, k = 0.055423
        23        22        42     1      109.925392      408.632758    ;  uncertainty theta = 0.000777, k = 0.073188
        23        22        43     1      109.925392      408.632758    ;  uncertainty theta = 0.000777, k = 0.073188
        23        24        25     1      113.055847      408.013292    ;  uncertainty theta = 0.007318, k = 0.297045
        23        24        46     1      109.573013      353.876216    ;  uncertainty theta = 0.004971, k = 0.149928
        24        23        44     1      109.536339      459.750709    ;  uncertainty theta = 0.001623, k = 0.165334
        24        23        45     1      109.536339      459.750709    ;  uncertainty theta = 0.001623, k = 0.165334
        24        25        26     1      124.642654      559.957943    ;  uncertainty theta = 0.006264, k = 0.234511
        25        24        46     1      111.479050      378.157793    ;  uncertainty theta = 0.003539, k = 0.123750
        25        26        47     1      118.719833      281.863099    ;  uncertainty theta = 0.005378, k = 0.170810
        27        28        29     1      119.984230      446.391321    ;  uncertainty theta = 0.002825, k = 0.109279
        28        27        48     1      118.198837      267.442262    ;  uncertainty theta = 0.001362, k = 0.058522
        28        29        30     1      110.584335      514.931710    ;  uncertainty theta = 0.000760, k = 0.054259
        29        30        49     1      108.804810      446.467230    ;  uncertainty theta = 0.001256, k = 0.017592
        29        30        50     1      108.804810      446.467230    ;  uncertainty theta = 0.001256, k = 0.017592
        29        30        51     1      108.804810      446.467230    ;  uncertainty theta = 0.001256, k = 0.017592
        31         1        32     1      109.159256      331.008596    ;  uncertainty theta = 0.001734, k = 0.015289
        31         1        33     1      109.159256      331.008596    ;  uncertainty theta = 0.001734, k = 0.015289
        32         1        33     1      109.159256      331.008596    ;  uncertainty theta = 0.001734, k = 0.015289
        42        22        43     1      108.269875      321.942443    ;  uncertainty theta = 0.002313, k = 0.089785
        44        23        45     1      106.705994      314.413369    ;  uncertainty theta = 0.001861, k = 0.049042
        49        30        50     1      109.159256      331.008596    ;  uncertainty theta = 0.001734, k = 0.015290
        49        30        51     1      109.159256      331.008596    ;  uncertainty theta = 0.001734, k = 0.015290
        50        30        51     1      109.159256      331.008628    ;  uncertainty theta = 0.001734, k = 0.015290

[ dihedrals ] ; propers for gromacs 4.5 or higher, use funct 9
;       ai        aj        ak        al funct           phase               k        pn
         1         2         3         4     9        0.000000        1.161590         1    ;  uncertainty k = 0.424580
         1         2         3         4     9      180.000000        5.978609         2    ;  uncertainty k = 0.113714
         1         2         3         4     9        0.000000       -0.081692         3    ;  uncertainty k = 0.147719
         1         2         3         4     9      180.000000        0.002725         4    ;  uncertainty k = 0.132587
         1         2         3        28     9        0.000000        0.710048         1    ;  uncertainty k = 0.461814
         1         2         3        28     9      180.000000        5.168557         2    ;  uncertainty k = 0.168705
         1         2         3        28     9        0.000000        1.522737         3    ;  uncertainty k = 0.085019
         1         2         3        28     9      180.000000        0.086569         4    ;  uncertainty k = 0.079161
         2         3         4         5     9        0.000000        0.075453         1    ;  uncertainty k = 0.391184
         2         3         4         5     9      180.000000       11.200366         2    ;  uncertainty k = 0.281957
         2         3         4         5     9        0.000000        1.350673         3    ;  uncertainty k = 0.315697
         2         3         4         5     9      180.000000        1.737822         4    ;  uncertainty k = 0.262819
         2         3         4        34     9        0.000000       -0.165175         1    ;  uncertainty k = 0.217547
         2         3         4        34     9      180.000000        9.159951         2    ;  uncertainty k = 0.396817
         2         3         4        34     9        0.000000        0.851185         3    ;  uncertainty k = 0.126617
         2         3         4        34     9      180.000000        1.218800         4    ;  uncertainty k = 0.309716
         2         3        28        27     9        0.000000        0.515556         1    ;  uncertainty k = 0.299239
         2         3        28        27     9      180.000000        7.954903         2    ;  uncertainty k = 0.736958
         2         3        28        27     9        0.000000        1.164308         3    ;  uncertainty k = 0.363484
         2         3        28        27     9      180.000000        1.614907         4    ;  uncertainty k = 0.248125
         2         3        28        29     9        0.000000       -0.341456         1    ;  uncertainty k = 1.859913
         2         3        28        29     9      180.000000       13.064537         2    ;  uncertainty k = 0.569185
         2         3        28        29     9        0.000000        0.817588         3    ;  uncertainty k = 0.428631
         2         3        28        29     9      180.000000        1.204285         4    ;  uncertainty k = 0.526598
         3         2         1        31     9        0.000000        1.112847         1    ;  uncertainty k = 0.103175
         3         2         1        31     9      180.000000       -2.022644         2    ;  uncertainty k = 0.082864
         3         2         1        31     9        0.000000        1.040477         3    ;  uncertainty k = 0.039004
         3         2         1        31     9      180.000000        0.229250         4    ;  uncertainty k = 0.034227
         3         2         1        32     9        0.000000        1.112847         1    ;  uncertainty k = 0.103175
         3         2         1        32     9      180.000000       -2.022644         2    ;  uncertainty k = 0.082864
         3         2         1        32     9        0.000000        1.040477         3    ;  uncertainty k = 0.039004
         3         2         1        32     9      180.000000        0.229250         4    ;  uncertainty k = 0.034227
         3         2         1        33     9        0.000000        1.112847         1    ;  uncertainty k = 0.103175
         3         2         1        33     9      180.000000       -2.022644         2    ;  uncertainty k = 0.082864
         3         2         1        33     9        0.000000        1.040477         3    ;  uncertainty k = 0.039004
         3         2         1        33     9      180.000000        0.229250         4    ;  uncertainty k = 0.034227
         3         4         5         6     9        0.000000        0.022057         1    ;  uncertainty k = 0.194405
         3         4         5         6     9      180.000000       12.959076         2    ;  uncertainty k = 0.175269
         3         4         5         6     9        0.000000       -0.661284         3    ;  uncertainty k = 0.452963
         3         4         5         6     9      180.000000        0.977500         4    ;  uncertainty k = 0.267395
         3         4         5        35     9        0.000000        0.089133         1    ;  uncertainty k = 0.324049
         3         4         5        35     9      180.000000        7.832723         2    ;  uncertainty k = 0.398222
         3         4         5        35     9        0.000000        1.298747         3    ;  uncertainty k = 0.324375
         3         4         5        35     9      180.000000        1.779745         4    ;  uncertainty k = 0.055930
         3        28        27         6     9        0.000000        0.071802         1    ;  uncertainty k = 0.106893
         3        28        27         6     9      180.000000        8.578020         2    ;  uncertainty k = 0.448413
         3        28        27         6     9        0.000000        0.405195         3    ;  uncertainty k = 0.328173
         3        28        27         6     9      180.000000        1.390162         4    ;  uncertainty k = 0.291061
         3        28        27        48     9        0.000000        0.127329         1    ;  uncertainty k = 0.442115
         3        28        27        48     9      180.000000        6.705908         2    ;  uncertainty k = 0.374607
         3        28        27        48     9        0.000000        1.449705         3    ;  uncertainty k = 0.216502
         3        28        27        48     9      180.000000        1.651952         4    ;  uncertainty k = 0.099448
         3        28        29        30     9        0.000000        0.964833         1    ;  uncertainty k = 0.487894
         3        28        29        30     9      180.000000        5.588064         2    ;  uncertainty k = 0.185698
         3        28        29        30     9        0.000000        1.649424         3    ;  uncertainty k = 0.107622
         3        28        29        30     9      180.000000        0.043020         4    ;  uncertainty k = 0.050223
         4         3        28        27     9        0.000000       -0.246361         1    ;  uncertainty k = 0.323015
         4         3        28        27     9      180.000000        5.364289         2    ;  uncertainty k = 1.281071
         4         3        28        27     9        0.000000        0.277799         3    ;  uncertainty k = 0.286511
         4         3        28        27     9      180.000000        1.297118         4    ;  uncertainty k = 0.309451
         4         3        28        29     9        0.000000        0.651705         1    ;  uncertainty k = 0.176594
         4         3        28        29     9      180.000000        7.590394         2    ;  uncertainty k = 0.603024
         4         3        28        29     9        0.000000        1.174713         3    ;  uncertainty k = 0.330890
         4         3        28        29     9      180.000000        1.724084         4    ;  uncertainty k = 0.232454
         4         5         6         7     9        0.000000        0.058897         1    ;  uncertainty k = 0.517002
         4         5         6         7     9      180.000000        9.907040         2    ;  uncertainty k = 0.506714
         4         5         6         7     9        0.000000        0.979239         3    ;  uncertainty k = 0.327123
         4         5         6         7     9      180.000000        1.580944         4    ;  uncertainty k = 0.224706
         4         5         6        27     9        0.000000       -0.065841         1    ;  uncertainty k = 0.278588
         4         5         6        27     9      180.000000        9.979296         2    ;  uncertainty k = 0.397780
         4         5         6        27     9        0.000000       -0.194578         3    ;  uncertainty k = 0.190668
         4         5         6        27     9      180.000000        1.171069         4    ;  uncertainty k = 0.255361
         5         4         3        28     9        0.000000        0.085734         1    ;  uncertainty k = 0.237541
         5         4         3        28     9      180.000000        8.042168         2    ;  uncertainty k = 0.816838
         5         4         3        28     9        0.000000        0.289471         3    ;  uncertainty k = 0.178601
         5         4         3        28     9      180.000000        1.427392         4    ;  uncertainty k = 0.249188
         5         6         7         8     9        0.000000        1.717569         1    ;  uncertainty k = 0.660151
         5         6         7         8     9      180.000000        5.521741         2    ;  uncertainty k = 0.179949
         5         6         7         8     9        0.000000        0.912155         3    ;  uncertainty k = 0.268355
         5         6         7         8     9      180.000000        0.224590         4    ;  uncertainty k = 0.108908
         5         6         7        36     9        0.000000        2.355176         1    ;  uncertainty k = 0.449212
         5         6         7        36     9      180.000000        4.348203         2    ;  uncertainty k = 0.302695
         5         6         7        36     9        0.000000        0.613845         3    ;  uncertainty k = 0.145998
         5         6         7        36     9      180.000000        0.455801         4    ;  uncertainty k = 0.028343
         5         6        27        28     9        0.000000        0.019455         1    ;  uncertainty k = 0.133757
         5         6        27        28     9      180.000000        8.784468         2    ;  uncertainty k = 0.478984
         5         6        27        28     9        0.000000        0.119276         3    ;  uncertainty k = 0.283810
         5         6        27        28     9      180.000000        1.288078         4    ;  uncertainty k = 0.208847
         5         6        27        48     9        0.000000        0.155297         1    ;  uncertainty k = 0.281422
         5         6        27        48     9      180.000000        6.373831         2    ;  uncertainty k = 0.633801
         5         6        27        48     9        0.000000        1.253627         3    ;  uncertainty k = 0.220579
         5         6        27        48     9      180.000000        1.460767         4    ;  uncertainty k = 0.207379
         6         5         4        34     9        0.000000       -0.099823         1    ;  uncertainty k = 0.241524
         6         5         4        34     9      180.000000        7.800452         2    ;  uncertainty k = 0.321389
         6         5         4        34     9        0.000000        1.212039         3    ;  uncertainty k = 0.364603
         6         5         4        34     9      180.000000        1.643100         4    ;  uncertainty k = 0.155684
         6         7         8         9     9        0.000000        4.365590         1    ;  uncertainty k = 1.284017
         6         7         8         9     9      180.000000       10.791139         2    ;  uncertainty k = 0.230471
         6         7         8         9     9        0.000000        0.686869         3    ;  uncertainty k = 0.312207
         6         7         8         9     9      180.000000       -0.507667         4    ;  uncertainty k = 0.054192
         6         7         8        16     9        0.000000        7.039559         1    ;  uncertainty k = 0.599174
         6         7         8        16     9      180.000000        8.681781         2    ;  uncertainty k = 0.097887
         6         7         8        16     9        0.000000        0.920441         3    ;  uncertainty k = 0.381757
         6         7         8        16     9      180.000000       -0.164553         4    ;  uncertainty k = 0.221364
         6        27        28        29     9        0.000000        0.152072         1    ;  uncertainty k = 0.236865
         6        27        28        29     9      180.000000       11.350413         2    ;  uncertainty k = 0.544002
         6        27        28        29     9        0.000000        1.355669         3    ;  uncertainty k = 0.349766
         6        27        28        29     9      180.000000        1.696486         4    ;  uncertainty k = 0.237430
         7         6         5        35     9        0.000000       -0.291936         1    ;  uncertainty k = 0.233190
         7         6         5        35     9      180.000000        7.944711         2    ;  uncertainty k = 0.164350
         7         6         5        35     9        0.000000        0.918004         3    ;  uncertainty k = 0.228756
         7         6         5        35     9      180.000000        1.083856         4    ;  uncertainty k = 0.164907
         7         6        27        28     9        0.000000        0.148911         1    ;  uncertainty k = 0.574988
         7         6        27        28     9      180.000000        9.899588         2    ;  uncertainty k = 0.247388
         7         6        27        28     9        0.000000        1.000997         3    ;  uncertainty k = 0.351814
         7         6        27        28     9      180.000000        1.610986         4    ;  uncertainty k = 0.137508
         7         6        27        48     9        0.000000       -0.272934         1    ;  uncertainty k = 0.329125
         7         6        27        48     9      180.000000        7.865305         2    ;  uncertainty k = 0.242076
         7         6        27        48     9        0.000000        0.914516         3    ;  uncertainty k = 0.283703
         7         6        27        48     9      180.000000        1.068016         4    ;  uncertainty k = 0.243003
         7         8         9        10     9        0.000000        1.087993         1    ;  uncertainty k = 1.051960
         7         8         9        10     9      180.000000       17.978243         2    ;  uncertainty k = 0.461153
         7         8         9        10     9        0.000000        2.907706         3    ;  uncertainty k = 0.276387
         7         8         9        10     9      180.000000        1.658891         4    ;  uncertainty k = 0.301250
         7         8        16        12     9        0.000000       -0.953522         1    ;  uncertainty k = 0.960772
         7         8        16        12     9      180.000000        5.426483         2    ;  uncertainty k = 0.732995
         7         8        16        12     9        0.000000        0.463830         3    ;  uncertainty k = 0.276198
         7         8        16        12     9      180.000000        0.425035         4    ;  uncertainty k = 0.145521
         7         8        16        15     9        0.000000       -0.723785         1    ;  uncertainty k = 0.708754
         7         8        16        15     9      180.000000        4.584250         2    ;  uncertainty k = 1.077487
         7         8        16        15     9        0.000000        0.569780         3    ;  uncertainty k = 0.418447
         7         8        16        15     9      180.000000        0.322209         4    ;  uncertainty k = 0.225420
         8         7         6        27     9        0.000000        1.597949         1    ;  uncertainty k = 0.980885
         8         7         6        27     9      180.000000        5.574010         2    ;  uncertainty k = 0.231880
         8         7         6        27     9        0.000000        0.917733         3    ;  uncertainty k = 0.237919
         8         7         6        27     9      180.000000        0.218590         4    ;  uncertainty k = 0.147859
         8         9        10        11     9        0.000000        0.985689         1    ;  uncertainty k = 1.541724
         8         9        10        11     9      180.000000        5.460611         2    ;  uncertainty k = 1.444054
         8         9        10        11     9        0.000000        1.169062         3    ;  uncertainty k = 0.838033
         8         9        10        11     9      180.000000        0.502199         4    ;  uncertainty k = 0.531335
         8         9        10        17     9        0.000000        0.985816         1    ;  uncertainty k = 1.091946
         8         9        10        17     9      180.000000        8.863928         2    ;  uncertainty k = 0.904402
         8         9        10        17     9        0.000000        1.534322         3    ;  uncertainty k = 0.575661
         8         9        10        17     9      180.000000        0.421654         4    ;  uncertainty k = 0.354145
         8        16        12        11     9        0.000000       -0.067501         1    ;  uncertainty k = 0.936063
         8        16        12        11     9      180.000000        5.119795         2    ;  uncertainty k = 1.529719
         8        16        12        11     9        0.000000        1.366064         3    ;  uncertainty k = 0.465858
         8        16        12        11     9      180.000000        0.395997         4    ;  uncertainty k = 0.311948
         8        16        12        13     9        0.000000        0.340421         1    ;  uncertainty k = 0.792595
         8        16        12        13     9      180.000000        6.024515         2    ;  uncertainty k = 0.492566
         8        16        12        13     9        0.000000        0.209998         3    ;  uncertainty k = 0.527723
         8        16        12        13     9      180.000000        0.585310         4    ;  uncertainty k = 0.374830
         8        16        15        14     9        0.000000       -0.258736         1    ;  uncertainty k = 0.813751
         8        16        15        14     9      180.000000       16.417004         2    ;  uncertainty k = 0.455553
         8        16        15        14     9        0.000000        0.694004         3    ;  uncertainty k = 0.637623
         8        16        15        14     9      180.000000        1.345365         4    ;  uncertainty k = 0.597909
         9         8         7        36     9        0.000000        8.933603         1    ;  uncertainty k = 0.591170
         9         8         7        36     9      180.000000        9.674255         2    ;  uncertainty k = 0.292954
         9         8         7        36     9        0.000000        1.085023         3    ;  uncertainty k = 0.309254
         9         8         7        36     9      180.000000       -0.060329         4    ;  uncertainty k = 0.151618
         9         8        16        12     9        0.000000       -0.504024         1    ;  uncertainty k = 0.651786
         9         8        16        12     9      180.000000        6.012609         2    ;  uncertainty k = 0.716592
         9         8        16        12     9        0.000000       -0.361775         3    ;  uncertainty k = 0.316377
         9         8        16        12     9      180.000000        0.564756         4    ;  uncertainty k = 0.159616
         9         8        16        15     9        0.000000       -1.420614         1    ;  uncertainty k = 2.233000
         9         8        16        15     9      180.000000        4.477339         2    ;  uncertainty k = 0.591237
         9         8        16        15     9        0.000000        0.456520         3    ;  uncertainty k = 0.408587
         9         8        16        15     9      180.000000        0.387711         4    ;  uncertainty k = 0.295704
         9        10        11        12     9        0.000000        0.023988         1    ;  uncertainty k = 0.576984
         9        10        11        12     9      180.000000       21.342316         2    ;  uncertainty k = 0.619962
         9        10        11        12     9        0.000000        0.536597         3    ;  uncertainty k = 0.317748
         9        10        11        12     9      180.000000        0.526437         4    ;  uncertainty k = 0.521773
         9        10        11        37     9        0.000000        0.420060         1    ;  uncertainty k = 1.002433
         9        10        11        37     9      180.000000       12.813338         2    ;  uncertainty k = 0.370806
         9        10        11        37     9        0.000000        1.628678         3    ;  uncertainty k = 0.626098
         9        10        11        37     9      180.000000        1.084968         4    ;  uncertainty k = 0.441867
         9        10        17        18     9        0.000000       -0.442023         1    ;  uncertainty k = 1.285185
         9        10        17        18     9      180.000000        4.764436         2    ;  uncertainty k = 0.234295
         9        10        17        18     9        0.000000        0.425207         3    ;  uncertainty k = 0.165169
         9        10        17        18     9      180.000000        0.073948         4    ;  uncertainty k = 0.097942
         9        10        17        26     9        0.000000       -2.493857         1    ;  uncertainty k = 1.300011
         9        10        17        26     9      180.000000        4.945291         2    ;  uncertainty k = 0.198264
         9        10        17        26     9        0.000000        0.466579         3    ;  uncertainty k = 0.191702
         9        10        17        26     9      180.000000        0.130469         4    ;  uncertainty k = 0.086641
        10         9         8        16     9        0.000000       -0.082456         1    ;  uncertainty k = 2.198430
        10         9         8        16     9      180.000000       13.638513         2    ;  uncertainty k = 0.605313
        10         9         8        16     9        0.000000        2.507603         3    ;  uncertainty k = 0.846052
        10         9         8        16     9      180.000000        1.349972         4    ;  uncertainty k = 0.397065
        10        11        12        13     9        0.000000        0.413479         1    ;  uncertainty k = 1.486065
        10        11        12        13     9      180.000000        4.654921         2    ;  uncertainty k = 0.626730
        10        11        12        13     9        0.000000        0.726748         3    ;  uncertainty k = 0.331037
        10        11        12        13     9      180.000000        0.328713         4    ;  uncertainty k = 0.095517
        10        11        12        16     9        0.000000       -0.094280         1    ;  uncertainty k = 1.653270
        10        11        12        16     9      180.000000        6.303954         2    ;  uncertainty k = 0.517272
        10        11        12        16     9        0.000000       -0.853374         3    ;  uncertainty k = 0.837190
        10        11        12        16     9      180.000000        0.599500         4    ;  uncertainty k = 0.146722
        10        17        18        19     9        0.000000        0.011498         1    ;  uncertainty k = 0.245207
        10        17        18        19     9      180.000000        8.847169         2    ;  uncertainty k = 0.405922
        10        17        18        19     9        0.000000        1.134313         3    ;  uncertainty k = 0.268054
        10        17        18        19     9      180.000000        1.743373         4    ;  uncertainty k = 0.158010
        10        17        18        40     9        0.000000        0.000336         1    ;  uncertainty k = 0.166000
        10        17        18        40     9      180.000000        6.963979         2    ;  uncertainty k = 0.275330
        10        17        18        40     9        0.000000        0.674448         3    ;  uncertainty k = 0.197704
        10        17        18        40     9      180.000000        1.099808         4    ;  uncertainty k = 0.143863
        10        17        26        25     9        0.000000        0.181404         1    ;  uncertainty k = 0.260202
        10        17        26        25     9      180.000000        9.087228         2    ;  uncertainty k = 0.153649
        10        17        26        25     9        0.000000        1.240136         3    ;  uncertainty k = 0.184241
        10        17        26        25     9      180.000000        1.502221         4    ;  uncertainty k = 0.180588
        10        17        26        47     9        0.000000       -0.055611         1    ;  uncertainty k = 0.357470
        10        17        26        47     9      180.000000        7.228473         2    ;  uncertainty k = 0.248493
        10        17        26        47     9        0.000000        0.645093         3    ;  uncertainty k = 0.272803
        10        17        26        47     9      180.000000        1.057394         4    ;  uncertainty k = 0.268936
        11        10        17        18     9        0.000000       -0.046546         1    ;  uncertainty k = 0.246466
        11        10        17        18     9      180.000000        3.851774         2    ;  uncertainty k = 0.457185
        11        10        17        18     9        0.000000        0.762427         3    ;  uncertainty k = 0.169336
        11        10        17        18     9      180.000000       -0.360358         4    ;  uncertainty k = 0.152751
        11        10        17        26     9        0.000000        0.417620         1    ;  uncertainty k = 0.434909
        11        10        17        26     9      180.000000        3.691972         2    ;  uncertainty k = 0.433800
        11        10        17        26     9        0.000000        0.681470         3    ;  uncertainty k = 0.205012
        11        10        17        26     9      180.000000       -0.350116         4    ;  uncertainty k = 0.130891
        11        12        13        14     9        0.000000        0.235816         1    ;  uncertainty k = 1.271425
        11        12        13        14     9      180.000000        9.589390         2    ;  uncertainty k = 0.769503
        11        12        13        14     9        0.000000        0.417477         3    ;  uncertainty k = 0.753588
        11        12        13        14     9      180.000000        0.560076         4    ;  uncertainty k = 0.315873
        11        12        13        38     9        0.000000        0.581405         1    ;  uncertainty k = 1.268509
        11        12        13        38     9      180.000000        2.794502         2    ;  uncertainty k = 1.412428
        11        12        13        38     9        0.000000        1.233124         3    ;  uncertainty k = 0.396700
        11        12        13        38     9      180.000000        0.134685         4    ;  uncertainty k = 0.120182
        11        12        16        15     9        0.000000        0.326427         1    ;  uncertainty k = 0.556806
        11        12        16        15     9      180.000000        8.717461         2    ;  uncertainty k = 0.553352
        11        12        16        15     9        0.000000        0.454290         3    ;  uncertainty k = 0.402084
        11        12        16        15     9      180.000000        0.882202         4    ;  uncertainty k = 0.217822
        12        11        10        17     9        0.000000        0.616568         1    ;  uncertainty k = 0.282784
        12        11        10        17     9      180.000000       17.497570         2    ;  uncertainty k = 0.459320
        12        11        10        17     9        0.000000        1.901476         3    ;  uncertainty k = 0.445270
        12        11        10        17     9      180.000000        0.775046         4    ;  uncertainty k = 0.260282
        12        13        14        15     9        0.000000       -0.424259         1    ;  uncertainty k = 0.720471
        12        13        14        15     9      180.000000       21.948844         2    ;  uncertainty k = 0.272817
        12        13        14        15     9        0.000000       -9.453916         3    ;  uncertainty k = 0.408148
        12        13        14        15     9      180.000000        1.578950         4    ;  uncertainty k = 0.654473
        12        13        14        39     9        0.000000        0.427385         1    ;  uncertainty k = 0.828520
        12        13        14        39     9      180.000000       13.870598         2    ;  uncertainty k = 0.182398
        12        13        14        39     9        0.000000        1.815389         3    ;  uncertainty k = 0.320275
        12        13        14        39     9      180.000000        0.903574         4    ;  uncertainty k = 0.223948
        12        16        15        14     9        0.000000       -0.698106         1    ;  uncertainty k = 0.543243
        12        16        15        14     9      180.000000       23.970051         2    ;  uncertainty k = 0.495895
        12        16        15        14     9        0.000000      -11.206153         3    ;  uncertainty k = 1.161985
        12        16        15        14     9      180.000000        1.981051         4    ;  uncertainty k = 0.603215
        13        12        11        37     9        0.000000        1.217158         1    ;  uncertainty k = 1.228369
        13        12        11        37     9      180.000000        2.947603         2    ;  uncertainty k = 1.102774
        13        12        11        37     9        0.000000        1.031616         3    ;  uncertainty k = 0.514297
        13        12        11        37     9      180.000000        0.183690         4    ;  uncertainty k = 0.169835
        13        12        16        15     9        0.000000       -0.600194         1    ;  uncertainty k = 0.427509
        13        12        16        15     9      180.000000       12.032075         2    ;  uncertainty k = 0.540572
        13        12        16        15     9        0.000000       -4.884606         3    ;  uncertainty k = 1.243656
        13        12        16        15     9      180.000000        1.176890         4    ;  uncertainty k = 0.463084
        13        14        15        16     9        0.000000       -0.719371         1    ;  uncertainty k = 0.806440
        13        14        15        16     9      180.000000       16.306391         2    ;  uncertainty k = 0.372137
        13        14        15        16     9        0.000000       -5.546726         3    ;  uncertainty k = 0.784851
        13        14        15        16     9      180.000000        2.138755         4    ;  uncertainty k = 0.319469
        14        13        12        16     9        0.000000        0.425340         1    ;  uncertainty k = 0.911889
        14        13        12        16     9      180.000000       13.121731         2    ;  uncertainty k = 1.266973
        14        13        12        16     9        0.000000      -13.119121         3    ;  uncertainty k = 1.817832
        14        13        12        16     9      180.000000        1.693366         4    ;  uncertainty k = 0.377703
        15        14        13        38     9        0.000000       -0.210816         1    ;  uncertainty k = 0.409317
        15        14        13        38     9      180.000000       14.525462         2    ;  uncertainty k = 0.474526
        15        14        13        38     9        0.000000        1.399988         3    ;  uncertainty k = 0.472591
        15        14        13        38     9      180.000000        0.597840         4    ;  uncertainty k = 0.116226
        16         8         7        36     9        0.000000        5.299478         1    ;  uncertainty k = 1.071663
        16         8         7        36     9      180.000000        6.121003         2    ;  uncertainty k = 0.320629
        16         8         7        36     9        0.000000        1.371092         3    ;  uncertainty k = 0.426496
        16         8         7        36     9      180.000000       -0.017304         4    ;  uncertainty k = 0.216319
        16        12        11        37     9        0.000000        1.223729         1    ;  uncertainty k = 1.444460
        16        12        11        37     9      180.000000        4.301597         2    ;  uncertainty k = 0.541400
        16        12        11        37     9        0.000000        1.121892         3    ;  uncertainty k = 0.352013
        16        12        11        37     9      180.000000        0.198214         4    ;  uncertainty k = 0.126890
        16        12        13        38     9        0.000000        0.337817         1    ;  uncertainty k = 0.998522
        16        12        13        38     9      180.000000        7.392009         2    ;  uncertainty k = 0.385665
        16        12        13        38     9        0.000000        1.061986         3    ;  uncertainty k = 0.365239
        16        12        13        38     9      180.000000        0.171583         4    ;  uncertainty k = 0.281010
        16        15        14        39     9        0.000000       -0.095585         1    ;  uncertainty k = 0.393922
        16        15        14        39     9      180.000000       14.177386         2    ;  uncertainty k = 0.352374
        16        15        14        39     9        0.000000        1.588169         3    ;  uncertainty k = 0.688227
        16        15        14        39     9      180.000000        0.904862         4    ;  uncertainty k = 0.448977
        17        10        11        37     9        0.000000       -0.217106         1    ;  uncertainty k = 0.369060
        17        10        11        37     9      180.000000        9.294790         2    ;  uncertainty k = 0.463383
        17        10        11        37     9        0.000000        1.510051         3    ;  uncertainty k = 0.279351
        17        10        11        37     9      180.000000        0.987368         4    ;  uncertainty k = 0.112404
        17        18        19        20     9        0.000000        0.026533         1    ;  uncertainty k = 0.234567
        17        18        19        20     9      180.000000       13.397728         2    ;  uncertainty k = 0.320499
        17        18        19        20     9        0.000000       -0.558057         3    ;  uncertainty k = 0.609190
        17        18        19        20     9      180.000000        0.955897         4    ;  uncertainty k = 0.277224
        17        18        19        41     9        0.000000        0.168594         1    ;  uncertainty k = 0.051382
        17        18        19        41     9      180.000000        7.780318         2    ;  uncertainty k = 0.339291
        17        18        19        41     9        0.000000        1.486182         3    ;  uncertainty k = 0.235866
        17        18        19        41     9      180.000000        1.860691         4    ;  uncertainty k = 0.159847
        17        26        25        20     9        0.000000        0.128888         1    ;  uncertainty k = 0.511700
        17        26        25        20     9      180.000000        7.495635         2    ;  uncertainty k = 0.757556
        17        26        25        20     9        0.000000        0.371925         3    ;  uncertainty k = 0.402909
        17        26        25        20     9      180.000000        1.317883         4    ;  uncertainty k = 0.328237
        17        26        25        24     9        0.000000        0.044814         1    ;  uncertainty k = 0.246474
        17        26        25        24     9      180.000000        9.590958         2    ;  uncertainty k = 0.434903
        17        26        25        24     9        0.000000        1.295882         3    ;  uncertainty k = 0.199074
        17        26        25        24     9      180.000000        1.709476         4    ;  uncertainty k = 0.162666
        18        17        26        25     9        0.000000        0.048809         1    ;  uncertainty k = 0.223009
        18        17        26        25     9      180.000000       11.183005         2    ;  uncertainty k = 0.422223
        18        17        26        25     9        0.000000       -0.362056         3    ;  uncertainty k = 0.432338
        18        17        26        25     9      180.000000        1.022931         4    ;  uncertainty k = 0.295114
        18        17        26        47     9        0.000000        0.167654         1    ;  uncertainty k = 0.134331
        18        17        26        47     9      180.000000        6.905748         2    ;  uncertainty k = 0.296973
        18        17        26        47     9        0.000000        1.389314         3    ;  uncertainty k = 0.193220
        18        17        26        47     9      180.000000        1.630620         4    ;  uncertainty k = 0.172191
        18        19        20        21     9        0.000000        0.265940         1    ;  uncertainty k = 0.212299
        18        19        20        21     9      180.000000       11.230269         2    ;  uncertainty k = 0.305737
        18        19        20        21     9        0.000000        1.669607         3    ;  uncertainty k = 0.359415
        18        19        20        21     9      180.000000        1.693763         4    ;  uncertainty k = 0.064811
        18        19        20        25     9        0.000000       -0.038604         1    ;  uncertainty k = 0.193700
        18        19        20        25     9      180.000000        8.539472         2    ;  uncertainty k = 0.554296
        18        19        20        25     9        0.000000       -0.113400         3    ;  uncertainty k = 0.430283
        18        19        20        25     9      180.000000        1.158728         4    ;  uncertainty k = 0.237491
        19        18        17        26     9        0.000000       -0.090848         1    ;  uncertainty k = 0.248683
        19        18        17        26     9      180.000000       11.624191         2    ;  uncertainty k = 0.285468
        19        18        17        26     9        0.000000       -0.547909         3    ;  uncertainty k = 0.342456
        19        18        17        26     9      180.000000        0.984582         4    ;  uncertainty k = 0.263532
        19        20        21        22     9        0.000000       -0.643186         1    ;  uncertainty k = 0.489420
        19        20        21        22     9      180.000000        2.909393         2    ;  uncertainty k = 0.292143
        19        20        21        22     9        0.000000        0.494816         3    ;  uncertainty k = 0.184188
        19        20        21        22     9      180.000000        0.120176         4    ;  uncertainty k = 0.156038
        19        20        25        24     9        0.000000        0.243896         1    ;  uncertainty k = 0.347284
        19        20        25        24     9      180.000000        6.374060         2    ;  uncertainty k = 0.399405
        19        20        25        24     9        0.000000        0.886126         3    ;  uncertainty k = 0.227269
        19        20        25        24     9      180.000000        1.454274         4    ;  uncertainty k = 0.165486
        19        20        25        26     9        0.000000       -0.213338         1    ;  uncertainty k = 0.794111
        19        20        25        26     9      180.000000        4.894933         2    ;  uncertainty k = 1.327442
        19        20        25        26     9        0.000000        0.357574         3    ;  uncertainty k = 0.471604
        19        20        25        26     9      180.000000        1.337024         4    ;  uncertainty k = 0.311076
        20        19        18        40     9        0.000000        0.108399         1    ;  uncertainty k = 0.306725
        20        19        18        40     9      180.000000        8.532174         2    ;  uncertainty k = 0.379735
        20        19        18        40     9        0.000000        1.245609         3    ;  uncertainty k = 0.297925
        20        19        18        40     9      180.000000        1.736562         4    ;  uncertainty k = 0.160723
        20        21        22        23     9        0.000000        1.585273         1    ;  uncertainty k = 1.750860
        20        21        22        23     9      180.000000       -1.833449         2    ;  uncertainty k = 1.161703
        20        21        22        23     9        0.000000       -0.092722         3    ;  uncertainty k = 0.251220
        20        21        22        23     9      180.000000        0.317549         4    ;  uncertainty k = 0.097398
        20        21        22        42     9        0.000000       -1.001353         1    ;  uncertainty k = 1.026571
        20        21        22        42     9      180.000000       -0.538299         2    ;  uncertainty k = 0.313998
        20        21        22        42     9        0.000000        0.822152         3    ;  uncertainty k = 0.238917
        20        21        22        42     9      180.000000        0.068992         4    ;  uncertainty k = 0.075428
        20        21        22        43     9        0.000000       -1.001353         1    ;  uncertainty k = 1.026571
        20        21        22        43     9      180.000000       -0.538299         2    ;  uncertainty k = 0.313998
        20        21        22        43     9        0.000000        0.822152         3    ;  uncertainty k = 0.238917
        20        21        22        43     9      180.000000        0.068992         4    ;  uncertainty k = 0.075428
        20        25        24        23     9        0.000000        4.798753         1    ;  uncertainty k = 2.244184
        20        25        24        23     9      180.000000        1.798459         2    ;  uncertainty k = 1.190750
        20        25        24        23     9        0.000000       -0.211578         3    ;  uncertainty k = 0.646112
        20        25        24        23     9      180.000000        0.378755         4    ;  uncertainty k = 0.164148
        20        25        24        46     9        0.000000        9.997457         1    ;  uncertainty k = 0.810041
        20        25        24        46     9      180.000000        4.464317         2    ;  uncertainty k = 0.996215
        20        25        24        46     9        0.000000        0.342197         3    ;  uncertainty k = 0.455296
        20        25        24        46     9      180.000000        0.229257         4    ;  uncertainty k = 0.149750
        20        25        26        47     9        0.000000        0.244306         1    ;  uncertainty k = 0.555751
        20        25        26        47     9      180.000000        6.163700         2    ;  uncertainty k = 0.464042
        20        25        26        47     9        0.000000        1.382173         3    ;  uncertainty k = 0.272812
        20        25        26        47     9      180.000000        1.511164         4    ;  uncertainty k = 0.155197
        21        20        19        41     9        0.000000       -0.119573         1    ;  uncertainty k = 0.602007
        21        20        19        41     9      180.000000        8.964262         2    ;  uncertainty k = 0.160847
        21        20        19        41     9        0.000000        0.900985         3    ;  uncertainty k = 0.324108
        21        20        19        41     9      180.000000        1.186980         4    ;  uncertainty k = 0.289143
        21        20        25        24     9        0.000000       -0.339770         1    ;  uncertainty k = 0.631781
        21        20        25        24     9      180.000000        7.667299         2    ;  uncertainty k = 0.791956
        21        20        25        24     9        0.000000        1.235767         3    ;  uncertainty k = 0.280613
        21        20        25        24     9      180.000000        1.291153         4    ;  uncertainty k = 0.366942
        21        20        25        26     9        0.000000        0.493822         1    ;  uncertainty k = 0.408344
        21        20        25        26     9      180.000000        6.944435         2    ;  uncertainty k = 0.461432
        21        20        25        26     9        0.000000        1.375336         3    ;  uncertainty k = 0.352166
        21        20        25        26     9      180.000000        1.628959         4    ;  uncertainty k = 0.228349
        21        22        23        24     9        0.000000        2.958486         1    ;  uncertainty k = 2.473901
        21        22        23        24     9      180.000000       -6.646745         2    ;  uncertainty k = 1.498110
        21        22        23        24     9        0.000000        3.133202         3    ;  uncertainty k = 0.572410
        21        22        23        24     9      180.000000       -0.097073         4    ;  uncertainty k = 0.187981
        21        22        23        44     9        0.000000        1.476101         1    ;  uncertainty k = 0.251122
        21        22        23        44     9      180.000000       -2.293424         2    ;  uncertainty k = 0.662519
        21        22        23        44     9        0.000000        0.941723         3    ;  uncertainty k = 0.327508
        21        22        23        44     9      180.000000        0.424124         4    ;  uncertainty k = 0.301225
        21        22        23        45     9        0.000000        1.476101         1    ;  uncertainty k = 0.251122
        21        22        23        45     9      180.000000       -2.293424         2    ;  uncertainty k = 0.662519
        21        22        23        45     9        0.000000        0.941723         3    ;  uncertainty k = 0.327508
        21        22        23        45     9      180.000000        0.424124         4    ;  uncertainty k = 0.301225
        22        21        20        25     9        0.000000        2.331022         1    ;  uncertainty k = 1.732290
        22        21        20        25     9      180.000000       -0.515667         2    ;  uncertainty k = 0.692927
        22        21        20        25     9        0.000000       -0.415685         3    ;  uncertainty k = 0.627936
        22        21        20        25     9      180.000000        0.519472         4    ;  uncertainty k = 0.267046
        22        23        24        25     9        0.000000       -2.749531         1    ;  uncertainty k = 0.784123
        22        23        24        25     9      180.000000        0.802611         2    ;  uncertainty k = 0.682227
        22        23        24        25     9        0.000000        0.231722         3    ;  uncertainty k = 0.108329
        22        23        24        25     9      180.000000        0.094544         4    ;  uncertainty k = 0.156116
        22        23        24        46     9        0.000000        0.598704         1    ;  uncertainty k = 1.024143
        22        23        24        46     9      180.000000       -3.377353         2    ;  uncertainty k = 0.533265
        22        23        24        46     9        0.000000        0.383653         3    ;  uncertainty k = 0.381387
        22        23        24        46     9      180.000000        0.111403         4    ;  uncertainty k = 0.150496
        23        24        25        26     9        0.000000       -0.985508         1    ;  uncertainty k = 1.540703
        23        24        25        26     9      180.000000        3.623041         2    ;  uncertainty k = 0.453734
        23        24        25        26     9        0.000000        0.017741         3    ;  uncertainty k = 0.356599
        23        24        25        26     9      180.000000        0.227280         4    ;  uncertainty k = 0.182223
        24        23        22        42     9        0.000000        2.656604         1    ;  uncertainty k = 1.609374
        24        23        22        42     9      180.000000       -2.266528         2    ;  uncertainty k = 0.697420
        24        23        22        42     9        0.000000        0.439792         3    ;  uncertainty k = 0.178020
        24        23        22        42     9      180.000000        0.351253         4    ;  uncertainty k = 0.171850
        24        23        22        43     9        0.000000        2.656604         1    ;  uncertainty k = 1.609374
        24        23        22        43     9      180.000000       -2.266528         2    ;  uncertainty k = 0.697420
        24        23        22        43     9        0.000000        0.439792         3    ;  uncertainty k = 0.178020
        24        23        22        43     9      180.000000        0.351253         4    ;  uncertainty k = 0.171850
        24        25        26        47     9        0.000000       -0.380645         1    ;  uncertainty k = 0.553482
        24        25        26        47     9      180.000000        7.797959         2    ;  uncertainty k = 0.311643
        24        25        26        47     9        0.000000        1.014282         3    ;  uncertainty k = 0.225679
        24        25        26        47     9      180.000000        1.280013         4    ;  uncertainty k = 0.318558
        25        20        19        41     9        0.000000        0.368517         1    ;  uncertainty k = 0.664550
        25        20        19        41     9      180.000000        6.361693         2    ;  uncertainty k = 0.466728
        25        20        19        41     9        0.000000        1.275789         3    ;  uncertainty k = 0.175496
        25        20        19        41     9      180.000000        1.298312         4    ;  uncertainty k = 0.037621
        25        24        23        44     9        0.000000       -1.635153         1    ;  uncertainty k = 1.178382
        25        24        23        44     9      180.000000       -0.410828         2    ;  uncertainty k = 0.228208
        25        24        23        44     9        0.000000        0.786542         3    ;  uncertainty k = 0.132458
        25        24        23        44     9      180.000000        0.301382         4    ;  uncertainty k = 0.133895
        25        24        23        45     9        0.000000       -1.635153         1    ;  uncertainty k = 1.178382
        25        24        23        45     9      180.000000       -0.410828         2    ;  uncertainty k = 0.228208
        25        24        23        45     9        0.000000        0.786542         3    ;  uncertainty k = 0.132458
        25        24        23        45     9      180.000000        0.301382         4    ;  uncertainty k = 0.133895
        26        17        18        40     9        0.000000        0.051621         1    ;  uncertainty k = 0.255838
        26        17        18        40     9      180.000000        6.853402         2    ;  uncertainty k = 0.512846
        26        17        18        40     9        0.000000        1.369662         3    ;  uncertainty k = 0.151646
        26        17        18        40     9      180.000000        1.632925         4    ;  uncertainty k = 0.231846
        26        25        24        46     9        0.000000        1.156032         1    ;  uncertainty k = 0.863974
        26        25        24        46     9      180.000000        4.708713         2    ;  uncertainty k = 0.514112
        26        25        24        46     9        0.000000        0.583251         3    ;  uncertainty k = 0.363301
        26        25        24        46     9      180.000000        0.071647         4    ;  uncertainty k = 0.213726
        27         6         5        35     9        0.000000        0.060116         1    ;  uncertainty k = 0.285327
        27         6         5        35     9      180.000000        6.705137         2    ;  uncertainty k = 0.811645
        27         6         5        35     9        0.000000        1.254749         3    ;  uncertainty k = 0.282861
        27         6         5        35     9      180.000000        1.489480         4    ;  uncertainty k = 0.123486
        27         6         7        36     9        0.000000        3.766903         1    ;  uncertainty k = 0.282406
        27         6         7        36     9      180.000000        4.224135         2    ;  uncertainty k = 0.219472
        27         6         7        36     9        0.000000        0.731781         3    ;  uncertainty k = 0.239894
        27         6         7        36     9      180.000000        0.435986         4    ;  uncertainty k = 0.107235
        27        28        29        30     9        0.000000        1.341409         1    ;  uncertainty k = 0.791973
        27        28        29        30     9      180.000000        6.361826         2    ;  uncertainty k = 0.220151
        27        28        29        30     9        0.000000       -0.225719         3    ;  uncertainty k = 0.095998
        27        28        29        30     9      180.000000        0.006631         4    ;  uncertainty k = 0.110606
        28         3         4        34     9        0.000000       -0.032441         1    ;  uncertainty k = 0.368382
        28         3         4        34     9      180.000000        5.959632         2    ;  uncertainty k = 0.432853
        28         3         4        34     9        0.000000        1.321132         3    ;  uncertainty k = 0.261791
        28         3         4        34     9      180.000000        1.598351         4    ;  uncertainty k = 0.068542
        28        29        30        49     9        0.000000        1.110243         1    ;  uncertainty k = 0.221947
        28        29        30        49     9      180.000000       -2.083404         2    ;  uncertainty k = 0.117430
        28        29        30        49     9        0.000000        1.033193         3    ;  uncertainty k = 0.049823
        28        29        30        49     9      180.000000        0.223294         4    ;  uncertainty k = 0.039928
        28        29        30        50     9        0.000000        1.110243         1    ;  uncertainty k = 0.221947
        28        29        30        50     9      180.000000       -2.083404         2    ;  uncertainty k = 0.117430
        28        29        30        50     9        0.000000        1.033193         3    ;  uncertainty k = 0.049823
        28        29        30        50     9      180.000000        0.223294         4    ;  uncertainty k = 0.039928
        28        29        30        51     9        0.000000        1.110243         1    ;  uncertainty k = 0.221947
        28        29        30        51     9      180.000000       -2.083404         2    ;  uncertainty k = 0.117430
        28        29        30        51     9        0.000000        1.033193         3    ;  uncertainty k = 0.049823
        28        29        30        51     9      180.000000        0.223294         4    ;  uncertainty k = 0.039928
        29        28        27        48     9        0.000000       -0.013362         1    ;  uncertainty k = 0.227812
        29        28        27        48     9      180.000000        9.629865         2    ;  uncertainty k = 0.341224
        29        28        27        48     9        0.000000        0.885574         3    ;  uncertainty k = 0.134168
        29        28        27        48     9      180.000000        1.294493         4    ;  uncertainty k = 0.314813
        34         4         5        35     9        0.000000       -0.108356         1    ;  uncertainty k = 0.187628
        34         4         5        35     9      180.000000        7.451232         2    ;  uncertainty k = 0.478631
        34         4         5        35     9        0.000000       -0.297348         3    ;  uncertainty k = 0.298879
        34         4         5        35     9      180.000000        0.257401         4    ;  uncertainty k = 0.173209
        38        13        14        39     9        0.000000       -0.311075         1    ;  uncertainty k = 0.492452
        38        13        14        39     9      180.000000        5.384358         2    ;  uncertainty k = 0.598235
        38        13        14        39     9        0.000000        1.243313         3    ;  uncertainty k = 0.430720
        38        13        14        39     9      180.000000        0.271791         4    ;  uncertainty k = 0.092256
        40        18        19        41     9        0.000000       -0.169093         1    ;  uncertainty k = 0.325875
        40        18        19        41     9      180.000000        7.557721         2    ;  uncertainty k = 0.308104
        40        18        19        41     9        0.000000       -0.306854         3    ;  uncertainty k = 0.277413
        40        18        19        41     9      180.000000        0.217620         4    ;  uncertainty k = 0.130393
        42        22        23        44     9        0.000000       -1.788362         1    ;  uncertainty k = 1.090243
        42        22        23        44     9      180.000000        1.599349         2    ;  uncertainty k = 0.613168
        42        22        23        44     9        0.000000        0.219211         3    ;  uncertainty k = 0.169235
        42        22        23        44     9      180.000000       -0.630102         4    ;  uncertainty k = 0.177237
        42        22        23        45     9        0.000000       -1.788362         1    ;  uncertainty k = 1.090243
        42        22        23        45     9      180.000000        1.599349         2    ;  uncertainty k = 0.613168
        42        22        23        45     9        0.000000        0.219211         3    ;  uncertainty k = 0.169235
        42        22        23        45     9      180.000000       -0.630102         4    ;  uncertainty k = 0.177237
        43        22        23        44     9        0.000000       -1.788362         1    ;  uncertainty k = 1.090243
        43        22        23        44     9      180.000000        1.599349         2    ;  uncertainty k = 0.613168
        43        22        23        44     9        0.000000        0.219211         3    ;  uncertainty k = 0.169235
        43        22        23        44     9      180.000000       -0.630102         4    ;  uncertainty k = 0.177237
        43        22        23        45     9        0.000000       -1.788362         1    ;  uncertainty k = 1.090243
        43        22        23        45     9      180.000000        1.599349         2    ;  uncertainty k = 0.613168
        43        22        23        45     9        0.000000        0.219211         3    ;  uncertainty k = 0.169235
        43        22        23        45     9      180.000000       -0.630102         4    ;  uncertainty k = 0.177237
        44        23        24        46     9        0.000000        0.961104         1    ;  uncertainty k = 0.388248
        44        23        24        46     9      180.000000       -1.356657         2    ;  uncertainty k = 0.347011
        44        23        24        46     9        0.000000        0.111537         3    ;  uncertainty k = 0.107302
        44        23        24        46     9      180.000000        0.095667         4    ;  uncertainty k = 0.052417
        45        23        24        46     9        0.000000        0.961104         1    ;  uncertainty k = 0.388248
        45        23        24        46     9      180.000000       -1.356657         2    ;  uncertainty k = 0.347011
        45        23        24        46     9        0.000000        0.111537         3    ;  uncertainty k = 0.107302
        45        23        24        46     9      180.000000        0.095667         4    ;  uncertainty k = 0.052417

[ dihedrals ] ; impropers
;       ai        aj        ak        al funct           phase               k        pn
         3         2         4        28     4      180.000000       15.206029         2    ;  uncertainty k = 0.074967
         3         4        28         2     4      180.000000       15.206029         2    ;  uncertainty k = 0.074967
         3        28         2         4     4      180.000000       15.206029         2    ;  uncertainty k = 0.074967
         4         3         5        34     4      180.000000        2.008335         2    ;  uncertainty k = 0.230964
         4         5        34         3     4      180.000000        2.008335         2    ;  uncertainty k = 0.230964
         4        34         3         5     4      180.000000        2.008335         2    ;  uncertainty k = 0.230964
         5         4         6        35     4      180.000000        2.607477         2    ;  uncertainty k = 0.379217
         5         6        35         4     4      180.000000        2.607477         2    ;  uncertainty k = 0.379217
         5        35         4         6     4      180.000000        2.607477         2    ;  uncertainty k = 0.379217
         6         5         7        27     4      180.000000       17.507517         2    ;  uncertainty k = 0.057196
         6         7        27         5     4      180.000000       17.507517         2    ;  uncertainty k = 0.057196
         6        27         5         7     4      180.000000       17.507517         2    ;  uncertainty k = 0.057196
         7         6         8        36     4      180.000000        1.622505         2    ;  uncertainty k = 0.666333
         7         8        36         6     4      180.000000        1.622505         2    ;  uncertainty k = 0.666333
         7        36         6         8     4      180.000000        1.622505         2    ;  uncertainty k = 0.666333
         8         7         9        16     4      180.000000       28.373181         2    ;  uncertainty k = 0.063953
         8         9        16         7     4      180.000000       28.373181         2    ;  uncertainty k = 0.063953
         8        16         7         9     4      180.000000       28.373181         2    ;  uncertainty k = 0.063953
        10         9        11        17     4      180.000000       19.132726         2    ;  uncertainty k = 0.076240
        10        11        17         9     4      180.000000       19.132726         2    ;  uncertainty k = 0.076240
        10        17         9        11     4      180.000000       19.132726         2    ;  uncertainty k = 0.076240
        11        10        12        37     4      180.000000        1.397413         2    ;  uncertainty k = 1.158641
        11        12        37        10     4      180.000000        1.397413         2    ;  uncertainty k = 1.158641
        11        37        10        12     4      180.000000        1.397413         2    ;  uncertainty k = 1.158641
        12        11        13        16     4      180.000000        1.571839         2    ;  uncertainty k = 1.396554
        12        13        16        11     4      180.000000        1.571839         2    ;  uncertainty k = 1.396554
        12        16        11        13     4      180.000000        1.571839         2    ;  uncertainty k = 1.396554
        13        12        14        38     4      180.000000        0.105195         2    ;  uncertainty k = 0.235223
        13        14        38        12     4      180.000000        0.105195         2    ;  uncertainty k = 0.235223
        13        38        12        14     4      180.000000        0.105195         2    ;  uncertainty k = 0.235223
        14        13        15        39     4      180.000000        1.779602         2    ;  uncertainty k = 0.230154
        14        15        39        13     4      180.000000        1.779602         2    ;  uncertainty k = 0.230154
        14        39        13        15     4      180.000000        1.779602         2    ;  uncertainty k = 0.230154
        16         8        12        15     4      180.000000        2.165379         2    ;  uncertainty k = 0.627946
        16        12        15         8     4      180.000000        2.165379         2    ;  uncertainty k = 0.627946
        16        15         8        12     4      180.000000        2.165379         2    ;  uncertainty k = 0.627946
        17        10        18        26     4      180.000000       10.605664         2    ;  uncertainty k = 0.247459
        17        18        26        10     4      180.000000       10.605664         2    ;  uncertainty k = 0.247459
        17        26        10        18     4      180.000000       10.605664         2    ;  uncertainty k = 0.247459
        18        17        19        40     4      180.000000        3.446609         2    ;  uncertainty k = 0.122784
        18        19        40        17     4      180.000000        3.446609         2    ;  uncertainty k = 0.122784
        18        40        17        19     4      180.000000        3.446609         2    ;  uncertainty k = 0.122784
        19        18        20        41     4      180.000000        1.967978         2    ;  uncertainty k = 0.302347
        19        20        41        18     4      180.000000        1.967978         2    ;  uncertainty k = 0.302347
        19        41        18        20     4      180.000000        1.967978         2    ;  uncertainty k = 0.302347
        20        19        21        25     4      180.000000       16.153654         2    ;  uncertainty k = 0.184511
        20        21        25        19     4      180.000000       16.153654         2    ;  uncertainty k = 0.184511
        20        25        19        21     4      180.000000       16.153654         2    ;  uncertainty k = 0.184511
        25        20        24        26     4      180.000000       16.998688         2    ;  uncertainty k = 0.109660
        25        24        26        20     4      180.000000       16.998688         2    ;  uncertainty k = 0.109660
        25        26        20        24     4      180.000000       16.998688         2    ;  uncertainty k = 0.109660
        26        17        25        47     4      180.000000        1.808377         2    ;  uncertainty k = 0.261642
        26        25        47        17     4      180.000000        1.808377         2    ;  uncertainty k = 0.261642
        26        47        17        25     4      180.000000        1.808377         2    ;  uncertainty k = 0.261642
        27         6        28        48     4      180.000000        1.689048         2    ;  uncertainty k = 0.529654
        27        28        48         6     4      180.000000        1.689048         2    ;  uncertainty k = 0.529654
        27        48         6        28     4      180.000000        1.689048         2    ;  uncertainty k = 0.529654
        28         3        27        29     4      180.000000       16.672261         2    ;  uncertainty k = 0.075717
        28        27        29         3     4      180.000000       16.672261         2    ;  uncertainty k = 0.075717
        28        29         3        27     4      180.000000       16.672261         2    ;  uncertainty k = 0.075717

[ pairs ]
;       ai        aj funct
         1         4     1
         1        28     1
         2         5     1
         2        27     1
         2        29     1
         2        34     1
         3         6     1
         3        30     1
         3        31     1
         3        32     1
         3        33     1
         3        35     1
         3        48     1
         4         7     1
         4        27     1
         4        29     1
         5         8     1
         5        28     1
         5        36     1
         5        48     1
         6         9     1
         6        16     1
         6        29     1
         6        34     1
         7        10     1
         7        12     1
         7        15     1
         7        28     1
         7        35     1
         7        48     1
         8        11     1
         8        13     1
         8        14     1
         8        17     1
         8        27     1
         9        12     1
         9        15     1
         9        18     1
         9        26     1
         9        36     1
         9        37     1
        10        13     1
        10        16     1
        10        19     1
        10        25     1
        10        40     1
        10        47     1
        11        14     1
        11        15     1
        11        18     1
        11        26     1
        11        38     1
        12        17     1
        12        39     1
        13        37     1
        15        38     1
        16        36     1
        16        37     1
        16        38     1
        16        39     1
        17        20     1
        17        24     1
        17        37     1
        17        41     1
        18        21     1
        18        25     1
        18        47     1
        19        22     1
        19        24     1
        19        26     1
        20        23     1
        20        40     1
        20        42     1
        20        43     1
        20        46     1
        20        47     1
        21        24     1
        21        26     1
        21        41     1
        21        44     1
        21        45     1
        22        25     1
        22        46     1
        23        26     1
        24        42     1
        24        43     1
        24        47     1
        25        41     1
        25        44     1
        25        45     1
        26        40     1
        26        46     1
        27        30     1
        27        35     1
        27        36     1
        28        34     1
        28        49     1
        28        50     1
        28        51     1
        29        48     1
        34        35     1
        38        39     1
        40        41     1
        42        44     1
        42        45     1
        43        44     1
        43        45     1
        44        46     1
        45        46     1
