; ITP file created by ByteFF-joint-25, 2026-02-17 09:41:28.453653

[ atomtypes ]
;name           bonded.type        at.num        mass        charge   ptype           sigma         epsilon
 c0bf                                   6      0.0000       0.00000       A     3.39774e-01     4.50890e-01    ;  uncertainty sigma = 0.000006, epsilon = 0.000514
 o1bf                                   8      0.0000       0.00000       A     3.15641e-01     3.03850e-01    ;  uncertainty sigma = 0.000015, epsilon = 0.000455
 c2bf                                   6      0.0000       0.00000       A     3.31526e-01     4.13474e-01    ;  uncertainty sigma = 0.000006, epsilon = 0.000721
 c3bf                                   6      0.0000       0.00000       A     3.31529e-01     4.13640e-01    ;  uncertainty sigma = 0.000005, epsilon = 0.000792
 c4bf                                   6      0.0000       0.00000       A     3.31525e-01     4.13354e-01    ;  uncertainty sigma = 0.000006, epsilon = 0.000662
 c5bf                                   6      0.0000       0.00000       A     3.31528e-01     4.13588e-01    ;  uncertainty sigma = 0.000010, epsilon = 0.000818
 n6bf                                   7      0.0000       0.00000       A     3.27852e-01     6.46169e-01    ;  uncertainty sigma = 0.000043, epsilon = 0.003219
 c7bf                                   6      0.0000       0.00000       A     3.31526e-01     4.13887e-01    ;  uncertainty sigma = 0.000017, epsilon = 0.001682
 n8bf                                   7      0.0000       0.00000       A     3.38464e-01     3.93282e-01    ;  uncertainty sigma = 0.000032, epsilon = 0.000680
 c9bf                                   6      0.0000       0.00000       A     3.31551e-01     4.13482e-01    ;  uncertainty sigma = 0.000026, epsilon = 0.000675
 c10bf                                  6      0.0000       0.00000       A     3.31561e-01     4.13642e-01    ;  uncertainty sigma = 0.000012, epsilon = 0.001524
 n11bf                                  7      0.0000       0.00000       A     3.20547e-01     8.53303e-01    ;  uncertainty sigma = 0.000017, epsilon = 0.000844
 c12bf                                  6      0.0000       0.00000       A     3.31503e-01     4.12978e-01    ;  uncertainty sigma = 0.000012, epsilon = 0.001136
 c13bf                                  6      0.0000       0.00000       A     3.31531e-01     4.13187e-01    ;  uncertainty sigma = 0.000008, epsilon = 0.000699
 n14bf                                  7      0.0000       0.00000       A     3.38427e-01     3.92895e-01    ;  uncertainty sigma = 0.000039, epsilon = 0.000415
 c15bf                                  6      0.0000       0.00000       A     3.31554e-01     4.12537e-01    ;  uncertainty sigma = 0.000015, epsilon = 0.000432
 c16bf                                  6      0.0000       0.00000       A     3.31491e-01     4.12724e-01    ;  uncertainty sigma = 0.000018, epsilon = 0.000767
 c17bf                                  6      0.0000       0.00000       A     3.31520e-01     4.13382e-01    ;  uncertainty sigma = 0.000007, epsilon = 0.000697
 c18bf                                  6      0.0000       0.00000       A     3.31518e-01     4.13131e-01    ;  uncertainty sigma = 0.000009, epsilon = 0.000815
 c19bf                                  6      0.0000       0.00000       A     3.31528e-01     4.12917e-01    ;  uncertainty sigma = 0.000011, epsilon = 0.000582
 n20bf                                  7      0.0000       0.00000       A     3.38430e-01     3.93629e-01    ;  uncertainty sigma = 0.000012, epsilon = 0.000867
 c21bf                                  6      0.0000       0.00000       A     3.31506e-01     4.13013e-01    ;  uncertainty sigma = 0.000012, epsilon = 0.001099
 n22bf                                  7      0.0000       0.00000       A     3.20578e-01     8.53409e-01    ;  uncertainty sigma = 0.000022, epsilon = 0.001125
 c23bf                                  6      0.0000       0.00000       A     3.31524e-01     4.13018e-01    ;  uncertainty sigma = 0.000008, epsilon = 0.000424
 c24bf                                  6      0.0000       0.00000       A     3.31523e-01     4.13136e-01    ;  uncertainty sigma = 0.000008, epsilon = 0.000757
 c25bf                                  6      0.0000       0.00000       A     3.31516e-01     4.13129e-01    ;  uncertainty sigma = 0.000010, epsilon = 0.000957
 c26bf                                  6      0.0000       0.00000       A     3.31531e-01     4.13728e-01    ;  uncertainty sigma = 0.000008, epsilon = 0.001049
 o27bf                                  8      0.0000       0.00000       A     3.15636e-01     3.03949e-01    ;  uncertainty sigma = 0.000015, epsilon = 0.000670
 c28bf                                  6      0.0000       0.00000       A     3.39774e-01     4.50890e-01    ;  uncertainty sigma = 0.000006, epsilon = 0.000514
 h29bf                                  1      0.0000       0.00000       A     2.42205e-01     8.67538e-02    ;  uncertainty sigma = 0.000015, epsilon = 0.000624
 h30bf                                  1      0.0000       0.00000       A     2.42205e-01     8.67538e-02    ;  uncertainty sigma = 0.000015, epsilon = 0.000624
 h31bf                                  1      0.0000       0.00000       A     2.42205e-01     8.67538e-02    ;  uncertainty sigma = 0.000015, epsilon = 0.000624
 h32bf                                  1      0.0000       0.00000       A     2.62570e-01     6.70700e-02    ;  uncertainty sigma = 0.000012, epsilon = 0.000330
 h33bf                                  1      0.0000       0.00000       A     2.62564e-01     6.70248e-02    ;  uncertainty sigma = 0.000015, epsilon = 0.000426
 h34bf                                  1      0.0000       0.00000       A     1.10708e-01     4.06502e-02    ;  uncertainty sigma = 0.000118, epsilon = 0.000465
 h35bf                                  1      0.0000       0.00000       A     2.53612e-01     6.73649e-02    ;  uncertainty sigma = 0.000081, epsilon = 0.000889
 h36bf                                  1      0.0000       0.00000       A     2.53649e-01     6.68496e-02    ;  uncertainty sigma = 0.000023, epsilon = 0.000657
 h37bf                                  1      0.0000       0.00000       A     2.53645e-01     6.69492e-02    ;  uncertainty sigma = 0.000020, epsilon = 0.000834
 h38bf                                  1      0.0000       0.00000       A     2.62566e-01     6.71264e-02    ;  uncertainty sigma = 0.000013, epsilon = 0.000572
 h39bf                                  1      0.0000       0.00000       A     2.62557e-01     6.70685e-02    ;  uncertainty sigma = 0.000011, epsilon = 0.000626
 h40bf                                  1      0.0000       0.00000       A     2.44702e-01     6.73584e-02    ;  uncertainty sigma = 0.000033, epsilon = 0.000485
 h41bf                                  1      0.0000       0.00000       A     1.10655e-01     4.14214e-02    ;  uncertainty sigma = 0.000054, epsilon = 0.000617
 h42bf                                  1      0.0000       0.00000       A     2.62576e-01     6.72415e-02    ;  uncertainty sigma = 0.000016, epsilon = 0.000589
 h43bf                                  1      0.0000       0.00000       A     2.62560e-01     6.71373e-02    ;  uncertainty sigma = 0.000017, epsilon = 0.000539
 h44bf                                  1      0.0000       0.00000       A     2.42205e-01     8.67538e-02    ;  uncertainty sigma = 0.000015, epsilon = 0.000624
 h45bf                                  1      0.0000       0.00000       A     2.42205e-01     8.67538e-02    ;  uncertainty sigma = 0.000015, epsilon = 0.000624
 h46bf                                  1      0.0000       0.00000       A     2.42205e-01     8.67538e-02    ;  uncertainty sigma = 0.000015, epsilon = 0.000624

[ moleculetype ]
;name             nrexcl
 MOL                   3

[ atoms ]
;       nr            type      resi   res      atom      cgnr      charge          mass ; qtot
         1            c0bf         1   UNL        c0         1     0.11960       12.0110 ; qtot    0.120
         2            o1bf         1   UNL        o1         2    -0.32010       15.9990 ; qtot   -0.201
         3            c2bf         1   UNL        c2         3     0.07584       12.0110 ; qtot   -0.125
         4            c3bf         1   UNL        c3         4    -0.15014       12.0110 ; qtot   -0.275
         5            c4bf         1   UNL        c4         5    -0.15106       12.0110 ; qtot   -0.426
         6            c5bf         1   UNL        c5         6     0.16694       12.0110 ; qtot   -0.259
         7            n6bf         1   UNL        n6         7    -0.73903       14.0070 ; qtot   -0.998
         8            c7bf         1   UNL        c7         8     0.75057       12.0110 ; qtot   -0.247
         9            n8bf         1   UNL        n8         9    -0.76973       14.0070 ; qtot   -1.017
        10            c9bf         1   UNL        c9        10     0.47700       12.0110 ; qtot   -0.540
        11           c10bf         1   UNL       c10        11    -0.22208       12.0110 ; qtot   -0.762
        12           n11bf         1   UNL       n11        12     0.05408       14.0070 ; qtot   -0.708
        13           c12bf         1   UNL       c12        13    -0.21243       12.0110 ; qtot   -0.921
        14           c13bf         1   UNL       c13        14     0.01175       12.0110 ; qtot   -0.909
        15           n14bf         1   UNL       n14        15    -0.27543       14.0070 ; qtot   -1.184
        16           c15bf         1   UNL       c15        16    -0.18460       12.0110 ; qtot   -1.369
        17           c16bf         1   UNL       c16        17    -0.10841       12.0110 ; qtot   -1.477
        18           c17bf         1   UNL       c17        18    -0.13329       12.0110 ; qtot   -1.611
        19           c18bf         1   UNL       c18        19    -0.07196       12.0110 ; qtot   -1.682
        20           c19bf         1   UNL       c19        20     0.07277       12.0110 ; qtot   -1.610
        21           n20bf         1   UNL       n20        21    -0.56947       14.0070 ; qtot   -2.179
        22           c21bf         1   UNL       c21        22     0.42511       12.0110 ; qtot   -1.754
        23           n22bf         1   UNL       n22        23    -0.28795       14.0070 ; qtot   -2.042
        24           c23bf         1   UNL       c23        24    -0.08088       12.0110 ; qtot   -2.123
        25           c24bf         1   UNL       c24        25    -0.10794       12.0110 ; qtot   -2.231
        26           c25bf         1   UNL       c25        26    -0.20840       12.0110 ; qtot   -2.439
        27           c26bf         1   UNL       c26        27     0.11790       12.0110 ; qtot   -2.321
        28           o27bf         1   UNL       o27        28    -0.31927       15.9990 ; qtot   -2.641
        29           c28bf         1   UNL       c28        29     0.11995       12.0110 ; qtot   -2.521
        30           h29bf         1   UNL       h29        30     0.04337        1.0080 ; qtot   -2.477
        31           h30bf         1   UNL       h30        31     0.04337        1.0080 ; qtot   -2.434
        32           h31bf         1   UNL       h31        32     0.04337        1.0080 ; qtot   -2.391
        33           h32bf         1   UNL       h32        33     0.14091        1.0080 ; qtot   -2.250
        34           h33bf         1   UNL       h33        34     0.15302        1.0080 ; qtot   -2.097
        35           h34bf         1   UNL       h34        35     0.46165        1.0080 ; qtot   -1.635
        36           h35bf         1   UNL       h35        36     0.17402        1.0080 ; qtot   -1.461
        37           h36bf         1   UNL       h36        37     0.18619        1.0080 ; qtot   -1.275
        38           h37bf         1   UNL       h37        38     0.17120        1.0080 ; qtot   -1.104
        39           h38bf         1   UNL       h38        39     0.14369        1.0080 ; qtot   -0.960
        40           h39bf         1   UNL       h39        40     0.15109        1.0080 ; qtot   -0.809
        41           h40bf         1   UNL       h40        41     0.06437        1.0080 ; qtot   -0.744
        42           h41bf         1   UNL       h41        42     0.31044        1.0080 ; qtot   -0.434
        43           h42bf         1   UNL       h42        43     0.14819        1.0080 ; qtot   -0.286
        44           h43bf         1   UNL       h43        44     0.15565        1.0080 ; qtot   -0.130
        45           h44bf         1   UNL       h44        45     0.04337        1.0080 ; qtot   -0.087
        46           h45bf         1   UNL       h45        46     0.04337        1.0080 ; qtot   -0.043
        47           h46bf         1   UNL       h46        47     0.04339        1.0080 ; qtot   -0.000

[ bonds ]
;       ai        aj funct               r               k
         1         2     1        0.142504   247060.424561    ;  uncertainty r = 0.000030, k = 4.357279
         1        30     1        0.109559   311162.501807    ;  uncertainty r = 0.000020, k = 1.272505
         1        31     1        0.109559   311162.501807    ;  uncertainty r = 0.000020, k = 1.272505
         1        32     1        0.109559   311162.501807    ;  uncertainty r = 0.000020, k = 1.272505
         2         3     1        0.136892   321113.062012    ;  uncertainty r = 0.000059, k = 4.532937
         3         4     1        0.139488   349133.425439    ;  uncertainty r = 0.000031, k = 2.724656
         3        27     1        0.140227   349402.969629    ;  uncertainty r = 0.000054, k = 7.584627
         4         5     1        0.139369   369864.655127    ;  uncertainty r = 0.000071, k = 2.574425
         4        33     1        0.108705   336290.634375    ;  uncertainty r = 0.000024, k = 1.905467
         5         6     1        0.139713   352891.517529    ;  uncertainty r = 0.000095, k = 4.859039
         5        34     1        0.108700   336152.248779    ;  uncertainty r = 0.000031, k = 1.798265
         6         7     1        0.141333   346668.455957    ;  uncertainty r = 0.000119, k = 12.315044
         6        26     1        0.140236   355873.307031    ;  uncertainty r = 0.000083, k = 5.100092
         7         8     1        0.137988   330814.533252    ;  uncertainty r = 0.000224, k = 31.605630
         7        35     1        0.102091   426736.870264    ;  uncertainty r = 0.000039, k = 5.302920
         8         9     1        0.132293   443196.890723    ;  uncertainty r = 0.000185, k = 13.473043
         8        16     1        0.143016   286566.945654    ;  uncertainty r = 0.000095, k = 10.976562
         9        10     1        0.137539   259289.788721    ;  uncertainty r = 0.000221, k = 27.333167
        10        11     1        0.136983   380120.690234    ;  uncertainty r = 0.000106, k = 13.129494
        10        17     1        0.147331   267030.852686    ;  uncertainty r = 0.000154, k = 10.570215
        11        12     1        0.137903   324759.863379    ;  uncertainty r = 0.000057, k = 6.440732
        11        36     1        0.108483   340864.866943    ;  uncertainty r = 0.000069, k = 2.329545
        12        13     1        0.137812   342777.341064    ;  uncertainty r = 0.000099, k = 5.087994
        12        16     1        0.139016   307421.213135    ;  uncertainty r = 0.000151, k = 23.940608
        13        14     1        0.138713   413349.321582    ;  uncertainty r = 0.000044, k = 11.515297
        13        37     1        0.108153   341281.121826    ;  uncertainty r = 0.000029, k = 4.725656
        14        15     1        0.136694   264650.921777    ;  uncertainty r = 0.000104, k = 21.676773
        14        38     1        0.108374   336399.652295    ;  uncertainty r = 0.000052, k = 2.763013
        15        16     1        0.133277   447135.785547    ;  uncertainty r = 0.000097, k = 11.841721
        17        18     1        0.141716   332363.231250    ;  uncertainty r = 0.000048, k = 3.448943
        17        25     1        0.139569   354498.874268    ;  uncertainty r = 0.000096, k = 2.572410
        18        19     1        0.138810   369622.435645    ;  uncertainty r = 0.000043, k = 4.206072
        18        39     1        0.108723   333941.577832    ;  uncertainty r = 0.000018, k = 2.301442
        19        20     1        0.140093   369975.996924    ;  uncertainty r = 0.000040, k = 1.455958
        19        40     1        0.108775   336329.808301    ;  uncertainty r = 0.000011, k = 0.639680
        20        21     1        0.139428   308765.869629    ;  uncertainty r = 0.000052, k = 10.892056
        20        24     1        0.141995   394312.862158    ;  uncertainty r = 0.000059, k = 4.733868
        21        22     1        0.131385   454282.192383    ;  uncertainty r = 0.000023, k = 7.090074
        22        23     1        0.138416   320636.820459    ;  uncertainty r = 0.000035, k = 14.133521
        22        41     1        0.108361   339788.835303    ;  uncertainty r = 0.000014, k = 1.065366
        23        24     1        0.138973   385615.612207    ;  uncertainty r = 0.000078, k = 10.750468
        23        42     1        0.101336   418194.145361    ;  uncertainty r = 0.000041, k = 2.797442
        24        25     1        0.139241   367386.661719    ;  uncertainty r = 0.000067, k = 6.606567
        25        43     1        0.108813   335972.058936    ;  uncertainty r = 0.000025, k = 1.899390
        26        27     1        0.139270   345625.520410    ;  uncertainty r = 0.000054, k = 5.224456
        26        44     1        0.108746   339222.268994    ;  uncertainty r = 0.000057, k = 2.203703
        27        28     1        0.136641   322875.224707    ;  uncertainty r = 0.000095, k = 4.764590
        28        29     1        0.142472   247648.314355    ;  uncertainty r = 0.000036, k = 5.188422
        29        45     1        0.109559   311162.501807    ;  uncertainty r = 0.000020, k = 1.272491
        29        46     1        0.109559   311162.501807    ;  uncertainty r = 0.000020, k = 1.272497
        29        47     1        0.109559   311162.501807    ;  uncertainty r = 0.000020, k = 1.272491

[ angles ]
;       ai        aj        ak funct           theta             cth
         1         2         3     1      110.612503      514.276204    ;  uncertainty theta = 0.001142, k = 0.053109
         2         1        30     1      108.817703      445.633093    ;  uncertainty theta = 0.001397, k = 0.017155
         2         1        31     1      108.817703      445.633093    ;  uncertainty theta = 0.001397, k = 0.017155
         2         1        32     1      108.817703      445.633093    ;  uncertainty theta = 0.001397, k = 0.017155
         2         3         4     1      120.713829      429.663653    ;  uncertainty theta = 0.002887, k = 0.102450
         2         3        27     1      116.739212      371.002135    ;  uncertainty theta = 0.004292, k = 0.133275
         3         4         5     1      122.308617      511.833707    ;  uncertainty theta = 0.002874, k = 0.098838
         3         4        33     1      117.399475      269.501128    ;  uncertainty theta = 0.000644, k = 0.068639
         3        27        26     1      122.924828      372.294473    ;  uncertainty theta = 0.004880, k = 0.131595
         3        27        28     1      116.892052      375.388038    ;  uncertainty theta = 0.003912, k = 0.086739
         4         3        27     1      121.473427      368.904773    ;  uncertainty theta = 0.004194, k = 0.139265
         4         5         6     1      119.248634      497.970121    ;  uncertainty theta = 0.001680, k = 0.102369
         4         5        34     1      121.012962      296.103549    ;  uncertainty theta = 0.002653, k = 0.108838
         5         4        33     1      120.002708      276.762860    ;  uncertainty theta = 0.000635, k = 0.063553
         5         6         7     1      120.412048      523.951864    ;  uncertainty theta = 0.002787, k = 0.145671
         5         6        26     1      119.564781      370.288948    ;  uncertainty theta = 0.004616, k = 0.068311
         6         5        34     1      119.526833      271.877771    ;  uncertainty theta = 0.001413, k = 0.081499
         6         7         8     1      116.303787      381.015013    ;  uncertainty theta = 0.002927, k = 0.210540
         6         7        35     1      114.186111      355.760727    ;  uncertainty theta = 0.005751, k = 0.200139
         6        26        27     1      121.379723      503.759991    ;  uncertainty theta = 0.003678, k = 0.097545
         6        26        44     1      119.577965      269.429783    ;  uncertainty theta = 0.003301, k = 0.060634
         7         6        26     1      119.861717      533.495177    ;  uncertainty theta = 0.003869, k = 0.077420
         7         8         9     1      122.095299      743.931110    ;  uncertainty theta = 0.005977, k = 0.187403
         7         8        16     1      118.339066      493.433486    ;  uncertainty theta = 0.006804, k = 0.121645
         8         7        35     1      117.061234      430.294771    ;  uncertainty theta = 0.006370, k = 0.198641
         8         9        10     1      121.081543      436.533806    ;  uncertainty theta = 0.009425, k = 0.261818
         8        16        12     1      111.142784      333.997874    ;  uncertainty theta = 0.012736, k = 0.456018
         8        16        15     1      125.515465      293.448009    ;  uncertainty theta = 0.008643, k = 0.324338
         9         8        16     1      122.405640      559.409789    ;  uncertainty theta = 0.006101, k = 0.247559
         9        10        11     1      124.529945      546.825995    ;  uncertainty theta = 0.003188, k = 0.249818
         9        10        17     1      117.342606      448.541450    ;  uncertainty theta = 0.000578, k = 0.073247
        10        11        12     1      117.545448      533.201245    ;  uncertainty theta = 0.004801, k = 0.198048
        10        11        36     1      124.661926      232.745215    ;  uncertainty theta = 0.008830, k = 0.220531
        10        17        18     1      119.101357      411.314537    ;  uncertainty theta = 0.002955, k = 0.091612
        10        17        25     1      119.081711      389.945595    ;  uncertainty theta = 0.003475, k = 0.160694
        11        10        17     1      121.636009      379.812725    ;  uncertainty theta = 0.004845, k = 0.097095
        11        12        13     1      129.660461      429.070873    ;  uncertainty theta = 0.002332, k = 0.325292
        11        12        16     1      117.456383      429.436979    ;  uncertainty theta = 0.007676, k = 0.177572
        12        11        36     1      117.405563      315.690576    ;  uncertainty theta = 0.003645, k = 0.141950
        12        13        14     1      105.324829      767.668044    ;  uncertainty theta = 0.004981, k = 0.189091
        12        13        37     1      119.539230      282.399762    ;  uncertainty theta = 0.002926, k = 0.163946
        12        16        15     1      114.523727      791.406958    ;  uncertainty theta = 0.003446, k = 0.159720
        13        12        16     1      106.195152      846.636320    ;  uncertainty theta = 0.003800, k = 0.266753
        13        14        15     1      111.223167      865.900238    ;  uncertainty theta = 0.003390, k = 0.157111
        13        14        38     1      125.339600      238.965624    ;  uncertainty theta = 0.004247, k = 0.092338
        14        13        37     1      130.781433      240.351858    ;  uncertainty theta = 0.003259, k = 0.025087
        14        15        16     1      106.065872      820.721453    ;  uncertainty theta = 0.001716, k = 0.145916
        15        14        38     1      119.156937      297.238833    ;  uncertainty theta = 0.004129, k = 0.152925
        17        18        19     1      123.704773      527.715331    ;  uncertainty theta = 0.003800, k = 0.030617
        17        18        39     1      117.617821      271.735433    ;  uncertainty theta = 0.003686, k = 0.076715
        17        25        24     1      117.248611      520.891146    ;  uncertainty theta = 0.002883, k = 0.170612
        17        25        43     1      119.792320      268.623162    ;  uncertainty theta = 0.002319, k = 0.143709
        18        17        25     1      123.934715      436.660980    ;  uncertainty theta = 0.003639, k = 0.106326
        18        19        20     1      117.867104      537.041643    ;  uncertainty theta = 0.002231, k = 0.085833
        18        19        40     1      121.326515      274.652409    ;  uncertainty theta = 0.002771, k = 0.042532
        19        18        39     1      119.680344      294.790144    ;  uncertainty theta = 0.003861, k = 0.058324
        19        20        21     1      129.929611      422.793404    ;  uncertainty theta = 0.002333, k = 0.152136
        19        20        24     1      116.572166      378.308877    ;  uncertainty theta = 0.005066, k = 0.141028
        20        19        40     1      121.751343      285.523174    ;  uncertainty theta = 0.003253, k = 0.076919
        20        21        22     1      104.529587      806.936649    ;  uncertainty theta = 0.002623, k = 0.181525
        20        24        23     1      106.507034      699.332591    ;  uncertainty theta = 0.002091, k = 0.080740
        20        24        25     1      120.338051      339.615751    ;  uncertainty theta = 0.001804, k = 0.220177
        21        20        24     1      111.130020      812.811142    ;  uncertainty theta = 0.000749, k = 0.086385
        21        22        23     1      113.233948      923.290742    ;  uncertainty theta = 0.002556, k = 0.099706
        21        22        41     1      123.785446      263.585281    ;  uncertainty theta = 0.002364, k = 0.077685
        22        23        24     1      104.255997      864.934233    ;  uncertainty theta = 0.002826, k = 0.124559
        22        23        42     1      117.887962      287.730889    ;  uncertainty theta = 0.004914, k = 0.131580
        23        22        41     1      119.000473      282.863037    ;  uncertainty theta = 0.000773, k = 0.084878
        23        24        25     1      131.363007      395.384840    ;  uncertainty theta = 0.003297, k = 0.094725
        24        23        42     1      117.608276      289.254848    ;  uncertainty theta = 0.004445, k = 0.028923
        24        25        43     1      122.256104      293.328495    ;  uncertainty theta = 0.001731, k = 0.138738
        26        27        28     1      119.984230      446.391321    ;  uncertainty theta = 0.002825, k = 0.109279
        27        26        44     1      118.198837      267.442262    ;  uncertainty theta = 0.001362, k = 0.058522
        27        28        29     1      110.584335      514.931710    ;  uncertainty theta = 0.000760, k = 0.054259
        28        29        45     1      108.804810      446.467230    ;  uncertainty theta = 0.001256, k = 0.017592
        28        29        46     1      108.804810      446.467230    ;  uncertainty theta = 0.001256, k = 0.017592
        28        29        47     1      108.804810      446.467230    ;  uncertainty theta = 0.001256, k = 0.017592
        30         1        31     1      109.159256      331.008596    ;  uncertainty theta = 0.001734, k = 0.015289
        30         1        32     1      109.159256      331.008596    ;  uncertainty theta = 0.001734, k = 0.015289
        31         1        32     1      109.159256      331.008596    ;  uncertainty theta = 0.001734, k = 0.015289
        45        29        46     1      109.159256      331.008596    ;  uncertainty theta = 0.001734, k = 0.015290
        45        29        47     1      109.159256      331.008596    ;  uncertainty theta = 0.001734, k = 0.015290
        46        29        47     1      109.159256      331.008628    ;  uncertainty theta = 0.001734, k = 0.015290

[ dihedrals ] ; propers for gromacs 4.5 or higher, use funct 9
;       ai        aj        ak        al funct           phase               k        pn
         1         2         3         4     9        0.000000        1.161590         1    ;  uncertainty k = 0.424580
         1         2         3         4     9      180.000000        5.978609         2    ;  uncertainty k = 0.113714
         1         2         3         4     9        0.000000       -0.081692         3    ;  uncertainty k = 0.147719
         1         2         3         4     9      180.000000        0.002725         4    ;  uncertainty k = 0.132587
         1         2         3        27     9        0.000000        0.710048         1    ;  uncertainty k = 0.461814
         1         2         3        27     9      180.000000        5.168557         2    ;  uncertainty k = 0.168705
         1         2         3        27     9        0.000000        1.522737         3    ;  uncertainty k = 0.085019
         1         2         3        27     9      180.000000        0.086569         4    ;  uncertainty k = 0.079161
         2         3         4         5     9        0.000000        0.075453         1    ;  uncertainty k = 0.391184
         2         3         4         5     9      180.000000       11.200366         2    ;  uncertainty k = 0.281957
         2         3         4         5     9        0.000000        1.350673         3    ;  uncertainty k = 0.315697
         2         3         4         5     9      180.000000        1.737822         4    ;  uncertainty k = 0.262819
         2         3         4        33     9        0.000000       -0.165175         1    ;  uncertainty k = 0.217547
         2         3         4        33     9      180.000000        9.159951         2    ;  uncertainty k = 0.396817
         2         3         4        33     9        0.000000        0.851185         3    ;  uncertainty k = 0.126617
         2         3         4        33     9      180.000000        1.218800         4    ;  uncertainty k = 0.309716
         2         3        27        26     9        0.000000        0.515556         1    ;  uncertainty k = 0.299239
         2         3        27        26     9      180.000000        7.954903         2    ;  uncertainty k = 0.736958
         2         3        27        26     9        0.000000        1.164308         3    ;  uncertainty k = 0.363484
         2         3        27        26     9      180.000000        1.614907         4    ;  uncertainty k = 0.248125
         2         3        27        28     9        0.000000       -0.341456         1    ;  uncertainty k = 1.859913
         2         3        27        28     9      180.000000       13.064537         2    ;  uncertainty k = 0.569185
         2         3        27        28     9        0.000000        0.817588         3    ;  uncertainty k = 0.428631
         2         3        27        28     9      180.000000        1.204285         4    ;  uncertainty k = 0.526598
         3         2         1        30     9        0.000000        1.112847         1    ;  uncertainty k = 0.103175
         3         2         1        30     9      180.000000       -2.022644         2    ;  uncertainty k = 0.082864
         3         2         1        30     9        0.000000        1.040477         3    ;  uncertainty k = 0.039004
         3         2         1        30     9      180.000000        0.229250         4    ;  uncertainty k = 0.034227
         3         2         1        31     9        0.000000        1.112847         1    ;  uncertainty k = 0.103175
         3         2         1        31     9      180.000000       -2.022644         2    ;  uncertainty k = 0.082864
         3         2         1        31     9        0.000000        1.040477         3    ;  uncertainty k = 0.039004
         3         2         1        31     9      180.000000        0.229250         4    ;  uncertainty k = 0.034227
         3         2         1        32     9        0.000000        1.112847         1    ;  uncertainty k = 0.103175
         3         2         1        32     9      180.000000       -2.022644         2    ;  uncertainty k = 0.082864
         3         2         1        32     9        0.000000        1.040477         3    ;  uncertainty k = 0.039004
         3         2         1        32     9      180.000000        0.229250         4    ;  uncertainty k = 0.034227
         3         4         5         6     9        0.000000        0.022057         1    ;  uncertainty k = 0.194405
         3         4         5         6     9      180.000000       12.959076         2    ;  uncertainty k = 0.175269
         3         4         5         6     9        0.000000       -0.661284         3    ;  uncertainty k = 0.452963
         3         4         5         6     9      180.000000        0.977500         4    ;  uncertainty k = 0.267395
         3         4         5        34     9        0.000000        0.089133         1    ;  uncertainty k = 0.324049
         3         4         5        34     9      180.000000        7.832723         2    ;  uncertainty k = 0.398222
         3         4         5        34     9        0.000000        1.298747         3    ;  uncertainty k = 0.324375
         3         4         5        34     9      180.000000        1.779745         4    ;  uncertainty k = 0.055930
         3        27        26         6     9        0.000000        0.071802         1    ;  uncertainty k = 0.106893
         3        27        26         6     9      180.000000        8.578020         2    ;  uncertainty k = 0.448413
         3        27        26         6     9        0.000000        0.405195         3    ;  uncertainty k = 0.328173
         3        27        26         6     9      180.000000        1.390162         4    ;  uncertainty k = 0.291061
         3        27        26        44     9        0.000000        0.127329         1    ;  uncertainty k = 0.442115
         3        27        26        44     9      180.000000        6.705908         2    ;  uncertainty k = 0.374607
         3        27        26        44     9        0.000000        1.449705         3    ;  uncertainty k = 0.216502
         3        27        26        44     9      180.000000        1.651952         4    ;  uncertainty k = 0.099448
         3        27        28        29     9        0.000000        0.964833         1    ;  uncertainty k = 0.487894
         3        27        28        29     9      180.000000        5.588064         2    ;  uncertainty k = 0.185698
         3        27        28        29     9        0.000000        1.649424         3    ;  uncertainty k = 0.107622
         3        27        28        29     9      180.000000        0.043020         4    ;  uncertainty k = 0.050223
         4         3        27        26     9        0.000000       -0.246361         1    ;  uncertainty k = 0.323015
         4         3        27        26     9      180.000000        5.364289         2    ;  uncertainty k = 1.281071
         4         3        27        26     9        0.000000        0.277799         3    ;  uncertainty k = 0.286511
         4         3        27        26     9      180.000000        1.297118         4    ;  uncertainty k = 0.309451
         4         3        27        28     9        0.000000        0.651705         1    ;  uncertainty k = 0.176594
         4         3        27        28     9      180.000000        7.590394         2    ;  uncertainty k = 0.603024
         4         3        27        28     9        0.000000        1.174713         3    ;  uncertainty k = 0.330890
         4         3        27        28     9      180.000000        1.724084         4    ;  uncertainty k = 0.232454
         4         5         6         7     9        0.000000        0.058897         1    ;  uncertainty k = 0.517002
         4         5         6         7     9      180.000000        9.907040         2    ;  uncertainty k = 0.506714
         4         5         6         7     9        0.000000        0.979239         3    ;  uncertainty k = 0.327123
         4         5         6         7     9      180.000000        1.580944         4    ;  uncertainty k = 0.224706
         4         5         6        26     9        0.000000       -0.065841         1    ;  uncertainty k = 0.278588
         4         5         6        26     9      180.000000        9.979296         2    ;  uncertainty k = 0.397780
         4         5         6        26     9        0.000000       -0.194578         3    ;  uncertainty k = 0.190668
         4         5         6        26     9      180.000000        1.171069         4    ;  uncertainty k = 0.255361
         5         4         3        27     9        0.000000        0.085734         1    ;  uncertainty k = 0.237541
         5         4         3        27     9      180.000000        8.042168         2    ;  uncertainty k = 0.816838
         5         4         3        27     9        0.000000        0.289471         3    ;  uncertainty k = 0.178601
         5         4         3        27     9      180.000000        1.427392         4    ;  uncertainty k = 0.249188
         5         6         7         8     9        0.000000        1.717569         1    ;  uncertainty k = 0.660151
         5         6         7         8     9      180.000000        5.521741         2    ;  uncertainty k = 0.179949
         5         6         7         8     9        0.000000        0.912155         3    ;  uncertainty k = 0.268355
         5         6         7         8     9      180.000000        0.224590         4    ;  uncertainty k = 0.108908
         5         6         7        35     9        0.000000        2.355176         1    ;  uncertainty k = 0.449212
         5         6         7        35     9      180.000000        4.348203         2    ;  uncertainty k = 0.302695
         5         6         7        35     9        0.000000        0.613845         3    ;  uncertainty k = 0.145998
         5         6         7        35     9      180.000000        0.455801         4    ;  uncertainty k = 0.028343
         5         6        26        27     9        0.000000        0.019455         1    ;  uncertainty k = 0.133757
         5         6        26        27     9      180.000000        8.784468         2    ;  uncertainty k = 0.478984
         5         6        26        27     9        0.000000        0.119276         3    ;  uncertainty k = 0.283810
         5         6        26        27     9      180.000000        1.288078         4    ;  uncertainty k = 0.208847
         5         6        26        44     9        0.000000        0.155297         1    ;  uncertainty k = 0.281422
         5         6        26        44     9      180.000000        6.373831         2    ;  uncertainty k = 0.633801
         5         6        26        44     9        0.000000        1.253627         3    ;  uncertainty k = 0.220579
         5         6        26        44     9      180.000000        1.460767         4    ;  uncertainty k = 0.207379
         6         5         4        33     9        0.000000       -0.099823         1    ;  uncertainty k = 0.241524
         6         5         4        33     9      180.000000        7.800452         2    ;  uncertainty k = 0.321389
         6         5         4        33     9        0.000000        1.212039         3    ;  uncertainty k = 0.364603
         6         5         4        33     9      180.000000        1.643100         4    ;  uncertainty k = 0.155684
         6         7         8         9     9        0.000000        4.372624         1    ;  uncertainty k = 1.281937
         6         7         8         9     9      180.000000       10.787256         2    ;  uncertainty k = 0.224703
         6         7         8         9     9        0.000000        0.688230         3    ;  uncertainty k = 0.311855
         6         7         8         9     9      180.000000       -0.507580         4    ;  uncertainty k = 0.052591
         6         7         8        16     9        0.000000        7.039559         1    ;  uncertainty k = 0.599174
         6         7         8        16     9      180.000000        8.681781         2    ;  uncertainty k = 0.097887
         6         7         8        16     9        0.000000        0.920441         3    ;  uncertainty k = 0.381757
         6         7         8        16     9      180.000000       -0.164553         4    ;  uncertainty k = 0.221364
         6        26        27        28     9        0.000000        0.152072         1    ;  uncertainty k = 0.236865
         6        26        27        28     9      180.000000       11.350413         2    ;  uncertainty k = 0.544002
         6        26        27        28     9        0.000000        1.355669         3    ;  uncertainty k = 0.349766
         6        26        27        28     9      180.000000        1.696486         4    ;  uncertainty k = 0.237430
         7         6         5        34     9        0.000000       -0.291936         1    ;  uncertainty k = 0.233190
         7         6         5        34     9      180.000000        7.944711         2    ;  uncertainty k = 0.164350
         7         6         5        34     9        0.000000        0.918004         3    ;  uncertainty k = 0.228756
         7         6         5        34     9      180.000000        1.083856         4    ;  uncertainty k = 0.164907
         7         6        26        27     9        0.000000        0.148911         1    ;  uncertainty k = 0.574988
         7         6        26        27     9      180.000000        9.899588         2    ;  uncertainty k = 0.247388
         7         6        26        27     9        0.000000        1.000997         3    ;  uncertainty k = 0.351814
         7         6        26        27     9      180.000000        1.610986         4    ;  uncertainty k = 0.137508
         7         6        26        44     9        0.000000       -0.272934         1    ;  uncertainty k = 0.329125
         7         6        26        44     9      180.000000        7.865305         2    ;  uncertainty k = 0.242076
         7         6        26        44     9        0.000000        0.914516         3    ;  uncertainty k = 0.283703
         7         6        26        44     9      180.000000        1.068016         4    ;  uncertainty k = 0.243003
         7         8         9        10     9        0.000000        1.096109         1    ;  uncertainty k = 1.057277
         7         8         9        10     9      180.000000       18.030113         2    ;  uncertainty k = 0.463660
         7         8         9        10     9        0.000000        2.915695         3    ;  uncertainty k = 0.293652
         7         8         9        10     9      180.000000        1.658749         4    ;  uncertainty k = 0.299266
         7         8        16        12     9        0.000000       -0.953522         1    ;  uncertainty k = 0.960772
         7         8        16        12     9      180.000000        5.426483         2    ;  uncertainty k = 0.732995
         7         8        16        12     9        0.000000        0.463830         3    ;  uncertainty k = 0.276198
         7         8        16        12     9      180.000000        0.425035         4    ;  uncertainty k = 0.145521
         7         8        16        15     9        0.000000       -0.723785         1    ;  uncertainty k = 0.708754
         7         8        16        15     9      180.000000        4.584250         2    ;  uncertainty k = 1.077487
         7         8        16        15     9        0.000000        0.569780         3    ;  uncertainty k = 0.418447
         7         8        16        15     9      180.000000        0.322209         4    ;  uncertainty k = 0.225420
         8         7         6        26     9        0.000000        1.597949         1    ;  uncertainty k = 0.980885
         8         7         6        26     9      180.000000        5.574010         2    ;  uncertainty k = 0.231880
         8         7         6        26     9        0.000000        0.917733         3    ;  uncertainty k = 0.237919
         8         7         6        26     9      180.000000        0.218590         4    ;  uncertainty k = 0.147859
         8         9        10        11     9        0.000000        1.017504         1    ;  uncertainty k = 1.516360
         8         9        10        11     9      180.000000        5.410036         2    ;  uncertainty k = 1.406424
         8         9        10        11     9        0.000000        1.183504         3    ;  uncertainty k = 0.850444
         8         9        10        11     9      180.000000        0.501686         4    ;  uncertainty k = 0.531969
         8         9        10        17     9        0.000000        1.019322         1    ;  uncertainty k = 1.173615
         8         9        10        17     9      180.000000        8.696916         2    ;  uncertainty k = 0.875770
         8         9        10        17     9        0.000000        1.554374         3    ;  uncertainty k = 0.625191
         8         9        10        17     9      180.000000        0.401172         4    ;  uncertainty k = 0.349673
         8        16        12        11     9        0.000000       -0.065679         1    ;  uncertainty k = 0.930309
         8        16        12        11     9      180.000000        5.131901         2    ;  uncertainty k = 1.526753
         8        16        12        11     9        0.000000        1.363593         3    ;  uncertainty k = 0.467515
         8        16        12        11     9      180.000000        0.395973         4    ;  uncertainty k = 0.312049
         8        16        12        13     9        0.000000        0.340421         1    ;  uncertainty k = 0.792595
         8        16        12        13     9      180.000000        6.024515         2    ;  uncertainty k = 0.492566
         8        16        12        13     9        0.000000        0.209998         3    ;  uncertainty k = 0.527723
         8        16        12        13     9      180.000000        0.585310         4    ;  uncertainty k = 0.374830
         8        16        15        14     9        0.000000       -0.258736         1    ;  uncertainty k = 0.813751
         8        16        15        14     9      180.000000       16.417004         2    ;  uncertainty k = 0.455553
         8        16        15        14     9        0.000000        0.694004         3    ;  uncertainty k = 0.637623
         8        16        15        14     9      180.000000        1.345365         4    ;  uncertainty k = 0.597909
         9         8         7        35     9        0.000000        8.959278         1    ;  uncertainty k = 0.586750
         9         8         7        35     9      180.000000        9.660200         2    ;  uncertainty k = 0.284454
         9         8         7        35     9        0.000000        1.086794         3    ;  uncertainty k = 0.308766
         9         8         7        35     9      180.000000       -0.062018         4    ;  uncertainty k = 0.151185
         9         8        16        12     9        0.000000       -0.508120         1    ;  uncertainty k = 0.649583
         9         8        16        12     9      180.000000        6.006908         2    ;  uncertainty k = 0.721136
         9         8        16        12     9        0.000000       -0.359701         3    ;  uncertainty k = 0.319120
         9         8        16        12     9      180.000000        0.564109         4    ;  uncertainty k = 0.160688
         9         8        16        15     9        0.000000       -1.431194         1    ;  uncertainty k = 2.218090
         9         8        16        15     9      180.000000        4.468096         2    ;  uncertainty k = 0.589322
         9         8        16        15     9        0.000000        0.454907         3    ;  uncertainty k = 0.408290
         9         8        16        15     9      180.000000        0.386347         4    ;  uncertainty k = 0.295938
         9        10        11        12     9        0.000000        0.021628         1    ;  uncertainty k = 0.553837
         9        10        11        12     9      180.000000       21.308096         2    ;  uncertainty k = 0.618902
         9        10        11        12     9        0.000000        0.542129         3    ;  uncertainty k = 0.330363
         9        10        11        12     9      180.000000        0.532400         4    ;  uncertainty k = 0.522570
         9        10        11        36     9        0.000000        0.413530         1    ;  uncertainty k = 1.053393
         9        10        11        36     9      180.000000       12.778727         2    ;  uncertainty k = 0.373644
         9        10        11        36     9        0.000000        1.633797         3    ;  uncertainty k = 0.611850
         9        10        11        36     9      180.000000        1.088488         4    ;  uncertainty k = 0.439227
         9        10        17        18     9        0.000000       -0.653691         1    ;  uncertainty k = 1.567623
         9        10        17        18     9      180.000000        4.988183         2    ;  uncertainty k = 0.298965
         9        10        17        18     9        0.000000        0.563026         3    ;  uncertainty k = 0.116249
         9        10        17        18     9      180.000000        0.108687         4    ;  uncertainty k = 0.092259
         9        10        17        25     9        0.000000       -1.024724         1    ;  uncertainty k = 1.356437
         9        10        17        25     9      180.000000        4.960975         2    ;  uncertainty k = 0.211952
         9        10        17        25     9        0.000000        0.304554         3    ;  uncertainty k = 0.109062
         9        10        17        25     9      180.000000        0.101346         4    ;  uncertainty k = 0.110969
        10         9         8        16     9        0.000000       -0.097990         1    ;  uncertainty k = 2.188335
        10         9         8        16     9      180.000000       13.736996         2    ;  uncertainty k = 0.596844
        10         9         8        16     9        0.000000        2.511290         3    ;  uncertainty k = 0.854062
        10         9         8        16     9      180.000000        1.344029         4    ;  uncertainty k = 0.393277
        10        11        12        13     9        0.000000        0.387181         1    ;  uncertainty k = 1.514247
        10        11        12        13     9      180.000000        4.670308         2    ;  uncertainty k = 0.661014
        10        11        12        13     9        0.000000        0.721864         3    ;  uncertainty k = 0.341868
        10        11        12        13     9      180.000000        0.327281         4    ;  uncertainty k = 0.086812
        10        11        12        16     9        0.000000       -0.099694         1    ;  uncertainty k = 1.661026
        10        11        12        16     9      180.000000        6.351588         2    ;  uncertainty k = 0.533147
        10        11        12        16     9        0.000000       -0.869395         3    ;  uncertainty k = 0.839908
        10        11        12        16     9      180.000000        0.595359         4    ;  uncertainty k = 0.141779
        10        17        18        19     9        0.000000        0.103117         1    ;  uncertainty k = 0.183716
        10        17        18        19     9      180.000000        8.093068         2    ;  uncertainty k = 0.630766
        10        17        18        19     9        0.000000        1.302511         3    ;  uncertainty k = 0.320600
        10        17        18        19     9      180.000000        1.782042         4    ;  uncertainty k = 0.223599
        10        17        18        39     9        0.000000       -0.049387         1    ;  uncertainty k = 0.216931
        10        17        18        39     9      180.000000        6.759212         2    ;  uncertainty k = 0.337789
        10        17        18        39     9        0.000000        0.676986         3    ;  uncertainty k = 0.207348
        10        17        18        39     9      180.000000        1.061622         4    ;  uncertainty k = 0.200268
        10        17        25        24     9        0.000000       -0.053394         1    ;  uncertainty k = 0.425949
        10        17        25        24     9      180.000000       11.097670         2    ;  uncertainty k = 0.446739
        10        17        25        24     9        0.000000        1.470947         3    ;  uncertainty k = 0.220674
        10        17        25        24     9      180.000000        1.612976         4    ;  uncertainty k = 0.283683
        10        17        25        43     9        0.000000       -0.121897         1    ;  uncertainty k = 0.371554
        10        17        25        43     9      180.000000        7.519777         2    ;  uncertainty k = 0.208936
        10        17        25        43     9        0.000000        0.677391         3    ;  uncertainty k = 0.243403
        10        17        25        43     9      180.000000        1.076521         4    ;  uncertainty k = 0.134819
        11        10        17        18     9        0.000000       -0.062368         1    ;  uncertainty k = 0.334402
        11        10        17        18     9      180.000000        3.939607         2    ;  uncertainty k = 0.562295
        11        10        17        18     9        0.000000        0.671654         3    ;  uncertainty k = 0.173524
        11        10        17        18     9      180.000000       -0.333878         4    ;  uncertainty k = 0.185138
        11        10        17        25     9        0.000000        0.191513         1    ;  uncertainty k = 0.311453
        11        10        17        25     9      180.000000        3.809343         2    ;  uncertainty k = 0.464550
        11        10        17        25     9        0.000000        0.827226         3    ;  uncertainty k = 0.097327
        11        10        17        25     9      180.000000       -0.328344         4    ;  uncertainty k = 0.173210
        11        12        13        14     9        0.000000        0.238879         1    ;  uncertainty k = 1.268059
        11        12        13        14     9      180.000000        9.618342         2    ;  uncertainty k = 0.775422
        11        12        13        14     9        0.000000        0.407411         3    ;  uncertainty k = 0.759266
        11        12        13        14     9      180.000000        0.559103         4    ;  uncertainty k = 0.314044
        11        12        13        37     9        0.000000        0.591128         1    ;  uncertainty k = 1.266310
        11        12        13        37     9      180.000000        2.793743         2    ;  uncertainty k = 1.401654
        11        12        13        37     9        0.000000        1.235888         3    ;  uncertainty k = 0.395832
        11        12        13        37     9      180.000000        0.135474         4    ;  uncertainty k = 0.120547
        11        12        16        15     9        0.000000        0.318033         1    ;  uncertainty k = 0.549936
        11        12        16        15     9      180.000000        8.739854         2    ;  uncertainty k = 0.549403
        11        12        16        15     9        0.000000        0.448820         3    ;  uncertainty k = 0.411752
        11        12        16        15     9      180.000000        0.878822         4    ;  uncertainty k = 0.217911
        12        11        10        17     9        0.000000        0.573836         1    ;  uncertainty k = 0.305155
        12        11        10        17     9      180.000000       17.329127         2    ;  uncertainty k = 0.495688
        12        11        10        17     9        0.000000        1.931937         3    ;  uncertainty k = 0.426360
        12        11        10        17     9      180.000000        0.784204         4    ;  uncertainty k = 0.279545
        12        13        14        15     9        0.000000       -0.424259         1    ;  uncertainty k = 0.720471
        12        13        14        15     9      180.000000       21.948844         2    ;  uncertainty k = 0.272817
        12        13        14        15     9        0.000000       -9.453916         3    ;  uncertainty k = 0.408148
        12        13        14        15     9      180.000000        1.578950         4    ;  uncertainty k = 0.654473
        12        13        14        38     9        0.000000        0.427383         1    ;  uncertainty k = 0.828520
        12        13        14        38     9      180.000000       13.870596         2    ;  uncertainty k = 0.182398
        12        13        14        38     9        0.000000        1.815389         3    ;  uncertainty k = 0.320274
        12        13        14        38     9      180.000000        0.903574         4    ;  uncertainty k = 0.223947
        12        16        15        14     9        0.000000       -0.698106         1    ;  uncertainty k = 0.543243
        12        16        15        14     9      180.000000       23.970051         2    ;  uncertainty k = 0.495895
        12        16        15        14     9        0.000000      -11.206153         3    ;  uncertainty k = 1.161985
        12        16        15        14     9      180.000000        1.981051         4    ;  uncertainty k = 0.603215
        13        12        11        36     9        0.000000        1.230261         1    ;  uncertainty k = 1.227405
        13        12        11        36     9      180.000000        2.935754         2    ;  uncertainty k = 1.100422
        13        12        11        36     9        0.000000        1.028873         3    ;  uncertainty k = 0.513157
        13        12        11        36     9      180.000000        0.182735         4    ;  uncertainty k = 0.171565
        13        12        16        15     9        0.000000       -0.600194         1    ;  uncertainty k = 0.427509
        13        12        16        15     9      180.000000       12.032075         2    ;  uncertainty k = 0.540572
        13        12        16        15     9        0.000000       -4.884606         3    ;  uncertainty k = 1.243656
        13        12        16        15     9      180.000000        1.176890         4    ;  uncertainty k = 0.463084
        13        14        15        16     9        0.000000       -0.719371         1    ;  uncertainty k = 0.806440
        13        14        15        16     9      180.000000       16.306391         2    ;  uncertainty k = 0.372137
        13        14        15        16     9        0.000000       -5.546726         3    ;  uncertainty k = 0.784851
        13        14        15        16     9      180.000000        2.138755         4    ;  uncertainty k = 0.319469
        14        13        12        16     9        0.000000        0.425340         1    ;  uncertainty k = 0.911889
        14        13        12        16     9      180.000000       13.121731         2    ;  uncertainty k = 1.266973
        14        13        12        16     9        0.000000      -13.119121         3    ;  uncertainty k = 1.817832
        14        13        12        16     9      180.000000        1.693366         4    ;  uncertainty k = 0.377703
        15        14        13        37     9        0.000000       -0.210816         1    ;  uncertainty k = 0.409318
        15        14        13        37     9      180.000000       14.525460         2    ;  uncertainty k = 0.474526
        15        14        13        37     9        0.000000        1.399987         3    ;  uncertainty k = 0.472591
        15        14        13        37     9      180.000000        0.597840         4    ;  uncertainty k = 0.116226
        16         8         7        35     9        0.000000        5.299478         1    ;  uncertainty k = 1.071663
        16         8         7        35     9      180.000000        6.121003         2    ;  uncertainty k = 0.320629
        16         8         7        35     9        0.000000        1.371092         3    ;  uncertainty k = 0.426496
        16         8         7        35     9      180.000000       -0.017304         4    ;  uncertainty k = 0.216319
        16        12        11        36     9        0.000000        1.226556         1    ;  uncertainty k = 1.441979
        16        12        11        36     9      180.000000        4.293775         2    ;  uncertainty k = 0.542295
        16        12        11        36     9        0.000000        1.116226         3    ;  uncertainty k = 0.349206
        16        12        11        36     9      180.000000        0.197252         4    ;  uncertainty k = 0.128616
        16        12        13        37     9        0.000000        0.337817         1    ;  uncertainty k = 0.998519
        16        12        13        37     9      180.000000        7.392009         2    ;  uncertainty k = 0.385665
        16        12        13        37     9        0.000000        1.061986         3    ;  uncertainty k = 0.365240
        16        12        13        37     9      180.000000        0.171584         4    ;  uncertainty k = 0.281011
        16        15        14        38     9        0.000000       -0.095582         1    ;  uncertainty k = 0.393923
        16        15        14        38     9      180.000000       14.177386         2    ;  uncertainty k = 0.352374
        16        15        14        38     9        0.000000        1.588169         3    ;  uncertainty k = 0.688228
        16        15        14        38     9      180.000000        0.904862         4    ;  uncertainty k = 0.448977
        17        10        11        36     9        0.000000       -0.189755         1    ;  uncertainty k = 0.379154
        17        10        11        36     9      180.000000        9.196048         2    ;  uncertainty k = 0.421064
        17        10        11        36     9        0.000000        1.506892         3    ;  uncertainty k = 0.253047
        17        10        11        36     9      180.000000        0.984469         4    ;  uncertainty k = 0.133324
        17        18        19        20     9        0.000000        0.083510         1    ;  uncertainty k = 0.313050
        17        18        19        20     9      180.000000       15.755337         2    ;  uncertainty k = 0.223107
        17        18        19        20     9        0.000000       -0.249175         3    ;  uncertainty k = 0.377710
        17        18        19        20     9      180.000000        0.865890         4    ;  uncertainty k = 0.386157
        17        18        19        40     9        0.000000        0.064814         1    ;  uncertainty k = 0.160663
        17        18        19        40     9      180.000000        8.552158         2    ;  uncertainty k = 0.399317
        17        18        19        40     9        0.000000        1.441988         3    ;  uncertainty k = 0.256522
        17        18        19        40     9      180.000000        1.926342         4    ;  uncertainty k = 0.206943
        17        25        24        20     9        0.000000       -0.274835         1    ;  uncertainty k = 0.549526
        17        25        24        20     9      180.000000       12.656619         2    ;  uncertainty k = 0.203946
        17        25        24        20     9        0.000000       -1.384588         3    ;  uncertainty k = 0.449998
        17        25        24        20     9      180.000000        0.701238         4    ;  uncertainty k = 0.235113
        17        25        24        23     9        0.000000        0.223093         1    ;  uncertainty k = 0.321635
        17        25        24        23     9      180.000000       10.579939         2    ;  uncertainty k = 0.645149
        17        25        24        23     9        0.000000        0.995299         3    ;  uncertainty k = 0.213320
        17        25        24        23     9      180.000000        1.281059         4    ;  uncertainty k = 0.312118
        18        17        25        24     9        0.000000       -0.050341         1    ;  uncertainty k = 0.283702
        18        17        25        24     9      180.000000       12.761133         2    ;  uncertainty k = 0.322071
        18        17        25        24     9        0.000000       -0.054754         3    ;  uncertainty k = 0.367440
        18        17        25        24     9      180.000000        1.001912         4    ;  uncertainty k = 0.383063
        18        17        25        43     9        0.000000        0.202374         1    ;  uncertainty k = 0.288986
        18        17        25        43     9      180.000000        7.410757         2    ;  uncertainty k = 0.467149
        18        17        25        43     9        0.000000        1.513534         3    ;  uncertainty k = 0.103118
        18        17        25        43     9      180.000000        1.670289         4    ;  uncertainty k = 0.221288
        18        19        20        21     9        0.000000        0.453317         1    ;  uncertainty k = 0.610933
        18        19        20        21     9      180.000000       10.204831         2    ;  uncertainty k = 0.156141
        18        19        20        21     9        0.000000        0.741726         3    ;  uncertainty k = 0.315184
        18        19        20        21     9      180.000000        1.275531         4    ;  uncertainty k = 0.211517
        18        19        20        24     9        0.000000        0.016734         1    ;  uncertainty k = 0.468567
        18        19        20        24     9      180.000000       12.489175         2    ;  uncertainty k = 0.331169
        18        19        20        24     9        0.000000       -1.480237         3    ;  uncertainty k = 0.152721
        18        19        20        24     9      180.000000        0.718306         4    ;  uncertainty k = 0.187027
        19        18        17        25     9        0.000000       -0.130135         1    ;  uncertainty k = 0.187628
        19        18        17        25     9      180.000000        9.789196         2    ;  uncertainty k = 0.239182
        19        18        17        25     9        0.000000       -0.267003         3    ;  uncertainty k = 0.376728
        19        18        17        25     9      180.000000        1.025720         4    ;  uncertainty k = 0.246120
        19        20        21        22     9        0.000000       -0.077482         1    ;  uncertainty k = 0.614626
        19        20        21        22     9      180.000000       10.403282         2    ;  uncertainty k = 0.307875
        19        20        21        22     9        0.000000        0.469936         3    ;  uncertainty k = 0.515209
        19        20        21        22     9      180.000000        1.169575         4    ;  uncertainty k = 0.315734
        19        20        24        23     9        0.000000       -0.345928         1    ;  uncertainty k = 0.373812
        19        20        24        23     9      180.000000        7.733424         2    ;  uncertainty k = 0.186911
        19        20        24        23     9        0.000000       -0.014398         3    ;  uncertainty k = 0.608857
        19        20        24        23     9      180.000000        1.149007         4    ;  uncertainty k = 0.342112
        19        20        24        25     9        0.000000       -0.500965         1    ;  uncertainty k = 0.840488
        19        20        24        25     9      180.000000        7.330603         2    ;  uncertainty k = 0.744078
        19        20        24        25     9        0.000000        0.042823         3    ;  uncertainty k = 0.303560
        19        20        24        25     9      180.000000        0.897948         4    ;  uncertainty k = 0.404465
        20        19        18        39     9        0.000000       -0.004244         1    ;  uncertainty k = 0.194021
        20        19        18        39     9      180.000000       11.153951         2    ;  uncertainty k = 0.280175
        20        19        18        39     9        0.000000        1.348051         3    ;  uncertainty k = 0.313031
        20        19        18        39     9      180.000000        1.658378         4    ;  uncertainty k = 0.184274
        20        21        22        23     9        0.000000       -0.155174         1    ;  uncertainty k = 0.703132
        20        21        22        23     9      180.000000       25.377245         2    ;  uncertainty k = 0.201440
        20        21        22        23     9        0.000000       -7.238222         3    ;  uncertainty k = 1.442347
        20        21        22        23     9      180.000000        2.150794         4    ;  uncertainty k = 0.359030
        20        21        22        41     9        0.000000       -0.263161         1    ;  uncertainty k = 0.815707
        20        21        22        41     9      180.000000       19.048740         2    ;  uncertainty k = 0.606676
        20        21        22        41     9        0.000000        1.082511         3    ;  uncertainty k = 0.449585
        20        21        22        41     9      180.000000        1.253425         4    ;  uncertainty k = 0.434112
        20        24        23        22     9        0.000000        0.151002         1    ;  uncertainty k = 0.707600
        20        24        23        22     9      180.000000       13.356230         2    ;  uncertainty k = 0.870961
        20        24        23        22     9        0.000000       -8.379865         3    ;  uncertainty k = 1.602182
        20        24        23        22     9      180.000000        0.959700         4    ;  uncertainty k = 0.438201
        20        24        23        42     9        0.000000        5.164848         1    ;  uncertainty k = 2.383832
        20        24        23        42     9      180.000000        5.461665         2    ;  uncertainty k = 1.173273
        20        24        23        42     9        0.000000        0.846112         3    ;  uncertainty k = 0.331355
        20        24        23        42     9      180.000000        0.204749         4    ;  uncertainty k = 0.351390
        20        24        25        43     9        0.000000        0.039379         1    ;  uncertainty k = 0.484321
        20        24        25        43     9      180.000000        7.163868         2    ;  uncertainty k = 0.928748
        20        24        25        43     9        0.000000        1.215979         3    ;  uncertainty k = 0.247073
        20        24        25        43     9      180.000000        1.194517         4    ;  uncertainty k = 0.270688
        21        20        19        40     9        0.000000        0.025328         1    ;  uncertainty k = 0.731800
        21        20        19        40     9      180.000000        5.840067         2    ;  uncertainty k = 0.548105
        21        20        19        40     9        0.000000        1.046932         3    ;  uncertainty k = 0.545978
        21        20        19        40     9      180.000000        0.941202         4    ;  uncertainty k = 0.347326
        21        20        24        23     9        0.000000       -0.013655         1    ;  uncertainty k = 0.574940
        21        20        24        23     9      180.000000       15.084640         2    ;  uncertainty k = 1.007032
        21        20        24        23     9        0.000000       -5.242123         3    ;  uncertainty k = 1.295135
        21        20        24        23     9      180.000000        1.604131         4    ;  uncertainty k = 1.037878
        21        20        24        25     9        0.000000       -0.286097         1    ;  uncertainty k = 0.537860
        21        20        24        25     9      180.000000        8.421582         2    ;  uncertainty k = 0.368898
        21        20        24        25     9        0.000000       -0.513579         3    ;  uncertainty k = 0.488874
        21        20        24        25     9      180.000000        1.436946         4    ;  uncertainty k = 0.413000
        21        22        23        24     9        0.000000       -0.017207         1    ;  uncertainty k = 1.595029
        21        22        23        24     9      180.000000       18.500858         2    ;  uncertainty k = 0.700229
        21        22        23        24     9        0.000000       -8.375807         3    ;  uncertainty k = 1.418732
        21        22        23        24     9      180.000000        1.007467         4    ;  uncertainty k = 0.770776
        21        22        23        42     9        0.000000        3.886432         1    ;  uncertainty k = 2.283679
        21        22        23        42     9      180.000000       14.041337         2    ;  uncertainty k = 0.706958
        21        22        23        42     9        0.000000        1.757013         3    ;  uncertainty k = 0.636786
        21        22        23        42     9      180.000000       -0.462496         4    ;  uncertainty k = 0.326154
        22        21        20        24     9        0.000000       -0.183022         1    ;  uncertainty k = 0.931142
        22        21        20        24     9      180.000000       14.667691         2    ;  uncertainty k = 0.528930
        22        21        20        24     9        0.000000       -7.995557         3    ;  uncertainty k = 0.944403
        22        21        20        24     9      180.000000        2.353347         4    ;  uncertainty k = 0.126052
        22        23        24        25     9        0.000000        0.966769         1    ;  uncertainty k = 1.938182
        22        23        24        25     9      180.000000        4.756579         2    ;  uncertainty k = 0.632477
        22        23        24        25     9        0.000000        0.351868         3    ;  uncertainty k = 0.496723
        22        23        24        25     9      180.000000        0.344363         4    ;  uncertainty k = 0.206770
        23        24        25        43     9        0.000000        0.190682         1    ;  uncertainty k = 0.321202
        23        24        25        43     9      180.000000        5.754866         2    ;  uncertainty k = 0.555594
        23        24        25        43     9        0.000000        1.232556         3    ;  uncertainty k = 0.405401
        23        24        25        43     9      180.000000        0.872280         4    ;  uncertainty k = 0.361857
        24        20        19        40     9        0.000000        0.181655         1    ;  uncertainty k = 0.249743
        24        20        19        40     9      180.000000        6.602668         2    ;  uncertainty k = 0.779120
        24        20        19        40     9        0.000000        1.214688         3    ;  uncertainty k = 0.178562
        24        20        19        40     9      180.000000        1.166758         4    ;  uncertainty k = 0.344646
        24        23        22        41     9        0.000000        0.882124         1    ;  uncertainty k = 0.484752
        24        23        22        41     9      180.000000        7.277382         2    ;  uncertainty k = 0.747571
        24        23        22        41     9        0.000000        1.560758         3    ;  uncertainty k = 0.341312
        24        23        22        41     9      180.000000        0.110157         4    ;  uncertainty k = 0.196205
        25        17        18        39     9        0.000000       -0.080146         1    ;  uncertainty k = 0.111392
        25        17        18        39     9      180.000000        6.421910         2    ;  uncertainty k = 0.503633
        25        17        18        39     9        0.000000        1.264444         3    ;  uncertainty k = 0.113835
        25        17        18        39     9      180.000000        1.539121         4    ;  uncertainty k = 0.250033
        25        24        23        42     9        0.000000        2.114195         1    ;  uncertainty k = 0.824889
        25        24        23        42     9      180.000000        1.328738         2    ;  uncertainty k = 0.679678
        25        24        23        42     9        0.000000        1.112548         3    ;  uncertainty k = 0.474784
        25        24        23        42     9      180.000000        0.104274         4    ;  uncertainty k = 0.225952
        26         6         5        34     9        0.000000        0.060116         1    ;  uncertainty k = 0.285327
        26         6         5        34     9      180.000000        6.705137         2    ;  uncertainty k = 0.811645
        26         6         5        34     9        0.000000        1.254749         3    ;  uncertainty k = 0.282861
        26         6         5        34     9      180.000000        1.489480         4    ;  uncertainty k = 0.123486
        26         6         7        35     9        0.000000        3.766903         1    ;  uncertainty k = 0.282406
        26         6         7        35     9      180.000000        4.224135         2    ;  uncertainty k = 0.219472
        26         6         7        35     9        0.000000        0.731781         3    ;  uncertainty k = 0.239894
        26         6         7        35     9      180.000000        0.435986         4    ;  uncertainty k = 0.107235
        26        27        28        29     9        0.000000        1.341409         1    ;  uncertainty k = 0.791973
        26        27        28        29     9      180.000000        6.361826         2    ;  uncertainty k = 0.220151
        26        27        28        29     9        0.000000       -0.225719         3    ;  uncertainty k = 0.095998
        26        27        28        29     9      180.000000        0.006631         4    ;  uncertainty k = 0.110606
        27         3         4        33     9        0.000000       -0.032441         1    ;  uncertainty k = 0.368382
        27         3         4        33     9      180.000000        5.959632         2    ;  uncertainty k = 0.432853
        27         3         4        33     9        0.000000        1.321132         3    ;  uncertainty k = 0.261791
        27         3         4        33     9      180.000000        1.598351         4    ;  uncertainty k = 0.068542
        27        28        29        45     9        0.000000        1.110243         1    ;  uncertainty k = 0.221947
        27        28        29        45     9      180.000000       -2.083404         2    ;  uncertainty k = 0.117430
        27        28        29        45     9        0.000000        1.033193         3    ;  uncertainty k = 0.049823
        27        28        29        45     9      180.000000        0.223294         4    ;  uncertainty k = 0.039928
        27        28        29        46     9        0.000000        1.110243         1    ;  uncertainty k = 0.221947
        27        28        29        46     9      180.000000       -2.083404         2    ;  uncertainty k = 0.117430
        27        28        29        46     9        0.000000        1.033193         3    ;  uncertainty k = 0.049823
        27        28        29        46     9      180.000000        0.223294         4    ;  uncertainty k = 0.039928
        27        28        29        47     9        0.000000        1.110243         1    ;  uncertainty k = 0.221947
        27        28        29        47     9      180.000000       -2.083404         2    ;  uncertainty k = 0.117430
        27        28        29        47     9        0.000000        1.033193         3    ;  uncertainty k = 0.049823
        27        28        29        47     9      180.000000        0.223294         4    ;  uncertainty k = 0.039928
        28        27        26        44     9        0.000000       -0.013362         1    ;  uncertainty k = 0.227812
        28        27        26        44     9      180.000000        9.629865         2    ;  uncertainty k = 0.341224
        28        27        26        44     9        0.000000        0.885574         3    ;  uncertainty k = 0.134168
        28        27        26        44     9      180.000000        1.294493         4    ;  uncertainty k = 0.314813
        33         4         5        34     9        0.000000       -0.108356         1    ;  uncertainty k = 0.187628
        33         4         5        34     9      180.000000        7.451232         2    ;  uncertainty k = 0.478631
        33         4         5        34     9        0.000000       -0.297348         3    ;  uncertainty k = 0.298879
        33         4         5        34     9      180.000000        0.257401         4    ;  uncertainty k = 0.173209
        37        13        14        38     9        0.000000       -0.311075         1    ;  uncertainty k = 0.492453
        37        13        14        38     9      180.000000        5.384359         2    ;  uncertainty k = 0.598234
        37        13        14        38     9        0.000000        1.243313         3    ;  uncertainty k = 0.430720
        37        13        14        38     9      180.000000        0.271791         4    ;  uncertainty k = 0.092255
        39        18        19        40     9        0.000000       -0.255729         1    ;  uncertainty k = 0.194991
        39        18        19        40     9      180.000000        7.775693         2    ;  uncertainty k = 0.424084
        39        18        19        40     9        0.000000       -0.151465         3    ;  uncertainty k = 0.199494
        39        18        19        40     9      180.000000        0.322715         4    ;  uncertainty k = 0.242761
        41        22        23        42     9        0.000000       -1.136757         1    ;  uncertainty k = 1.104979
        41        22        23        42     9      180.000000        1.759662         2    ;  uncertainty k = 0.445484
        41        22        23        42     9        0.000000        1.149836         3    ;  uncertainty k = 0.401444
        41        22        23        42     9      180.000000        0.111956         4    ;  uncertainty k = 0.134624

[ dihedrals ] ; impropers
;       ai        aj        ak        al funct           phase               k        pn
         3         2         4        27     4      180.000000       15.206029         2    ;  uncertainty k = 0.074967
         3         4        27         2     4      180.000000       15.206029         2    ;  uncertainty k = 0.074967
         3        27         2         4     4      180.000000       15.206029         2    ;  uncertainty k = 0.074967
         4         3         5        33     4      180.000000        2.008335         2    ;  uncertainty k = 0.230964
         4         5        33         3     4      180.000000        2.008335         2    ;  uncertainty k = 0.230964
         4        33         3         5     4      180.000000        2.008335         2    ;  uncertainty k = 0.230964
         5         4         6        34     4      180.000000        2.607477         2    ;  uncertainty k = 0.379217
         5         6        34         4     4      180.000000        2.607477         2    ;  uncertainty k = 0.379217
         5        34         4         6     4      180.000000        2.607477         2    ;  uncertainty k = 0.379217
         6         5         7        26     4      180.000000       17.507517         2    ;  uncertainty k = 0.057196
         6         7        26         5     4      180.000000       17.507517         2    ;  uncertainty k = 0.057196
         6        26         5         7     4      180.000000       17.507517         2    ;  uncertainty k = 0.057196
         7         6         8        35     4      180.000000        1.622505         2    ;  uncertainty k = 0.666333
         7         8        35         6     4      180.000000        1.622505         2    ;  uncertainty k = 0.666333
         7        35         6         8     4      180.000000        1.622505         2    ;  uncertainty k = 0.666333
         8         7         9        16     4      180.000000       28.362349         2    ;  uncertainty k = 0.062990
         8         9        16         7     4      180.000000       28.362349         2    ;  uncertainty k = 0.062990
         8        16         7         9     4      180.000000       28.362349         2    ;  uncertainty k = 0.062990
        10         9        11        17     4      180.000000       19.315591         2    ;  uncertainty k = 0.081127
        10        11        17         9     4      180.000000       19.315591         2    ;  uncertainty k = 0.081127
        10        17         9        11     4      180.000000       19.315591         2    ;  uncertainty k = 0.081127
        11        10        12        36     4      180.000000        1.291985         2    ;  uncertainty k = 1.146498
        11        12        36        10     4      180.000000        1.291985         2    ;  uncertainty k = 1.146498
        11        36        10        12     4      180.000000        1.291985         2    ;  uncertainty k = 1.146498
        12        11        13        16     4      180.000000        1.588086         2    ;  uncertainty k = 1.398469
        12        13        16        11     4      180.000000        1.588086         2    ;  uncertainty k = 1.398469
        12        16        11        13     4      180.000000        1.588086         2    ;  uncertainty k = 1.398469
        13        12        14        37     4      180.000000        0.105195         2    ;  uncertainty k = 0.235223
        13        14        37        12     4      180.000000        0.105195         2    ;  uncertainty k = 0.235223
        13        37        12        14     4      180.000000        0.105195         2    ;  uncertainty k = 0.235223
        14        13        15        38     4      180.000000        1.779599         2    ;  uncertainty k = 0.230150
        14        15        38        13     4      180.000000        1.779599         2    ;  uncertainty k = 0.230150
        14        38        13        15     4      180.000000        1.779599         2    ;  uncertainty k = 0.230150
        16         8        12        15     4      180.000000        2.165381         2    ;  uncertainty k = 0.627947
        16        12        15         8     4      180.000000        2.165381         2    ;  uncertainty k = 0.627947
        16        15         8        12     4      180.000000        2.165381         2    ;  uncertainty k = 0.627947
        17        10        18        25     4      180.000000       11.026477         2    ;  uncertainty k = 0.123929
        17        18        25        10     4      180.000000       11.026477         2    ;  uncertainty k = 0.123929
        17        25        10        18     4      180.000000       11.026477         2    ;  uncertainty k = 0.123929
        18        17        19        39     4      180.000000        3.107146         2    ;  uncertainty k = 0.164647
        18        19        39        17     4      180.000000        3.107146         2    ;  uncertainty k = 0.164647
        18        39        17        19     4      180.000000        3.107146         2    ;  uncertainty k = 0.164647
        19        18        20        40     4      180.000000        3.922699         2    ;  uncertainty k = 0.259764
        19        20        40        18     4      180.000000        3.922699         2    ;  uncertainty k = 0.259764
        19        40        18        20     4      180.000000        3.922699         2    ;  uncertainty k = 0.259764
        20        19        21        24     4      180.000000        0.449662         2    ;  uncertainty k = 0.429961
        20        21        24        19     4      180.000000        0.449662         2    ;  uncertainty k = 0.429961
        20        24        19        21     4      180.000000        0.449662         2    ;  uncertainty k = 0.429961
        22        21        23        41     4      180.000000        4.906340         2    ;  uncertainty k = 0.271936
        22        23        41        21     4      180.000000        4.906340         2    ;  uncertainty k = 0.271936
        22        41        21        23     4      180.000000        4.906340         2    ;  uncertainty k = 0.271936
        24        20        23        25     4      180.000000        0.344294         2    ;  uncertainty k = 0.769864
        24        23        25        20     4      180.000000        0.344294         2    ;  uncertainty k = 0.769864
        24        25        20        23     4      180.000000        0.344294         2    ;  uncertainty k = 0.769864
        25        17        24        43     4      180.000000        2.699677         2    ;  uncertainty k = 0.077340
        25        24        43        17     4      180.000000        2.699677         2    ;  uncertainty k = 0.077340
        25        43        17        24     4      180.000000        2.699677         2    ;  uncertainty k = 0.077340
        26         6        27        44     4      180.000000        1.689049         2    ;  uncertainty k = 0.529654
        26        27        44         6     4      180.000000        1.689049         2    ;  uncertainty k = 0.529654
        26        44         6        27     4      180.000000        1.689049         2    ;  uncertainty k = 0.529654
        27         3        26        28     4      180.000000       16.672261         2    ;  uncertainty k = 0.075717
        27        26        28         3     4      180.000000       16.672261         2    ;  uncertainty k = 0.075717
        27        28         3        26     4      180.000000       16.672261         2    ;  uncertainty k = 0.075717

[ pairs ]
;       ai        aj funct
         1         4     1
         1        27     1
         2         5     1
         2        26     1
         2        28     1
         2        33     1
         3         6     1
         3        29     1
         3        30     1
         3        31     1
         3        32     1
         3        34     1
         3        44     1
         4         7     1
         4        26     1
         4        28     1
         5         8     1
         5        27     1
         5        35     1
         5        44     1
         6         9     1
         6        16     1
         6        28     1
         6        33     1
         7        10     1
         7        12     1
         7        15     1
         7        27     1
         7        34     1
         7        44     1
         8        11     1
         8        13     1
         8        14     1
         8        17     1
         8        26     1
         9        12     1
         9        15     1
         9        18     1
         9        25     1
         9        35     1
         9        36     1
        10        13     1
        10        16     1
        10        19     1
        10        24     1
        10        39     1
        10        43     1
        11        14     1
        11        15     1
        11        18     1
        11        25     1
        11        37     1
        12        17     1
        12        38     1
        13        36     1
        15        37     1
        16        35     1
        16        36     1
        16        37     1
        16        38     1
        17        20     1
        17        23     1
        17        36     1
        17        40     1
        18        21     1
        18        24     1
        18        43     1
        19        22     1
        19        23     1
        19        25     1
        20        39     1
        20        41     1
        20        42     1
        20        43     1
        21        25     1
        21        40     1
        21        42     1
        22        25     1
        23        43     1
        24        40     1
        24        41     1
        25        39     1
        25        42     1
        26        29     1
        26        34     1
        26        35     1
        27        33     1
        27        45     1
        27        46     1
        27        47     1
        28        44     1
        33        34     1
        37        38     1
        39        40     1
        41        42     1
