; ITP file created by ByteFF-joint-25, 2026-02-17 09:43:12.052844

[ atomtypes ]
;name           bonded.type        at.num        mass        charge   ptype           sigma         epsilon
 c0bf                                   6      0.0000       0.00000       A     3.39774e-01     4.50890e-01    ;  uncertainty sigma = 0.000006, epsilon = 0.000514
 o1bf                                   8      0.0000       0.00000       A     3.15641e-01     3.03850e-01    ;  uncertainty sigma = 0.000015, epsilon = 0.000455
 c2bf                                   6      0.0000       0.00000       A     3.31526e-01     4.13474e-01    ;  uncertainty sigma = 0.000006, epsilon = 0.000721
 c3bf                                   6      0.0000       0.00000       A     3.31529e-01     4.13640e-01    ;  uncertainty sigma = 0.000005, epsilon = 0.000792
 c4bf                                   6      0.0000       0.00000       A     3.31525e-01     4.13354e-01    ;  uncertainty sigma = 0.000006, epsilon = 0.000662
 c5bf                                   6      0.0000       0.00000       A     3.31528e-01     4.13588e-01    ;  uncertainty sigma = 0.000010, epsilon = 0.000818
 n6bf                                   7      0.0000       0.00000       A     3.27852e-01     6.46169e-01    ;  uncertainty sigma = 0.000043, epsilon = 0.003219
 c7bf                                   6      0.0000       0.00000       A     3.31526e-01     4.13887e-01    ;  uncertainty sigma = 0.000017, epsilon = 0.001682
 n8bf                                   7      0.0000       0.00000       A     3.38464e-01     3.93259e-01    ;  uncertainty sigma = 0.000031, epsilon = 0.000673
 c9bf                                   6      0.0000       0.00000       A     3.31551e-01     4.13486e-01    ;  uncertainty sigma = 0.000024, epsilon = 0.000753
 c10bf                                  6      0.0000       0.00000       A     3.31560e-01     4.13634e-01    ;  uncertainty sigma = 0.000013, epsilon = 0.001540
 n11bf                                  7      0.0000       0.00000       A     3.20547e-01     8.53303e-01    ;  uncertainty sigma = 0.000017, epsilon = 0.000844
 c12bf                                  6      0.0000       0.00000       A     3.31503e-01     4.12978e-01    ;  uncertainty sigma = 0.000012, epsilon = 0.001136
 c13bf                                  6      0.0000       0.00000       A     3.31531e-01     4.13187e-01    ;  uncertainty sigma = 0.000008, epsilon = 0.000699
 n14bf                                  7      0.0000       0.00000       A     3.38427e-01     3.92895e-01    ;  uncertainty sigma = 0.000039, epsilon = 0.000415
 c15bf                                  6      0.0000       0.00000       A     3.31554e-01     4.12537e-01    ;  uncertainty sigma = 0.000015, epsilon = 0.000432
 c16bf                                  6      0.0000       0.00000       A     3.31493e-01     4.12905e-01    ;  uncertainty sigma = 0.000022, epsilon = 0.000830
 c17bf                                  6      0.0000       0.00000       A     3.31521e-01     4.13252e-01    ;  uncertainty sigma = 0.000009, epsilon = 0.000609
 c18bf                                  6      0.0000       0.00000       A     3.31532e-01     4.13283e-01    ;  uncertainty sigma = 0.000006, epsilon = 0.000375
 c19bf                                  6      0.0000       0.00000       A     3.31537e-01     4.13511e-01    ;  uncertainty sigma = 0.000014, epsilon = 0.000665
 n20bf                                  7      0.0000       0.00000       A     3.27020e-01     4.91087e-01    ;  uncertainty sigma = 0.000025, epsilon = 0.002142
 c21bf                                  6      0.0000       0.00000       A     3.31511e-01     4.13527e-01    ;  uncertainty sigma = 0.000012, epsilon = 0.000797
 o22bf                                  8      0.0000       0.00000       A     3.04830e-01     6.12418e-01    ;  uncertainty sigma = 0.000026, epsilon = 0.001244
 c23bf                                  6      0.0000       0.00000       A     3.39756e-01     4.50901e-01    ;  uncertainty sigma = 0.000008, epsilon = 0.001346
 o24bf                                  8      0.0000       0.00000       A     3.15649e-01     3.05077e-01    ;  uncertainty sigma = 0.000025, epsilon = 0.001868
 c25bf                                  6      0.0000       0.00000       A     3.31518e-01     4.13594e-01    ;  uncertainty sigma = 0.000010, epsilon = 0.000399
 c26bf                                  6      0.0000       0.00000       A     3.31523e-01     4.13305e-01    ;  uncertainty sigma = 0.000010, epsilon = 0.000599
 c27bf                                  6      0.0000       0.00000       A     3.31516e-01     4.13129e-01    ;  uncertainty sigma = 0.000010, epsilon = 0.000957
 c28bf                                  6      0.0000       0.00000       A     3.31531e-01     4.13728e-01    ;  uncertainty sigma = 0.000008, epsilon = 0.001049
 o29bf                                  8      0.0000       0.00000       A     3.15636e-01     3.03949e-01    ;  uncertainty sigma = 0.000015, epsilon = 0.000670
 c30bf                                  6      0.0000       0.00000       A     3.39774e-01     4.50890e-01    ;  uncertainty sigma = 0.000006, epsilon = 0.000514
 h31bf                                  1      0.0000       0.00000       A     2.42205e-01     8.67538e-02    ;  uncertainty sigma = 0.000015, epsilon = 0.000624
 h32bf                                  1      0.0000       0.00000       A     2.42205e-01     8.67538e-02    ;  uncertainty sigma = 0.000015, epsilon = 0.000624
 h33bf                                  1      0.0000       0.00000       A     2.42205e-01     8.67538e-02    ;  uncertainty sigma = 0.000015, epsilon = 0.000624
 h34bf                                  1      0.0000       0.00000       A     2.62570e-01     6.70700e-02    ;  uncertainty sigma = 0.000012, epsilon = 0.000330
 h35bf                                  1      0.0000       0.00000       A     2.62564e-01     6.70248e-02    ;  uncertainty sigma = 0.000015, epsilon = 0.000426
 h36bf                                  1      0.0000       0.00000       A     1.10708e-01     4.06502e-02    ;  uncertainty sigma = 0.000118, epsilon = 0.000465
 h37bf                                  1      0.0000       0.00000       A     2.53612e-01     6.73649e-02    ;  uncertainty sigma = 0.000081, epsilon = 0.000889
 h38bf                                  1      0.0000       0.00000       A     2.53649e-01     6.68496e-02    ;  uncertainty sigma = 0.000023, epsilon = 0.000657
 h39bf                                  1      0.0000       0.00000       A     2.53645e-01     6.69492e-02    ;  uncertainty sigma = 0.000020, epsilon = 0.000834
 h40bf                                  1      0.0000       0.00000       A     2.62558e-01     6.71945e-02    ;  uncertainty sigma = 0.000011, epsilon = 0.000502
 h41bf                                  1      0.0000       0.00000       A     2.62568e-01     6.70597e-02    ;  uncertainty sigma = 0.000012, epsilon = 0.000523
 h42bf                                  1      0.0000       0.00000       A     1.10680e-01     4.08704e-02    ;  uncertainty sigma = 0.000035, epsilon = 0.000690
 h43bf                                  1      0.0000       0.00000       A     2.42181e-01     8.72847e-02    ;  uncertainty sigma = 0.000040, epsilon = 0.000685
 h44bf                                  1      0.0000       0.00000       A     2.42181e-01     8.72847e-02    ;  uncertainty sigma = 0.000040, epsilon = 0.000685
 h45bf                                  1      0.0000       0.00000       A     2.62559e-01     6.71085e-02    ;  uncertainty sigma = 0.000012, epsilon = 0.000572
 h46bf                                  1      0.0000       0.00000       A     2.62560e-01     6.71373e-02    ;  uncertainty sigma = 0.000017, epsilon = 0.000539
 h47bf                                  1      0.0000       0.00000       A     2.42205e-01     8.67537e-02    ;  uncertainty sigma = 0.000015, epsilon = 0.000624
 h48bf                                  1      0.0000       0.00000       A     2.42205e-01     8.67538e-02    ;  uncertainty sigma = 0.000015, epsilon = 0.000624
 h49bf                                  1      0.0000       0.00000       A     2.42205e-01     8.67538e-02    ;  uncertainty sigma = 0.000015, epsilon = 0.000624

[ moleculetype ]
;name             nrexcl
 MOL                   3

[ atoms ]
;       nr            type      resi   res      atom      cgnr      charge          mass ; qtot
         1            c0bf         1   UNL        c0         1     0.11960       12.0110 ; qtot    0.120
         2            o1bf         1   UNL        o1         2    -0.32010       15.9990 ; qtot   -0.201
         3            c2bf         1   UNL        c2         3     0.07584       12.0110 ; qtot   -0.125
         4            c3bf         1   UNL        c3         4    -0.15014       12.0110 ; qtot   -0.275
         5            c4bf         1   UNL        c4         5    -0.15106       12.0110 ; qtot   -0.426
         6            c5bf         1   UNL        c5         6     0.16694       12.0110 ; qtot   -0.259
         7            n6bf         1   UNL        n6         7    -0.73903       14.0070 ; qtot   -0.998
         8            c7bf         1   UNL        c7         8     0.75081       12.0110 ; qtot   -0.247
         9            n8bf         1   UNL        n8         9    -0.77000       14.0070 ; qtot   -1.017
        10            c9bf         1   UNL        c9        10     0.47783       12.0110 ; qtot   -0.539
        11           c10bf         1   UNL       c10        11    -0.21801       12.0110 ; qtot   -0.757
        12           n11bf         1   UNL       n11        12     0.05331       14.0070 ; qtot   -0.704
        13           c12bf         1   UNL       c12        13    -0.21243       12.0110 ; qtot   -0.916
        14           c13bf         1   UNL       c13        14     0.01175       12.0110 ; qtot   -0.905
        15           n14bf         1   UNL       n14        15    -0.27543       14.0070 ; qtot   -1.180
        16           c15bf         1   UNL       c15        16    -0.18460       12.0110 ; qtot   -1.365
        17           c16bf         1   UNL       c16        17    -0.12510       12.0110 ; qtot   -1.490
        18           c17bf         1   UNL       c17        18    -0.09836       12.0110 ; qtot   -1.588
        19           c18bf         1   UNL       c18        19    -0.14658       12.0110 ; qtot   -1.735
        20           c19bf         1   UNL       c19        20     0.03506       12.0110 ; qtot   -1.700
        21           n20bf         1   UNL       n20        21    -0.47423       14.0070 ; qtot   -2.174
        22           c21bf         1   UNL       c21        22     0.68275       12.0110 ; qtot   -1.491
        23           o22bf         1   UNL       o22        23    -0.59770       15.9990 ; qtot   -2.089
        24           c23bf         1   UNL       c23        24     0.05450       12.0110 ; qtot   -2.034
        25           o24bf         1   UNL       o24        25    -0.30635       15.9990 ; qtot   -2.341
        26           c25bf         1   UNL       c25        26     0.06967       12.0110 ; qtot   -2.271
        27           c26bf         1   UNL       c26        27    -0.09810       12.0110 ; qtot   -2.369
        28           c27bf         1   UNL       c27        28    -0.20840       12.0110 ; qtot   -2.578
        29           c28bf         1   UNL       c28        29     0.11790       12.0110 ; qtot   -2.460
        30           o29bf         1   UNL       o29        30    -0.31927       15.9990 ; qtot   -2.779
        31           c30bf         1   UNL       c30        31     0.11995       12.0110 ; qtot   -2.659
        32           h31bf         1   UNL       h31        32     0.04337        1.0080 ; qtot   -2.616
        33           h32bf         1   UNL       h32        33     0.04337        1.0080 ; qtot   -2.572
        34           h33bf         1   UNL       h33        34     0.04337        1.0080 ; qtot   -2.529
        35           h34bf         1   UNL       h34        35     0.14091        1.0080 ; qtot   -2.388
        36           h35bf         1   UNL       h35        36     0.15302        1.0080 ; qtot   -2.235
        37           h36bf         1   UNL       h36        37     0.46165        1.0080 ; qtot   -1.773
        38           h37bf         1   UNL       h37        38     0.17436        1.0080 ; qtot   -1.599
        39           h38bf         1   UNL       h38        39     0.18619        1.0080 ; qtot   -1.413
        40           h39bf         1   UNL       h39        40     0.17120        1.0080 ; qtot   -1.242
        41           h40bf         1   UNL       h40        41     0.14633        1.0080 ; qtot   -1.095
        42           h41bf         1   UNL       h41        42     0.14469        1.0080 ; qtot   -0.951
        43           h42bf         1   UNL       h42        43     0.33419        1.0080 ; qtot   -0.616
        44           h43bf         1   UNL       h43        44     0.08731        1.0080 ; qtot   -0.529
        45           h44bf         1   UNL       h44        45     0.08731        1.0080 ; qtot   -0.442
        46           h45bf         1   UNL       h45        46     0.15594        1.0080 ; qtot   -0.286
        47           h46bf         1   UNL       h46        47     0.15565        1.0080 ; qtot   -0.130
        48           h47bf         1   UNL       h47        48     0.04337        1.0080 ; qtot   -0.087
        49           h48bf         1   UNL       h48        49     0.04337        1.0080 ; qtot   -0.043
        50           h49bf         1   UNL       h49        50     0.04338        1.0080 ; qtot   -0.000

[ bonds ]
;       ai        aj funct               r               k
         1         2     1        0.142504   247060.424561    ;  uncertainty r = 0.000030, k = 4.357279
         1        32     1        0.109559   311162.501807    ;  uncertainty r = 0.000020, k = 1.272505
         1        33     1        0.109559   311162.501807    ;  uncertainty r = 0.000020, k = 1.272505
         1        34     1        0.109559   311162.501807    ;  uncertainty r = 0.000020, k = 1.272505
         2         3     1        0.136892   321113.062012    ;  uncertainty r = 0.000059, k = 4.532937
         3         4     1        0.139488   349133.425439    ;  uncertainty r = 0.000031, k = 2.724656
         3        29     1        0.140227   349402.969629    ;  uncertainty r = 0.000054, k = 7.584627
         4         5     1        0.139369   369864.655127    ;  uncertainty r = 0.000071, k = 2.574425
         4        35     1        0.108705   336290.634375    ;  uncertainty r = 0.000024, k = 1.905467
         5         6     1        0.139713   352891.517529    ;  uncertainty r = 0.000095, k = 4.859039
         5        36     1        0.108700   336152.248779    ;  uncertainty r = 0.000031, k = 1.798265
         6         7     1        0.141333   346668.455957    ;  uncertainty r = 0.000119, k = 12.315044
         6        28     1        0.140236   355873.307031    ;  uncertainty r = 0.000083, k = 5.100092
         7         8     1        0.137988   330814.533252    ;  uncertainty r = 0.000224, k = 31.605630
         7        37     1        0.102091   426736.870264    ;  uncertainty r = 0.000039, k = 5.302920
         8         9     1        0.132299   443077.019531    ;  uncertainty r = 0.000191, k = 13.204157
         8        16     1        0.143016   286566.945654    ;  uncertainty r = 0.000095, k = 10.976562
         9        10     1        0.137529   260164.153809    ;  uncertainty r = 0.000224, k = 24.994159
        10        11     1        0.136968   380160.374902    ;  uncertainty r = 0.000113, k = 12.922025
        10        17     1        0.147154   265225.506738    ;  uncertainty r = 0.000164, k = 12.152811
        11        12     1        0.137882   325077.442871    ;  uncertainty r = 0.000063, k = 6.431296
        11        38     1        0.108486   340803.731104    ;  uncertainty r = 0.000071, k = 2.327724
        12        13     1        0.137812   342777.341064    ;  uncertainty r = 0.000099, k = 5.087994
        12        16     1        0.139016   307421.213135    ;  uncertainty r = 0.000151, k = 23.940608
        13        14     1        0.138713   413349.321582    ;  uncertainty r = 0.000044, k = 11.515297
        13        39     1        0.108153   341281.121826    ;  uncertainty r = 0.000029, k = 4.725656
        14        15     1        0.136694   264650.947314    ;  uncertainty r = 0.000104, k = 21.676776
        14        40     1        0.108374   336399.626758    ;  uncertainty r = 0.000052, k = 2.763000
        15        16     1        0.133277   447135.785547    ;  uncertainty r = 0.000097, k = 11.841721
        17        18     1        0.140181   345314.478418    ;  uncertainty r = 0.000033, k = 3.387962
        17        27     1        0.139970   353728.343066    ;  uncertainty r = 0.000056, k = 3.585975
        18        19     1        0.139139   367358.928418    ;  uncertainty r = 0.000036, k = 1.593207
        18        41     1        0.108665   333433.797949    ;  uncertainty r = 0.000015, k = 1.538260
        19        20     1        0.139722   360084.733887    ;  uncertainty r = 0.000062, k = 10.817345
        19        42     1        0.108882   337005.188232    ;  uncertainty r = 0.000016, k = 1.160551
        20        21     1        0.140620   332169.404590    ;  uncertainty r = 0.000086, k = 7.944643
        20        26     1        0.140079   347694.000732    ;  uncertainty r = 0.000051, k = 6.634623
        21        22     1        0.137261   361010.428564    ;  uncertainty r = 0.000060, k = 9.798341
        21        43     1        0.101737   425938.427002    ;  uncertainty r = 0.000057, k = 1.072950
        22        23     1        0.122783   776676.553320    ;  uncertainty r = 0.000037, k = 9.765893
        22        24     1        0.152103   223330.525342    ;  uncertainty r = 0.000099, k = 6.065703
        24        25     1        0.143252   257707.918018    ;  uncertainty r = 0.000071, k = 11.835629
        24        44     1        0.109578   315700.982422    ;  uncertainty r = 0.000040, k = 4.973060
        24        45     1        0.109578   315700.982422    ;  uncertainty r = 0.000040, k = 4.973060
        25        26     1        0.137229   319876.376416    ;  uncertainty r = 0.000048, k = 7.787828
        26        27     1        0.138911   354998.916406    ;  uncertainty r = 0.000115, k = 6.298657
        27        46     1        0.108767   337173.350098    ;  uncertainty r = 0.000023, k = 2.031756
        28        29     1        0.139270   345625.520410    ;  uncertainty r = 0.000054, k = 5.224456
        28        47     1        0.108746   339222.268994    ;  uncertainty r = 0.000057, k = 2.203703
        29        30     1        0.136641   322875.224707    ;  uncertainty r = 0.000095, k = 4.764590
        30        31     1        0.142472   247648.314355    ;  uncertainty r = 0.000036, k = 5.188422
        31        48     1        0.109559   311162.501807    ;  uncertainty r = 0.000020, k = 1.272500
        31        49     1        0.109559   311162.501807    ;  uncertainty r = 0.000020, k = 1.272491
        31        50     1        0.109559   311162.501807    ;  uncertainty r = 0.000020, k = 1.272497

[ angles ]
;       ai        aj        ak funct           theta             cth
         1         2         3     1      110.612503      514.276204    ;  uncertainty theta = 0.001142, k = 0.053109
         2         1        32     1      108.817703      445.633093    ;  uncertainty theta = 0.001397, k = 0.017155
         2         1        33     1      108.817703      445.633093    ;  uncertainty theta = 0.001397, k = 0.017155
         2         1        34     1      108.817703      445.633093    ;  uncertainty theta = 0.001397, k = 0.017155
         2         3         4     1      120.713829      429.663653    ;  uncertainty theta = 0.002887, k = 0.102450
         2         3        29     1      116.739212      371.002135    ;  uncertainty theta = 0.004292, k = 0.133275
         3         4         5     1      122.308617      511.833707    ;  uncertainty theta = 0.002874, k = 0.098838
         3         4        35     1      117.399475      269.501128    ;  uncertainty theta = 0.000644, k = 0.068639
         3        29        28     1      122.924828      372.294473    ;  uncertainty theta = 0.004880, k = 0.131595
         3        29        30     1      116.892052      375.388038    ;  uncertainty theta = 0.003912, k = 0.086739
         4         3        29     1      121.473427      368.904773    ;  uncertainty theta = 0.004194, k = 0.139265
         4         5         6     1      119.248634      497.970121    ;  uncertainty theta = 0.001680, k = 0.102369
         4         5        36     1      121.012962      296.103549    ;  uncertainty theta = 0.002653, k = 0.108838
         5         4        35     1      120.002708      276.762860    ;  uncertainty theta = 0.000635, k = 0.063553
         5         6         7     1      120.412048      523.951864    ;  uncertainty theta = 0.002787, k = 0.145671
         5         6        28     1      119.564781      370.288948    ;  uncertainty theta = 0.004616, k = 0.068311
         6         5        36     1      119.526833      271.877771    ;  uncertainty theta = 0.001413, k = 0.081499
         6         7         8     1      116.303787      381.015013    ;  uncertainty theta = 0.002927, k = 0.210540
         6         7        37     1      114.186111      355.760727    ;  uncertainty theta = 0.005751, k = 0.200139
         6        28        29     1      121.379723      503.759991    ;  uncertainty theta = 0.003678, k = 0.097545
         6        28        47     1      119.577965      269.429783    ;  uncertainty theta = 0.003301, k = 0.060634
         7         6        28     1      119.861717      533.495177    ;  uncertainty theta = 0.003869, k = 0.077420
         7         8         9     1      122.093460      743.912723    ;  uncertainty theta = 0.005955, k = 0.186993
         7         8        16     1      118.339066      493.433486    ;  uncertainty theta = 0.006804, k = 0.121645
         8         7        37     1      117.061234      430.294771    ;  uncertainty theta = 0.006370, k = 0.198641
         8         9        10     1      121.119980      436.404173    ;  uncertainty theta = 0.009451, k = 0.247578
         8        16        12     1      111.142784      333.997874    ;  uncertainty theta = 0.012736, k = 0.456017
         8        16        15     1      125.515465      293.447945    ;  uncertainty theta = 0.008643, k = 0.324339
         9         8        16     1      122.411903      559.581718    ;  uncertainty theta = 0.006082, k = 0.248184
         9        10        11     1      124.579140      547.144826    ;  uncertainty theta = 0.003207, k = 0.241804
         9        10        17     1      117.091080      447.975644    ;  uncertainty theta = 0.001645, k = 0.088687
        10        11        12     1      117.549393      533.588260    ;  uncertainty theta = 0.004450, k = 0.194458
        10        11        38     1      124.592453      233.105799    ;  uncertainty theta = 0.008736, k = 0.227204
        10        17        18     1      119.886215      408.957239    ;  uncertainty theta = 0.002361, k = 0.154923
        10        17        27     1      119.463539      394.423431    ;  uncertainty theta = 0.002641, k = 0.233241
        11        10        17     1      121.256104      378.541839    ;  uncertainty theta = 0.005452, k = 0.088630
        11        12        13     1      129.651398      428.742370    ;  uncertainty theta = 0.002325, k = 0.325404
        11        12        16     1      117.440002      429.448183    ;  uncertainty theta = 0.007494, k = 0.179672
        12        11        38     1      117.408119      315.442387    ;  uncertainty theta = 0.003544, k = 0.139192
        12        13        14     1      105.324829      767.668044    ;  uncertainty theta = 0.004981, k = 0.189091
        12        13        39     1      119.539230      282.399762    ;  uncertainty theta = 0.002926, k = 0.163945
        12        16        15     1      114.523727      791.406958    ;  uncertainty theta = 0.003446, k = 0.159720
        13        12        16     1      106.195152      846.636320    ;  uncertainty theta = 0.003800, k = 0.266753
        13        14        15     1      111.223167      865.900238    ;  uncertainty theta = 0.003390, k = 0.157111
        13        14        40     1      125.339600      238.965624    ;  uncertainty theta = 0.004247, k = 0.092338
        14        13        39     1      130.781433      240.351858    ;  uncertainty theta = 0.003259, k = 0.025087
        14        15        16     1      106.065872      820.721453    ;  uncertainty theta = 0.001716, k = 0.145916
        15        14        40     1      119.156937      297.238833    ;  uncertainty theta = 0.004129, k = 0.152925
        17        18        19     1      121.247215      530.640799    ;  uncertainty theta = 0.001214, k = 0.110401
        17        18        41     1      118.678268      271.118840    ;  uncertainty theta = 0.003275, k = 0.072281
        17        27        26     1      121.333946      501.176433    ;  uncertainty theta = 0.002371, k = 0.112458
        17        27        46     1      119.715576      265.880285    ;  uncertainty theta = 0.002901, k = 0.072590
        18        17        27     1      121.266068      427.456225    ;  uncertainty theta = 0.004876, k = 0.070555
        18        19        20     1      120.967552      525.706423    ;  uncertainty theta = 0.002267, k = 0.098967
        18        19        42     1      120.827042      283.033976    ;  uncertainty theta = 0.001119, k = 0.069665
        19        18        41     1      119.842636      294.032458    ;  uncertainty theta = 0.002369, k = 0.084804
        19        20        21     1      122.472183      533.396859    ;  uncertainty theta = 0.003133, k = 0.177992
        19        20        26     1      119.175072      376.267153    ;  uncertainty theta = 0.004630, k = 0.125096
        20        19        42     1      118.893349      286.571440    ;  uncertainty theta = 0.001569, k = 0.060418
        20        21        22     1      116.964966      461.477433    ;  uncertainty theta = 0.007194, k = 0.262211
        20        21        43     1      114.691307      319.572919    ;  uncertainty theta = 0.003090, k = 0.102695
        20        26        25     1      121.545395      470.750468    ;  uncertainty theta = 0.003280, k = 0.265103
        20        26        27     1      121.308083      364.213255    ;  uncertainty theta = 0.004430, k = 0.053363
        21        20        26     1      116.918762      519.791454    ;  uncertainty theta = 0.005588, k = 0.270458
        21        22        23     1      125.690819      821.251859    ;  uncertainty theta = 0.002226, k = 0.123492
        21        22        24     1      111.353172      401.279730    ;  uncertainty theta = 0.007470, k = 0.191253
        22        21        43     1      114.588699      354.330521    ;  uncertainty theta = 0.001924, k = 0.134773
        22        24        25     1      113.152916      616.563755    ;  uncertainty theta = 0.005388, k = 0.289392
        22        24        44     1      108.756004      389.509389    ;  uncertainty theta = 0.004110, k = 0.104221
        22        24        45     1      108.756004      389.509389    ;  uncertainty theta = 0.004110, k = 0.104221
        23        22        24     1      123.722000      433.224739    ;  uncertainty theta = 0.003358, k = 0.188363
        24        25        26     1      115.394119      463.958905    ;  uncertainty theta = 0.004606, k = 0.156488
        25        24        44     1      107.825256      463.536234    ;  uncertainty theta = 0.002623, k = 0.094720
        25        24        45     1      107.825256      463.536234    ;  uncertainty theta = 0.002623, k = 0.094720
        25        26        27     1      119.782883      538.587341    ;  uncertainty theta = 0.002094, k = 0.114286
        26        27        46     1      119.604408      288.156752    ;  uncertainty theta = 0.003671, k = 0.109595
        28        29        30     1      119.984230      446.391321    ;  uncertainty theta = 0.002825, k = 0.109279
        29        28        47     1      118.198837      267.442262    ;  uncertainty theta = 0.001362, k = 0.058522
        29        30        31     1      110.584335      514.931710    ;  uncertainty theta = 0.000760, k = 0.054259
        30        31        48     1      108.804810      446.467230    ;  uncertainty theta = 0.001256, k = 0.017592
        30        31        49     1      108.804810      446.467230    ;  uncertainty theta = 0.001256, k = 0.017592
        30        31        50     1      108.804810      446.467230    ;  uncertainty theta = 0.001256, k = 0.017592
        32         1        33     1      109.159256      331.008596    ;  uncertainty theta = 0.001734, k = 0.015289
        32         1        34     1      109.159256      331.008596    ;  uncertainty theta = 0.001734, k = 0.015289
        33         1        34     1      109.159256      331.008596    ;  uncertainty theta = 0.001734, k = 0.015289
        44        24        45     1      107.540939      314.873005    ;  uncertainty theta = 0.001952, k = 0.136428
        48        31        49     1      109.159256      331.008596    ;  uncertainty theta = 0.001734, k = 0.015290
        48        31        50     1      109.159256      331.008596    ;  uncertainty theta = 0.001734, k = 0.015290
        49        31        50     1      109.159256      331.008596    ;  uncertainty theta = 0.001734, k = 0.015290

[ dihedrals ] ; propers for gromacs 4.5 or higher, use funct 9
;       ai        aj        ak        al funct           phase               k        pn
         1         2         3         4     9        0.000000        1.161590         1    ;  uncertainty k = 0.424580
         1         2         3         4     9      180.000000        5.978609         2    ;  uncertainty k = 0.113714
         1         2         3         4     9        0.000000       -0.081692         3    ;  uncertainty k = 0.147719
         1         2         3         4     9      180.000000        0.002725         4    ;  uncertainty k = 0.132587
         1         2         3        29     9        0.000000        0.710048         1    ;  uncertainty k = 0.461814
         1         2         3        29     9      180.000000        5.168557         2    ;  uncertainty k = 0.168705
         1         2         3        29     9        0.000000        1.522737         3    ;  uncertainty k = 0.085019
         1         2         3        29     9      180.000000        0.086569         4    ;  uncertainty k = 0.079161
         2         3         4         5     9        0.000000        0.075453         1    ;  uncertainty k = 0.391184
         2         3         4         5     9      180.000000       11.200366         2    ;  uncertainty k = 0.281957
         2         3         4         5     9        0.000000        1.350673         3    ;  uncertainty k = 0.315697
         2         3         4         5     9      180.000000        1.737822         4    ;  uncertainty k = 0.262819
         2         3         4        35     9        0.000000       -0.165175         1    ;  uncertainty k = 0.217547
         2         3         4        35     9      180.000000        9.159951         2    ;  uncertainty k = 0.396817
         2         3         4        35     9        0.000000        0.851185         3    ;  uncertainty k = 0.126617
         2         3         4        35     9      180.000000        1.218800         4    ;  uncertainty k = 0.309716
         2         3        29        28     9        0.000000        0.515556         1    ;  uncertainty k = 0.299239
         2         3        29        28     9      180.000000        7.954903         2    ;  uncertainty k = 0.736958
         2         3        29        28     9        0.000000        1.164308         3    ;  uncertainty k = 0.363484
         2         3        29        28     9      180.000000        1.614907         4    ;  uncertainty k = 0.248125
         2         3        29        30     9        0.000000       -0.341456         1    ;  uncertainty k = 1.859913
         2         3        29        30     9      180.000000       13.064537         2    ;  uncertainty k = 0.569185
         2         3        29        30     9        0.000000        0.817588         3    ;  uncertainty k = 0.428631
         2         3        29        30     9      180.000000        1.204285         4    ;  uncertainty k = 0.526598
         3         2         1        32     9        0.000000        1.112847         1    ;  uncertainty k = 0.103175
         3         2         1        32     9      180.000000       -2.022644         2    ;  uncertainty k = 0.082864
         3         2         1        32     9        0.000000        1.040477         3    ;  uncertainty k = 0.039004
         3         2         1        32     9      180.000000        0.229250         4    ;  uncertainty k = 0.034227
         3         2         1        33     9        0.000000        1.112847         1    ;  uncertainty k = 0.103175
         3         2         1        33     9      180.000000       -2.022644         2    ;  uncertainty k = 0.082864
         3         2         1        33     9        0.000000        1.040477         3    ;  uncertainty k = 0.039004
         3         2         1        33     9      180.000000        0.229250         4    ;  uncertainty k = 0.034227
         3         2         1        34     9        0.000000        1.112847         1    ;  uncertainty k = 0.103175
         3         2         1        34     9      180.000000       -2.022644         2    ;  uncertainty k = 0.082864
         3         2         1        34     9        0.000000        1.040477         3    ;  uncertainty k = 0.039004
         3         2         1        34     9      180.000000        0.229250         4    ;  uncertainty k = 0.034227
         3         4         5         6     9        0.000000        0.022057         1    ;  uncertainty k = 0.194405
         3         4         5         6     9      180.000000       12.959076         2    ;  uncertainty k = 0.175269
         3         4         5         6     9        0.000000       -0.661284         3    ;  uncertainty k = 0.452963
         3         4         5         6     9      180.000000        0.977500         4    ;  uncertainty k = 0.267395
         3         4         5        36     9        0.000000        0.089133         1    ;  uncertainty k = 0.324049
         3         4         5        36     9      180.000000        7.832723         2    ;  uncertainty k = 0.398222
         3         4         5        36     9        0.000000        1.298747         3    ;  uncertainty k = 0.324375
         3         4         5        36     9      180.000000        1.779745         4    ;  uncertainty k = 0.055930
         3        29        28         6     9        0.000000        0.071802         1    ;  uncertainty k = 0.106893
         3        29        28         6     9      180.000000        8.578020         2    ;  uncertainty k = 0.448413
         3        29        28         6     9        0.000000        0.405195         3    ;  uncertainty k = 0.328173
         3        29        28         6     9      180.000000        1.390162         4    ;  uncertainty k = 0.291061
         3        29        28        47     9        0.000000        0.127329         1    ;  uncertainty k = 0.442115
         3        29        28        47     9      180.000000        6.705908         2    ;  uncertainty k = 0.374607
         3        29        28        47     9        0.000000        1.449705         3    ;  uncertainty k = 0.216502
         3        29        28        47     9      180.000000        1.651952         4    ;  uncertainty k = 0.099448
         3        29        30        31     9        0.000000        0.964833         1    ;  uncertainty k = 0.487894
         3        29        30        31     9      180.000000        5.588064         2    ;  uncertainty k = 0.185698
         3        29        30        31     9        0.000000        1.649424         3    ;  uncertainty k = 0.107622
         3        29        30        31     9      180.000000        0.043020         4    ;  uncertainty k = 0.050223
         4         3        29        28     9        0.000000       -0.246361         1    ;  uncertainty k = 0.323015
         4         3        29        28     9      180.000000        5.364289         2    ;  uncertainty k = 1.281071
         4         3        29        28     9        0.000000        0.277799         3    ;  uncertainty k = 0.286511
         4         3        29        28     9      180.000000        1.297118         4    ;  uncertainty k = 0.309451
         4         3        29        30     9        0.000000        0.651705         1    ;  uncertainty k = 0.176594
         4         3        29        30     9      180.000000        7.590394         2    ;  uncertainty k = 0.603024
         4         3        29        30     9        0.000000        1.174713         3    ;  uncertainty k = 0.330890
         4         3        29        30     9      180.000000        1.724084         4    ;  uncertainty k = 0.232454
         4         5         6         7     9        0.000000        0.058897         1    ;  uncertainty k = 0.517002
         4         5         6         7     9      180.000000        9.907040         2    ;  uncertainty k = 0.506714
         4         5         6         7     9        0.000000        0.979239         3    ;  uncertainty k = 0.327123
         4         5         6         7     9      180.000000        1.580944         4    ;  uncertainty k = 0.224706
         4         5         6        28     9        0.000000       -0.065841         1    ;  uncertainty k = 0.278588
         4         5         6        28     9      180.000000        9.979296         2    ;  uncertainty k = 0.397780
         4         5         6        28     9        0.000000       -0.194578         3    ;  uncertainty k = 0.190668
         4         5         6        28     9      180.000000        1.171069         4    ;  uncertainty k = 0.255361
         5         4         3        29     9        0.000000        0.085734         1    ;  uncertainty k = 0.237541
         5         4         3        29     9      180.000000        8.042168         2    ;  uncertainty k = 0.816838
         5         4         3        29     9        0.000000        0.289471         3    ;  uncertainty k = 0.178601
         5         4         3        29     9      180.000000        1.427392         4    ;  uncertainty k = 0.249188
         5         6         7         8     9        0.000000        1.717569         1    ;  uncertainty k = 0.660151
         5         6         7         8     9      180.000000        5.521741         2    ;  uncertainty k = 0.179949
         5         6         7         8     9        0.000000        0.912155         3    ;  uncertainty k = 0.268355
         5         6         7         8     9      180.000000        0.224590         4    ;  uncertainty k = 0.108908
         5         6         7        37     9        0.000000        2.355176         1    ;  uncertainty k = 0.449212
         5         6         7        37     9      180.000000        4.348203         2    ;  uncertainty k = 0.302695
         5         6         7        37     9        0.000000        0.613845         3    ;  uncertainty k = 0.145998
         5         6         7        37     9      180.000000        0.455801         4    ;  uncertainty k = 0.028343
         5         6        28        29     9        0.000000        0.019455         1    ;  uncertainty k = 0.133757
         5         6        28        29     9      180.000000        8.784468         2    ;  uncertainty k = 0.478984
         5         6        28        29     9        0.000000        0.119276         3    ;  uncertainty k = 0.283810
         5         6        28        29     9      180.000000        1.288078         4    ;  uncertainty k = 0.208847
         5         6        28        47     9        0.000000        0.155297         1    ;  uncertainty k = 0.281422
         5         6        28        47     9      180.000000        6.373831         2    ;  uncertainty k = 0.633801
         5         6        28        47     9        0.000000        1.253627         3    ;  uncertainty k = 0.220579
         5         6        28        47     9      180.000000        1.460767         4    ;  uncertainty k = 0.207379
         6         5         4        35     9        0.000000       -0.099823         1    ;  uncertainty k = 0.241524
         6         5         4        35     9      180.000000        7.800452         2    ;  uncertainty k = 0.321389
         6         5         4        35     9        0.000000        1.212039         3    ;  uncertainty k = 0.364603
         6         5         4        35     9      180.000000        1.643100         4    ;  uncertainty k = 0.155684
         6         7         8         9     9        0.000000        4.365590         1    ;  uncertainty k = 1.284017
         6         7         8         9     9      180.000000       10.791139         2    ;  uncertainty k = 0.230471
         6         7         8         9     9        0.000000        0.686869         3    ;  uncertainty k = 0.312207
         6         7         8         9     9      180.000000       -0.507667         4    ;  uncertainty k = 0.054192
         6         7         8        16     9        0.000000        7.039559         1    ;  uncertainty k = 0.599174
         6         7         8        16     9      180.000000        8.681781         2    ;  uncertainty k = 0.097887
         6         7         8        16     9        0.000000        0.920441         3    ;  uncertainty k = 0.381757
         6         7         8        16     9      180.000000       -0.164553         4    ;  uncertainty k = 0.221364
         6        28        29        30     9        0.000000        0.152072         1    ;  uncertainty k = 0.236865
         6        28        29        30     9      180.000000       11.350413         2    ;  uncertainty k = 0.544002
         6        28        29        30     9        0.000000        1.355669         3    ;  uncertainty k = 0.349766
         6        28        29        30     9      180.000000        1.696486         4    ;  uncertainty k = 0.237430
         7         6         5        36     9        0.000000       -0.291936         1    ;  uncertainty k = 0.233190
         7         6         5        36     9      180.000000        7.944711         2    ;  uncertainty k = 0.164350
         7         6         5        36     9        0.000000        0.918004         3    ;  uncertainty k = 0.228756
         7         6         5        36     9      180.000000        1.083856         4    ;  uncertainty k = 0.164907
         7         6        28        29     9        0.000000        0.148911         1    ;  uncertainty k = 0.574988
         7         6        28        29     9      180.000000        9.899588         2    ;  uncertainty k = 0.247388
         7         6        28        29     9        0.000000        1.000997         3    ;  uncertainty k = 0.351814
         7         6        28        29     9      180.000000        1.610986         4    ;  uncertainty k = 0.137508
         7         6        28        47     9        0.000000       -0.272934         1    ;  uncertainty k = 0.329125
         7         6        28        47     9      180.000000        7.865305         2    ;  uncertainty k = 0.242076
         7         6        28        47     9        0.000000        0.914516         3    ;  uncertainty k = 0.283703
         7         6        28        47     9      180.000000        1.068016         4    ;  uncertainty k = 0.243003
         7         8         9        10     9        0.000000        1.093020         1    ;  uncertainty k = 1.051374
         7         8         9        10     9      180.000000       17.989565         2    ;  uncertainty k = 0.462312
         7         8         9        10     9        0.000000        2.912309         3    ;  uncertainty k = 0.275448
         7         8         9        10     9      180.000000        1.658275         4    ;  uncertainty k = 0.303204
         7         8        16        12     9        0.000000       -0.953522         1    ;  uncertainty k = 0.960772
         7         8        16        12     9      180.000000        5.426483         2    ;  uncertainty k = 0.732995
         7         8        16        12     9        0.000000        0.463830         3    ;  uncertainty k = 0.276198
         7         8        16        12     9      180.000000        0.425035         4    ;  uncertainty k = 0.145521
         7         8        16        15     9        0.000000       -0.723785         1    ;  uncertainty k = 0.708754
         7         8        16        15     9      180.000000        4.584250         2    ;  uncertainty k = 1.077487
         7         8        16        15     9        0.000000        0.569780         3    ;  uncertainty k = 0.418447
         7         8        16        15     9      180.000000        0.322209         4    ;  uncertainty k = 0.225420
         8         7         6        28     9        0.000000        1.597949         1    ;  uncertainty k = 0.980885
         8         7         6        28     9      180.000000        5.574010         2    ;  uncertainty k = 0.231880
         8         7         6        28     9        0.000000        0.917733         3    ;  uncertainty k = 0.237919
         8         7         6        28     9      180.000000        0.218590         4    ;  uncertainty k = 0.147859
         8         9        10        11     9        0.000000        0.983551         1    ;  uncertainty k = 1.551150
         8         9        10        11     9      180.000000        5.460352         2    ;  uncertainty k = 1.438578
         8         9        10        11     9        0.000000        1.171291         3    ;  uncertainty k = 0.841115
         8         9        10        11     9      180.000000        0.502047         4    ;  uncertainty k = 0.532530
         8         9        10        17     9        0.000000        0.973806         1    ;  uncertainty k = 1.062096
         8         9        10        17     9      180.000000        8.850236         2    ;  uncertainty k = 0.878708
         8         9        10        17     9        0.000000        1.538474         3    ;  uncertainty k = 0.559010
         8         9        10        17     9      180.000000        0.433487         4    ;  uncertainty k = 0.359283
         8        16        12        11     9        0.000000       -0.067501         1    ;  uncertainty k = 0.936063
         8        16        12        11     9      180.000000        5.119795         2    ;  uncertainty k = 1.529719
         8        16        12        11     9        0.000000        1.366064         3    ;  uncertainty k = 0.465858
         8        16        12        11     9      180.000000        0.395997         4    ;  uncertainty k = 0.311948
         8        16        12        13     9        0.000000        0.340421         1    ;  uncertainty k = 0.792595
         8        16        12        13     9      180.000000        6.024515         2    ;  uncertainty k = 0.492566
         8        16        12        13     9        0.000000        0.209998         3    ;  uncertainty k = 0.527723
         8        16        12        13     9      180.000000        0.585310         4    ;  uncertainty k = 0.374830
         8        16        15        14     9        0.000000       -0.258736         1    ;  uncertainty k = 0.813751
         8        16        15        14     9      180.000000       16.417004         2    ;  uncertainty k = 0.455553
         8        16        15        14     9        0.000000        0.694004         3    ;  uncertainty k = 0.637623
         8        16        15        14     9      180.000000        1.345365         4    ;  uncertainty k = 0.597909
         9         8         7        37     9        0.000000        8.933603         1    ;  uncertainty k = 0.591170
         9         8         7        37     9      180.000000        9.674255         2    ;  uncertainty k = 0.292954
         9         8         7        37     9        0.000000        1.085023         3    ;  uncertainty k = 0.309254
         9         8         7        37     9      180.000000       -0.060329         4    ;  uncertainty k = 0.151618
         9         8        16        12     9        0.000000       -0.504024         1    ;  uncertainty k = 0.651786
         9         8        16        12     9      180.000000        6.012609         2    ;  uncertainty k = 0.716592
         9         8        16        12     9        0.000000       -0.361775         3    ;  uncertainty k = 0.316377
         9         8        16        12     9      180.000000        0.564756         4    ;  uncertainty k = 0.159616
         9         8        16        15     9        0.000000       -1.420614         1    ;  uncertainty k = 2.233000
         9         8        16        15     9      180.000000        4.477339         2    ;  uncertainty k = 0.591237
         9         8        16        15     9        0.000000        0.456520         3    ;  uncertainty k = 0.408587
         9         8        16        15     9      180.000000        0.387711         4    ;  uncertainty k = 0.295704
         9        10        11        12     9        0.000000        0.028495         1    ;  uncertainty k = 0.571843
         9        10        11        12     9      180.000000       21.321613         2    ;  uncertainty k = 0.618068
         9        10        11        12     9        0.000000        0.534813         3    ;  uncertainty k = 0.315010
         9        10        11        12     9      180.000000        0.530209         4    ;  uncertainty k = 0.519073
         9        10        11        38     9        0.000000        0.416836         1    ;  uncertainty k = 0.995881
         9        10        11        38     9      180.000000       12.812779         2    ;  uncertainty k = 0.368827
         9        10        11        38     9        0.000000        1.628292         3    ;  uncertainty k = 0.625928
         9        10        11        38     9      180.000000        1.085632         4    ;  uncertainty k = 0.441958
         9        10        17        18     9        0.000000       -0.560313         1    ;  uncertainty k = 1.345499
         9        10        17        18     9      180.000000        4.831822         2    ;  uncertainty k = 0.235419
         9        10        17        18     9        0.000000        0.443662         3    ;  uncertainty k = 0.161965
         9        10        17        18     9      180.000000        0.083298         4    ;  uncertainty k = 0.093850
         9        10        17        27     9        0.000000       -1.470151         1    ;  uncertainty k = 1.323759
         9        10        17        27     9      180.000000        4.922709         2    ;  uncertainty k = 0.227413
         9        10        17        27     9        0.000000        0.505983         3    ;  uncertainty k = 0.127853
         9        10        17        27     9      180.000000        0.118630         4    ;  uncertainty k = 0.072655
        10         9         8        16     9        0.000000       -0.085010         1    ;  uncertainty k = 2.196183
        10         9         8        16     9      180.000000       13.638059         2    ;  uncertainty k = 0.601956
        10         9         8        16     9        0.000000        2.509321         3    ;  uncertainty k = 0.843689
        10         9         8        16     9      180.000000        1.351137         4    ;  uncertainty k = 0.402241
        10        11        12        13     9        0.000000        0.411890         1    ;  uncertainty k = 1.474352
        10        11        12        13     9      180.000000        4.660779         2    ;  uncertainty k = 0.634724
        10        11        12        13     9        0.000000        0.731905         3    ;  uncertainty k = 0.331637
        10        11        12        13     9      180.000000        0.329374         4    ;  uncertainty k = 0.093259
        10        11        12        16     9        0.000000       -0.093936         1    ;  uncertainty k = 1.649713
        10        11        12        16     9      180.000000        6.303174         2    ;  uncertainty k = 0.516272
        10        11        12        16     9        0.000000       -0.851176         3    ;  uncertainty k = 0.845472
        10        11        12        16     9      180.000000        0.599429         4    ;  uncertainty k = 0.148770
        10        17        18        19     9        0.000000       -0.030831         1    ;  uncertainty k = 0.267002
        10        17        18        19     9      180.000000        8.657832         2    ;  uncertainty k = 0.454178
        10        17        18        19     9        0.000000        1.164744         3    ;  uncertainty k = 0.292066
        10        17        18        19     9      180.000000        1.764595         4    ;  uncertainty k = 0.154487
        10        17        18        41     9        0.000000       -0.019092         1    ;  uncertainty k = 0.145196
        10        17        18        41     9      180.000000        6.975620         2    ;  uncertainty k = 0.279469
        10        17        18        41     9        0.000000        0.680621         3    ;  uncertainty k = 0.206431
        10        17        18        41     9      180.000000        1.097878         4    ;  uncertainty k = 0.145294
        10        17        27        26     9        0.000000        0.162608         1    ;  uncertainty k = 0.276221
        10        17        27        26     9      180.000000        8.945420         2    ;  uncertainty k = 0.153388
        10        17        27        26     9        0.000000        1.368798         3    ;  uncertainty k = 0.267297
        10        17        27        26     9      180.000000        1.682004         4    ;  uncertainty k = 0.106952
        10        17        27        46     9        0.000000       -0.167035         1    ;  uncertainty k = 0.202091
        10        17        27        46     9      180.000000        7.135200         2    ;  uncertainty k = 0.299714
        10        17        27        46     9        0.000000        0.683785         3    ;  uncertainty k = 0.251330
        10        17        27        46     9      180.000000        1.067720         4    ;  uncertainty k = 0.227273
        11        10        17        18     9        0.000000       -0.041081         1    ;  uncertainty k = 0.281996
        11        10        17        18     9      180.000000        3.862961         2    ;  uncertainty k = 0.451536
        11        10        17        18     9        0.000000        0.761872         3    ;  uncertainty k = 0.177374
        11        10        17        18     9      180.000000       -0.371472         4    ;  uncertainty k = 0.146003
        11        10        17        27     9        0.000000        0.245094         1    ;  uncertainty k = 0.301865
        11        10        17        27     9      180.000000        3.709051         2    ;  uncertainty k = 0.368946
        11        10        17        27     9        0.000000        0.704561         3    ;  uncertainty k = 0.226485
        11        10        17        27     9      180.000000       -0.344977         4    ;  uncertainty k = 0.135731
        11        12        13        14     9        0.000000        0.235816         1    ;  uncertainty k = 1.271425
        11        12        13        14     9      180.000000        9.589390         2    ;  uncertainty k = 0.769503
        11        12        13        14     9        0.000000        0.417477         3    ;  uncertainty k = 0.753588
        11        12        13        14     9      180.000000        0.560076         4    ;  uncertainty k = 0.315873
        11        12        13        39     9        0.000000        0.581405         1    ;  uncertainty k = 1.268508
        11        12        13        39     9      180.000000        2.794503         2    ;  uncertainty k = 1.412426
        11        12        13        39     9        0.000000        1.233123         3    ;  uncertainty k = 0.396700
        11        12        13        39     9      180.000000        0.134685         4    ;  uncertainty k = 0.120183
        11        12        16        15     9        0.000000        0.326427         1    ;  uncertainty k = 0.556806
        11        12        16        15     9      180.000000        8.717461         2    ;  uncertainty k = 0.553352
        11        12        16        15     9        0.000000        0.454290         3    ;  uncertainty k = 0.402084
        11        12        16        15     9      180.000000        0.882202         4    ;  uncertainty k = 0.217822
        12        11        10        17     9        0.000000        0.634271         1    ;  uncertainty k = 0.294145
        12        11        10        17     9      180.000000       17.551879         2    ;  uncertainty k = 0.451770
        12        11        10        17     9        0.000000        1.892423         3    ;  uncertainty k = 0.433312
        12        11        10        17     9      180.000000        0.771587         4    ;  uncertainty k = 0.258126
        12        13        14        15     9        0.000000       -0.424259         1    ;  uncertainty k = 0.720471
        12        13        14        15     9      180.000000       21.948844         2    ;  uncertainty k = 0.272817
        12        13        14        15     9        0.000000       -9.453916         3    ;  uncertainty k = 0.408148
        12        13        14        15     9      180.000000        1.578950         4    ;  uncertainty k = 0.654473
        12        13        14        40     9        0.000000        0.427383         1    ;  uncertainty k = 0.828520
        12        13        14        40     9      180.000000       13.870596         2    ;  uncertainty k = 0.182398
        12        13        14        40     9        0.000000        1.815389         3    ;  uncertainty k = 0.320274
        12        13        14        40     9      180.000000        0.903574         4    ;  uncertainty k = 0.223947
        12        16        15        14     9        0.000000       -0.698106         1    ;  uncertainty k = 0.543243
        12        16        15        14     9      180.000000       23.970051         2    ;  uncertainty k = 0.495895
        12        16        15        14     9        0.000000      -11.206153         3    ;  uncertainty k = 1.161985
        12        16        15        14     9      180.000000        1.981051         4    ;  uncertainty k = 0.603215
        13        12        11        38     9        0.000000        1.217158         1    ;  uncertainty k = 1.228369
        13        12        11        38     9      180.000000        2.947603         2    ;  uncertainty k = 1.102774
        13        12        11        38     9        0.000000        1.031616         3    ;  uncertainty k = 0.514297
        13        12        11        38     9      180.000000        0.183690         4    ;  uncertainty k = 0.169835
        13        12        16        15     9        0.000000       -0.600194         1    ;  uncertainty k = 0.427509
        13        12        16        15     9      180.000000       12.032075         2    ;  uncertainty k = 0.540572
        13        12        16        15     9        0.000000       -4.884606         3    ;  uncertainty k = 1.243656
        13        12        16        15     9      180.000000        1.176890         4    ;  uncertainty k = 0.463084
        13        14        15        16     9        0.000000       -0.719371         1    ;  uncertainty k = 0.806440
        13        14        15        16     9      180.000000       16.306391         2    ;  uncertainty k = 0.372137
        13        14        15        16     9        0.000000       -5.546726         3    ;  uncertainty k = 0.784851
        13        14        15        16     9      180.000000        2.138755         4    ;  uncertainty k = 0.319469
        14        13        12        16     9        0.000000        0.425340         1    ;  uncertainty k = 0.911889
        14        13        12        16     9      180.000000       13.121731         2    ;  uncertainty k = 1.266973
        14        13        12        16     9        0.000000      -13.119121         3    ;  uncertainty k = 1.817832
        14        13        12        16     9      180.000000        1.693366         4    ;  uncertainty k = 0.377703
        15        14        13        39     9        0.000000       -0.210816         1    ;  uncertainty k = 0.409318
        15        14        13        39     9      180.000000       14.525460         2    ;  uncertainty k = 0.474526
        15        14        13        39     9        0.000000        1.399987         3    ;  uncertainty k = 0.472591
        15        14        13        39     9      180.000000        0.597840         4    ;  uncertainty k = 0.116226
        16         8         7        37     9        0.000000        5.299478         1    ;  uncertainty k = 1.071663
        16         8         7        37     9      180.000000        6.121003         2    ;  uncertainty k = 0.320629
        16         8         7        37     9        0.000000        1.371092         3    ;  uncertainty k = 0.426496
        16         8         7        37     9      180.000000       -0.017304         4    ;  uncertainty k = 0.216319
        16        12        11        38     9        0.000000        1.223729         1    ;  uncertainty k = 1.444460
        16        12        11        38     9      180.000000        4.301597         2    ;  uncertainty k = 0.541400
        16        12        11        38     9        0.000000        1.121892         3    ;  uncertainty k = 0.352013
        16        12        11        38     9      180.000000        0.198214         4    ;  uncertainty k = 0.126890
        16        12        13        39     9        0.000000        0.337817         1    ;  uncertainty k = 0.998519
        16        12        13        39     9      180.000000        7.392009         2    ;  uncertainty k = 0.385665
        16        12        13        39     9        0.000000        1.061986         3    ;  uncertainty k = 0.365240
        16        12        13        39     9      180.000000        0.171584         4    ;  uncertainty k = 0.281011
        16        15        14        40     9        0.000000       -0.095582         1    ;  uncertainty k = 0.393923
        16        15        14        40     9      180.000000       14.177386         2    ;  uncertainty k = 0.352374
        16        15        14        40     9        0.000000        1.588169         3    ;  uncertainty k = 0.688228
        16        15        14        40     9      180.000000        0.904862         4    ;  uncertainty k = 0.448977
        17        10        11        38     9        0.000000       -0.192417         1    ;  uncertainty k = 0.397918
        17        10        11        38     9      180.000000        9.331930         2    ;  uncertainty k = 0.496507
        17        10        11        38     9        0.000000        1.510796         3    ;  uncertainty k = 0.284222
        17        10        11        38     9      180.000000        0.994505         4    ;  uncertainty k = 0.111785
        17        18        19        20     9        0.000000       -0.031743         1    ;  uncertainty k = 0.200751
        17        18        19        20     9      180.000000       14.208975         2    ;  uncertainty k = 0.346824
        17        18        19        20     9        0.000000       -0.589844         3    ;  uncertainty k = 0.587260
        17        18        19        20     9      180.000000        0.859070         4    ;  uncertainty k = 0.389981
        17        18        19        42     9        0.000000        0.155802         1    ;  uncertainty k = 0.030735
        17        18        19        42     9      180.000000        8.313457         2    ;  uncertainty k = 0.356687
        17        18        19        42     9        0.000000        1.502301         3    ;  uncertainty k = 0.185558
        17        18        19        42     9      180.000000        1.901672         4    ;  uncertainty k = 0.145156
        17        27        26        20     9        0.000000       -0.017001         1    ;  uncertainty k = 0.390549
        17        27        26        20     9      180.000000        8.920593         2    ;  uncertainty k = 0.700017
        17        27        26        20     9        0.000000       -0.016957         3    ;  uncertainty k = 0.386473
        17        27        26        20     9      180.000000        1.133468         4    ;  uncertainty k = 0.342257
        17        27        26        25     9        0.000000        0.258540         1    ;  uncertainty k = 0.176191
        17        27        26        25     9      180.000000       12.175565         2    ;  uncertainty k = 0.320924
        17        27        26        25     9        0.000000        1.530767         3    ;  uncertainty k = 0.259428
        17        27        26        25     9      180.000000        1.605787         4    ;  uncertainty k = 0.128868
        18        17        27        26     9        0.000000       -0.071169         1    ;  uncertainty k = 0.174367
        18        17        27        26     9      180.000000       10.902285         2    ;  uncertainty k = 0.453890
        18        17        27        26     9        0.000000       -0.135744         3    ;  uncertainty k = 0.357000
        18        17        27        26     9      180.000000        1.049094         4    ;  uncertainty k = 0.334926
        18        17        27        46     9        0.000000        0.129910         1    ;  uncertainty k = 0.171382
        18        17        27        46     9      180.000000        6.631702         2    ;  uncertainty k = 0.357727
        18        17        27        46     9        0.000000        1.428032         3    ;  uncertainty k = 0.198055
        18        17        27        46     9      180.000000        1.616308         4    ;  uncertainty k = 0.170981
        18        19        20        21     9        0.000000        0.338407         1    ;  uncertainty k = 0.190948
        18        19        20        21     9      180.000000       11.067025         2    ;  uncertainty k = 0.580450
        18        19        20        21     9        0.000000        1.214003         3    ;  uncertainty k = 0.438746
        18        19        20        21     9      180.000000        1.559003         4    ;  uncertainty k = 0.212396
        18        19        20        26     9        0.000000       -0.168682         1    ;  uncertainty k = 0.405286
        18        19        20        26     9      180.000000        8.938477         2    ;  uncertainty k = 0.710215
        18        19        20        26     9        0.000000        0.033760         3    ;  uncertainty k = 0.349360
        18        19        20        26     9      180.000000        1.116028         4    ;  uncertainty k = 0.392680
        19        18        17        27     9        0.000000       -0.126049         1    ;  uncertainty k = 0.270566
        19        18        17        27     9      180.000000       11.355668         2    ;  uncertainty k = 0.304344
        19        18        17        27     9        0.000000       -0.629346         3    ;  uncertainty k = 0.328960
        19        18        17        27     9      180.000000        0.977331         4    ;  uncertainty k = 0.260932
        19        20        21        22     9        0.000000        0.836746         1    ;  uncertainty k = 2.173568
        19        20        21        22     9      180.000000        1.778626         2    ;  uncertainty k = 0.841739
        19        20        21        22     9        0.000000        0.378120         3    ;  uncertainty k = 0.292641
        19        20        21        22     9      180.000000        0.009233         4    ;  uncertainty k = 0.182447
        19        20        21        43     9        0.000000        0.799922         1    ;  uncertainty k = 1.399453
        19        20        21        43     9      180.000000        2.382706         2    ;  uncertainty k = 0.279270
        19        20        21        43     9        0.000000        0.398388         3    ;  uncertainty k = 0.140565
        19        20        21        43     9      180.000000        0.063026         4    ;  uncertainty k = 0.183296
        19        20        26        25     9        0.000000        0.174132         1    ;  uncertainty k = 0.352927
        19        20        26        25     9      180.000000        8.067497         2    ;  uncertainty k = 0.497779
        19        20        26        25     9        0.000000        1.270576         3    ;  uncertainty k = 0.327923
        19        20        26        25     9      180.000000        1.516370         4    ;  uncertainty k = 0.252625
        19        20        26        27     9        0.000000       -0.184153         1    ;  uncertainty k = 0.807351
        19        20        26        27     9      180.000000        5.743218         2    ;  uncertainty k = 1.195719
        19        20        26        27     9        0.000000        0.200955         3    ;  uncertainty k = 0.401321
        19        20        26        27     9      180.000000        1.220003         4    ;  uncertainty k = 0.457865
        20        19        18        41     9        0.000000        0.047401         1    ;  uncertainty k = 0.133178
        20        19        18        41     9      180.000000        8.726906         2    ;  uncertainty k = 0.245299
        20        19        18        41     9        0.000000        1.302371         3    ;  uncertainty k = 0.320763
        20        19        18        41     9      180.000000        1.728430         4    ;  uncertainty k = 0.091337
        20        21        22        23     9        0.000000        3.442894         1    ;  uncertainty k = 1.363923
        20        21        22        23     9      180.000000       15.152268         2    ;  uncertainty k = 0.574949
        20        21        22        23     9        0.000000        1.060768         3    ;  uncertainty k = 0.265298
        20        21        22        23     9      180.000000       -0.682394         4    ;  uncertainty k = 0.183280
        20        21        22        24     9        0.000000        1.327343         1    ;  uncertainty k = 4.176060
        20        21        22        24     9      180.000000        1.615486         2    ;  uncertainty k = 1.398324
        20        21        22        24     9        0.000000        0.375549         3    ;  uncertainty k = 0.302757
        20        21        22        24     9      180.000000        0.803993         4    ;  uncertainty k = 0.166745
        20        26        25        24     9        0.000000        3.092591         1    ;  uncertainty k = 1.741475
        20        26        25        24     9      180.000000       -0.352440         2    ;  uncertainty k = 0.629549
        20        26        25        24     9        0.000000       -0.018755         3    ;  uncertainty k = 0.532782
        20        26        25        24     9      180.000000        0.446421         4    ;  uncertainty k = 0.265570
        20        26        27        46     9        0.000000        0.004878         1    ;  uncertainty k = 0.534827
        20        26        27        46     9      180.000000        6.015626         2    ;  uncertainty k = 0.273535
        20        26        27        46     9        0.000000        1.317676         3    ;  uncertainty k = 0.269418
        20        26        27        46     9      180.000000        1.506654         4    ;  uncertainty k = 0.148613
        21        20        19        42     9        0.000000       -0.242313         1    ;  uncertainty k = 0.408453
        21        20        19        42     9      180.000000        7.972810         2    ;  uncertainty k = 0.342817
        21        20        19        42     9        0.000000        1.072419         3    ;  uncertainty k = 0.310932
        21        20        19        42     9      180.000000        1.281452         4    ;  uncertainty k = 0.242639
        21        20        26        25     9        0.000000        0.075403         1    ;  uncertainty k = 0.267869
        21        20        26        25     9      180.000000       10.166253         2    ;  uncertainty k = 0.476826
        21        20        26        25     9        0.000000        1.133106         3    ;  uncertainty k = 0.196046
        21        20        26        25     9      180.000000        1.374563         4    ;  uncertainty k = 0.230472
        21        20        26        27     9        0.000000        0.425208         1    ;  uncertainty k = 0.395290
        21        20        26        27     9      180.000000        6.895581         2    ;  uncertainty k = 0.186938
        21        20        26        27     9        0.000000        1.045791         3    ;  uncertainty k = 0.348228
        21        20        26        27     9      180.000000        1.527792         4    ;  uncertainty k = 0.214759
        21        22        24        25     9        0.000000        2.699182         1    ;  uncertainty k = 0.906805
        21        22        24        25     9      180.000000       -1.423310         2    ;  uncertainty k = 0.313893
        21        22        24        25     9        0.000000       -0.580125         3    ;  uncertainty k = 0.370163
        21        22        24        25     9      180.000000        0.415955         4    ;  uncertainty k = 0.197535
        21        22        24        44     9        0.000000       -2.158796         1    ;  uncertainty k = 1.129916
        21        22        24        44     9      180.000000        0.281681         2    ;  uncertainty k = 0.745968
        21        22        24        44     9        0.000000        0.028708         3    ;  uncertainty k = 0.099027
        21        22        24        44     9      180.000000       -0.113194         4    ;  uncertainty k = 0.121944
        21        22        24        45     9        0.000000       -2.158796         1    ;  uncertainty k = 1.129916
        21        22        24        45     9      180.000000        0.281681         2    ;  uncertainty k = 0.745968
        21        22        24        45     9        0.000000        0.028708         3    ;  uncertainty k = 0.099027
        21        22        24        45     9      180.000000       -0.113194         4    ;  uncertainty k = 0.121944
        22        21        20        26     9        0.000000        3.804369         1    ;  uncertainty k = 2.949408
        22        21        20        26     9      180.000000        0.337973         2    ;  uncertainty k = 1.078876
        22        21        20        26     9        0.000000        0.304882         3    ;  uncertainty k = 0.414344
        22        21        20        26     9      180.000000        0.251649         4    ;  uncertainty k = 0.258194
        22        24        25        26     9        0.000000       13.744189         1    ;  uncertainty k = 0.958112
        22        24        25        26     9      180.000000      -10.722611         2    ;  uncertainty k = 1.473604
        22        24        25        26     9        0.000000       -1.329446         3    ;  uncertainty k = 0.944062
        22        24        25        26     9      180.000000        1.118651         4    ;  uncertainty k = 0.488597
        23        22        21        43     9        0.000000        4.149845         1    ;  uncertainty k = 1.066288
        23        22        21        43     9      180.000000       10.756307         2    ;  uncertainty k = 0.338061
        23        22        21        43     9        0.000000        0.665566         3    ;  uncertainty k = 0.540698
        23        22        21        43     9      180.000000       -0.091274         4    ;  uncertainty k = 0.268734
        23        22        24        25     9        0.000000       -3.336379         1    ;  uncertainty k = 1.602091
        23        22        24        25     9      180.000000        1.514557         2    ;  uncertainty k = 1.081615
        23        22        24        25     9        0.000000       -0.154828         3    ;  uncertainty k = 1.003489
        23        22        24        25     9      180.000000        0.647897         4    ;  uncertainty k = 0.582621
        23        22        24        44     9        0.000000       -1.454164         1    ;  uncertainty k = 1.159124
        23        22        24        44     9      180.000000        1.227779         2    ;  uncertainty k = 0.640886
        23        22        24        44     9        0.000000        1.124537         3    ;  uncertainty k = 0.181804
        23        22        24        44     9      180.000000        0.105888         4    ;  uncertainty k = 0.262538
        23        22        24        45     9        0.000000       -1.454164         1    ;  uncertainty k = 1.159124
        23        22        24        45     9      180.000000        1.227779         2    ;  uncertainty k = 0.640886
        23        22        24        45     9        0.000000        1.124537         3    ;  uncertainty k = 0.181804
        23        22        24        45     9      180.000000        0.105888         4    ;  uncertainty k = 0.262538
        24        22        21        43     9        0.000000        4.456631         1    ;  uncertainty k = 4.473163
        24        22        21        43     9      180.000000        7.491865         2    ;  uncertainty k = 0.478147
        24        22        21        43     9        0.000000        1.069728         3    ;  uncertainty k = 0.512687
        24        22        21        43     9      180.000000       -0.249255         4    ;  uncertainty k = 0.196177
        24        25        26        27     9        0.000000       -1.053823         1    ;  uncertainty k = 0.615803
        24        25        26        27     9      180.000000        2.796533         2    ;  uncertainty k = 0.417042
        24        25        26        27     9        0.000000        0.793134         3    ;  uncertainty k = 0.209887
        24        25        26        27     9      180.000000        0.165450         4    ;  uncertainty k = 0.151748
        25        26        27        46     9        0.000000       -0.234135         1    ;  uncertainty k = 0.683643
        25        26        27        46     9      180.000000        8.812182         2    ;  uncertainty k = 0.115320
        25        26        27        46     9        0.000000        0.825373         3    ;  uncertainty k = 0.298306
        25        26        27        46     9      180.000000        1.370976         4    ;  uncertainty k = 0.311330
        26        20        19        42     9        0.000000        0.001059         1    ;  uncertainty k = 0.405916
        26        20        19        42     9      180.000000        6.970240         2    ;  uncertainty k = 0.870745
        26        20        19        42     9        0.000000        1.349328         3    ;  uncertainty k = 0.103977
        26        20        19        42     9      180.000000        1.322802         4    ;  uncertainty k = 0.193562
        26        20        21        43     9        0.000000        3.086642         1    ;  uncertainty k = 1.134334
        26        20        21        43     9      180.000000        2.925457         2    ;  uncertainty k = 0.746562
        26        20        21        43     9        0.000000        0.402632         3    ;  uncertainty k = 0.209685
        26        20        21        43     9      180.000000        0.064026         4    ;  uncertainty k = 0.158815
        26        25        24        44     9        0.000000        0.149473         1    ;  uncertainty k = 0.290495
        26        25        24        44     9      180.000000       -0.616030         2    ;  uncertainty k = 0.358841
        26        25        24        44     9        0.000000        0.502160         3    ;  uncertainty k = 0.251423
        26        25        24        44     9      180.000000        0.101250         4    ;  uncertainty k = 0.101268
        26        25        24        45     9        0.000000        0.149473         1    ;  uncertainty k = 0.290495
        26        25        24        45     9      180.000000       -0.616030         2    ;  uncertainty k = 0.358841
        26        25        24        45     9        0.000000        0.502160         3    ;  uncertainty k = 0.251423
        26        25        24        45     9      180.000000        0.101250         4    ;  uncertainty k = 0.101268
        27        17        18        41     9        0.000000        0.012770         1    ;  uncertainty k = 0.184683
        27        17        18        41     9      180.000000        6.700095         2    ;  uncertainty k = 0.510615
        27        17        18        41     9        0.000000        1.336554         3    ;  uncertainty k = 0.167943
        27        17        18        41     9      180.000000        1.618022         4    ;  uncertainty k = 0.237418
        28         6         5        36     9        0.000000        0.060116         1    ;  uncertainty k = 0.285327
        28         6         5        36     9      180.000000        6.705137         2    ;  uncertainty k = 0.811645
        28         6         5        36     9        0.000000        1.254749         3    ;  uncertainty k = 0.282861
        28         6         5        36     9      180.000000        1.489480         4    ;  uncertainty k = 0.123486
        28         6         7        37     9        0.000000        3.766903         1    ;  uncertainty k = 0.282406
        28         6         7        37     9      180.000000        4.224135         2    ;  uncertainty k = 0.219472
        28         6         7        37     9        0.000000        0.731781         3    ;  uncertainty k = 0.239894
        28         6         7        37     9      180.000000        0.435986         4    ;  uncertainty k = 0.107235
        28        29        30        31     9        0.000000        1.341409         1    ;  uncertainty k = 0.791973
        28        29        30        31     9      180.000000        6.361826         2    ;  uncertainty k = 0.220151
        28        29        30        31     9        0.000000       -0.225719         3    ;  uncertainty k = 0.095998
        28        29        30        31     9      180.000000        0.006631         4    ;  uncertainty k = 0.110606
        29         3         4        35     9        0.000000       -0.032441         1    ;  uncertainty k = 0.368382
        29         3         4        35     9      180.000000        5.959632         2    ;  uncertainty k = 0.432853
        29         3         4        35     9        0.000000        1.321132         3    ;  uncertainty k = 0.261791
        29         3         4        35     9      180.000000        1.598351         4    ;  uncertainty k = 0.068542
        29        30        31        48     9        0.000000        1.110243         1    ;  uncertainty k = 0.221947
        29        30        31        48     9      180.000000       -2.083404         2    ;  uncertainty k = 0.117430
        29        30        31        48     9        0.000000        1.033193         3    ;  uncertainty k = 0.049823
        29        30        31        48     9      180.000000        0.223294         4    ;  uncertainty k = 0.039928
        29        30        31        49     9        0.000000        1.110243         1    ;  uncertainty k = 0.221947
        29        30        31        49     9      180.000000       -2.083404         2    ;  uncertainty k = 0.117430
        29        30        31        49     9        0.000000        1.033193         3    ;  uncertainty k = 0.049823
        29        30        31        49     9      180.000000        0.223294         4    ;  uncertainty k = 0.039928
        29        30        31        50     9        0.000000        1.110243         1    ;  uncertainty k = 0.221947
        29        30        31        50     9      180.000000       -2.083404         2    ;  uncertainty k = 0.117430
        29        30        31        50     9        0.000000        1.033193         3    ;  uncertainty k = 0.049823
        29        30        31        50     9      180.000000        0.223294         4    ;  uncertainty k = 0.039928
        30        29        28        47     9        0.000000       -0.013362         1    ;  uncertainty k = 0.227812
        30        29        28        47     9      180.000000        9.629865         2    ;  uncertainty k = 0.341224
        30        29        28        47     9        0.000000        0.885574         3    ;  uncertainty k = 0.134168
        30        29        28        47     9      180.000000        1.294493         4    ;  uncertainty k = 0.314813
        35         4         5        36     9        0.000000       -0.108356         1    ;  uncertainty k = 0.187628
        35         4         5        36     9      180.000000        7.451232         2    ;  uncertainty k = 0.478631
        35         4         5        36     9        0.000000       -0.297348         3    ;  uncertainty k = 0.298879
        35         4         5        36     9      180.000000        0.257401         4    ;  uncertainty k = 0.173209
        39        13        14        40     9        0.000000       -0.311075         1    ;  uncertainty k = 0.492453
        39        13        14        40     9      180.000000        5.384359         2    ;  uncertainty k = 0.598234
        39        13        14        40     9        0.000000        1.243313         3    ;  uncertainty k = 0.430720
        39        13        14        40     9      180.000000        0.271791         4    ;  uncertainty k = 0.092255
        41        18        19        42     9        0.000000       -0.148699         1    ;  uncertainty k = 0.424384
        41        18        19        42     9      180.000000        7.744041         2    ;  uncertainty k = 0.352000
        41        18        19        42     9        0.000000       -0.283152         3    ;  uncertainty k = 0.267181
        41        18        19        42     9      180.000000        0.274166         4    ;  uncertainty k = 0.154698

[ dihedrals ] ; impropers
;       ai        aj        ak        al funct           phase               k        pn
         3         2         4        29     4      180.000000       15.206029         2    ;  uncertainty k = 0.074967
         3         4        29         2     4      180.000000       15.206029         2    ;  uncertainty k = 0.074967
         3        29         2         4     4      180.000000       15.206029         2    ;  uncertainty k = 0.074967
         4         3         5        35     4      180.000000        2.008335         2    ;  uncertainty k = 0.230964
         4         5        35         3     4      180.000000        2.008335         2    ;  uncertainty k = 0.230964
         4        35         3         5     4      180.000000        2.008335         2    ;  uncertainty k = 0.230964
         5         4         6        36     4      180.000000        2.607477         2    ;  uncertainty k = 0.379217
         5         6        36         4     4      180.000000        2.607477         2    ;  uncertainty k = 0.379217
         5        36         4         6     4      180.000000        2.607477         2    ;  uncertainty k = 0.379217
         6         5         7        28     4      180.000000       17.507517         2    ;  uncertainty k = 0.057196
         6         7        28         5     4      180.000000       17.507517         2    ;  uncertainty k = 0.057196
         6        28         5         7     4      180.000000       17.507517         2    ;  uncertainty k = 0.057196
         7         6         8        37     4      180.000000        1.622505         2    ;  uncertainty k = 0.666333
         7         8        37         6     4      180.000000        1.622505         2    ;  uncertainty k = 0.666333
         7        37         6         8     4      180.000000        1.622505         2    ;  uncertainty k = 0.666333
         8         7         9        16     4      180.000000       28.373181         2    ;  uncertainty k = 0.063953
         8         9        16         7     4      180.000000       28.373181         2    ;  uncertainty k = 0.063953
         8        16         7         9     4      180.000000       28.373181         2    ;  uncertainty k = 0.063953
        10         9        11        17     4      180.000000       19.168580         2    ;  uncertainty k = 0.080413
        10        11        17         9     4      180.000000       19.168580         2    ;  uncertainty k = 0.080413
        10        17         9        11     4      180.000000       19.168580         2    ;  uncertainty k = 0.080413
        11        10        12        38     4      180.000000        1.390128         2    ;  uncertainty k = 1.166028
        11        12        38        10     4      180.000000        1.390128         2    ;  uncertainty k = 1.166028
        11        38        10        12     4      180.000000        1.390128         2    ;  uncertainty k = 1.166028
        12        11        13        16     4      180.000000        1.571839         2    ;  uncertainty k = 1.396554
        12        13        16        11     4      180.000000        1.571839         2    ;  uncertainty k = 1.396554
        12        16        11        13     4      180.000000        1.571839         2    ;  uncertainty k = 1.396554
        13        12        14        39     4      180.000000        0.105195         2    ;  uncertainty k = 0.235223
        13        14        39        12     4      180.000000        0.105195         2    ;  uncertainty k = 0.235223
        13        39        12        14     4      180.000000        0.105195         2    ;  uncertainty k = 0.235223
        14        13        15        40     4      180.000000        1.779599         2    ;  uncertainty k = 0.230150
        14        15        40        13     4      180.000000        1.779599         2    ;  uncertainty k = 0.230150
        14        40        13        15     4      180.000000        1.779599         2    ;  uncertainty k = 0.230150
        16         8        12        15     4      180.000000        2.165381         2    ;  uncertainty k = 0.627947
        16        12        15         8     4      180.000000        2.165381         2    ;  uncertainty k = 0.627947
        16        15         8        12     4      180.000000        2.165381         2    ;  uncertainty k = 0.627947
        17        10        18        27     4      180.000000       10.638586         2    ;  uncertainty k = 0.198182
        17        18        27        10     4      180.000000       10.638586         2    ;  uncertainty k = 0.198182
        17        27        10        18     4      180.000000       10.638586         2    ;  uncertainty k = 0.198182
        18        17        19        41     4      180.000000        3.352590         2    ;  uncertainty k = 0.200164
        18        19        41        17     4      180.000000        3.352590         2    ;  uncertainty k = 0.200164
        18        41        17        19     4      180.000000        3.352590         2    ;  uncertainty k = 0.200164
        19        18        20        42     4      180.000000        2.131577         2    ;  uncertainty k = 0.386303
        19        20        42        18     4      180.000000        2.131577         2    ;  uncertainty k = 0.386303
        19        42        18        20     4      180.000000        2.131577         2    ;  uncertainty k = 0.386303
        20        19        21        26     4      180.000000       14.227171         2    ;  uncertainty k = 0.236748
        20        21        26        19     4      180.000000       14.227171         2    ;  uncertainty k = 0.236748
        20        26        19        21     4      180.000000       14.227171         2    ;  uncertainty k = 0.236748
        21        20        22        43     4      180.000000        0.659254         2    ;  uncertainty k = 0.782813
        21        22        43        20     4      180.000000        0.659254         2    ;  uncertainty k = 0.782813
        21        43        20        22     4      180.000000        0.659254         2    ;  uncertainty k = 0.782813
        22        21        23        24     4      180.000000       52.854017         2    ;  uncertainty k = 0.034777
        22        23        24        21     4      180.000000       52.854017         2    ;  uncertainty k = 0.034777
        22        24        21        23     4      180.000000       52.854017         2    ;  uncertainty k = 0.034777
        26        20        25        27     4      180.000000       15.023819         2    ;  uncertainty k = 0.178747
        26        25        27        20     4      180.000000       15.023819         2    ;  uncertainty k = 0.178747
        26        27        20        25     4      180.000000       15.023819         2    ;  uncertainty k = 0.178747
        27        17        26        46     4      180.000000        2.143120         2    ;  uncertainty k = 0.289109
        27        26        46        17     4      180.000000        2.143120         2    ;  uncertainty k = 0.289109
        27        46        17        26     4      180.000000        2.143120         2    ;  uncertainty k = 0.289109
        28         6        29        47     4      180.000000        1.689049         2    ;  uncertainty k = 0.529654
        28        29        47         6     4      180.000000        1.689049         2    ;  uncertainty k = 0.529654
        28        47         6        29     4      180.000000        1.689049         2    ;  uncertainty k = 0.529654
        29         3        28        30     4      180.000000       16.672261         2    ;  uncertainty k = 0.075717
        29        28        30         3     4      180.000000       16.672261         2    ;  uncertainty k = 0.075717
        29        30         3        28     4      180.000000       16.672261         2    ;  uncertainty k = 0.075717

[ pairs ]
;       ai        aj funct
         1         4     1
         1        29     1
         2         5     1
         2        28     1
         2        30     1
         2        35     1
         3         6     1
         3        31     1
         3        32     1
         3        33     1
         3        34     1
         3        36     1
         3        47     1
         4         7     1
         4        28     1
         4        30     1
         5         8     1
         5        29     1
         5        37     1
         5        47     1
         6         9     1
         6        16     1
         6        30     1
         6        35     1
         7        10     1
         7        12     1
         7        15     1
         7        29     1
         7        36     1
         7        47     1
         8        11     1
         8        13     1
         8        14     1
         8        17     1
         8        28     1
         9        12     1
         9        15     1
         9        18     1
         9        27     1
         9        37     1
         9        38     1
        10        13     1
        10        16     1
        10        19     1
        10        26     1
        10        41     1
        10        46     1
        11        14     1
        11        15     1
        11        18     1
        11        27     1
        11        39     1
        12        17     1
        12        40     1
        13        38     1
        15        39     1
        16        37     1
        16        38     1
        16        39     1
        16        40     1
        17        20     1
        17        25     1
        17        38     1
        17        42     1
        18        21     1
        18        26     1
        18        46     1
        19        22     1
        19        25     1
        19        27     1
        19        43     1
        20        23     1
        20        24     1
        20        41     1
        20        46     1
        21        25     1
        21        27     1
        21        42     1
        21        44     1
        21        45     1
        22        26     1
        23        25     1
        23        43     1
        23        44     1
        23        45     1
        24        27     1
        24        43     1
        25        46     1
        26        42     1
        26        43     1
        26        44     1
        26        45     1
        27        41     1
        28        31     1
        28        36     1
        28        37     1
        29        35     1
        29        48     1
        29        49     1
        29        50     1
        30        47     1
        35        36     1
        39        40     1
        41        42     1
