; ITP file created by ByteFF-joint-25, 2026-02-17 09:39:21.454526

[ atomtypes ]
;name           bonded.type        at.num        mass        charge   ptype           sigma         epsilon
 o0bf                                   8      0.0000       0.00000       A     3.04815e-01     6.12288e-01    ;  uncertainty sigma = 0.000009, epsilon = 0.000844
 s1bf                                  16      0.0000       0.00000       A     4.05813e-01     2.56688e-01    ;  uncertainty sigma = 0.000011, epsilon = 0.001991
 o2bf                                   8      0.0000       0.00000       A     3.04815e-01     6.12288e-01    ;  uncertainty sigma = 0.000009, epsilon = 0.000844
 c3bf                                   6      0.0000       0.00000       A     3.39770e-01     4.51297e-01    ;  uncertainty sigma = 0.000008, epsilon = 0.000985
 c4bf                                   6      0.0000       0.00000       A     3.39764e-01     4.50956e-01    ;  uncertainty sigma = 0.000008, epsilon = 0.000337
 n5bf                                   7      0.0000       0.00000       A     3.18937e-01     8.98067e-01    ;  uncertainty sigma = 0.000042, epsilon = 0.003497
 c6bf                                   6      0.0000       0.00000       A     3.39764e-01     4.50956e-01    ;  uncertainty sigma = 0.000008, epsilon = 0.000337
 c7bf                                   6      0.0000       0.00000       A     3.39770e-01     4.51297e-01    ;  uncertainty sigma = 0.000008, epsilon = 0.000985
 c8bf                                   6      0.0000       0.00000       A     3.31517e-01     4.13180e-01    ;  uncertainty sigma = 0.000015, epsilon = 0.000686
 c9bf                                   6      0.0000       0.00000       A     3.31529e-01     4.13240e-01    ;  uncertainty sigma = 0.000003, epsilon = 0.000377
 c10bf                                  6      0.0000       0.00000       A     3.31520e-01     4.13355e-01    ;  uncertainty sigma = 0.000010, epsilon = 0.000739
 c11bf                                  6      0.0000       0.00000       A     3.31527e-01     4.13416e-01    ;  uncertainty sigma = 0.000004, epsilon = 0.001003
 n12bf                                  7      0.0000       0.00000       A     3.27838e-01     6.46213e-01    ;  uncertainty sigma = 0.000040, epsilon = 0.003240
 c13bf                                  6      0.0000       0.00000       A     3.31526e-01     4.13887e-01    ;  uncertainty sigma = 0.000017, epsilon = 0.001682
 n14bf                                  7      0.0000       0.00000       A     3.38464e-01     3.93282e-01    ;  uncertainty sigma = 0.000032, epsilon = 0.000680
 c15bf                                  6      0.0000       0.00000       A     3.31551e-01     4.13482e-01    ;  uncertainty sigma = 0.000026, epsilon = 0.000675
 c16bf                                  6      0.0000       0.00000       A     3.31561e-01     4.13642e-01    ;  uncertainty sigma = 0.000012, epsilon = 0.001524
 n17bf                                  7      0.0000       0.00000       A     3.20547e-01     8.53303e-01    ;  uncertainty sigma = 0.000017, epsilon = 0.000844
 c18bf                                  6      0.0000       0.00000       A     3.31503e-01     4.12978e-01    ;  uncertainty sigma = 0.000012, epsilon = 0.001136
 c19bf                                  6      0.0000       0.00000       A     3.31531e-01     4.13187e-01    ;  uncertainty sigma = 0.000008, epsilon = 0.000699
 n20bf                                  7      0.0000       0.00000       A     3.38427e-01     3.92895e-01    ;  uncertainty sigma = 0.000039, epsilon = 0.000415
 c21bf                                  6      0.0000       0.00000       A     3.31554e-01     4.12537e-01    ;  uncertainty sigma = 0.000015, epsilon = 0.000432
 c22bf                                  6      0.0000       0.00000       A     3.31495e-01     4.12862e-01    ;  uncertainty sigma = 0.000015, epsilon = 0.000655
 c23bf                                  6      0.0000       0.00000       A     3.31522e-01     4.13340e-01    ;  uncertainty sigma = 0.000008, epsilon = 0.000498
 c24bf                                  6      0.0000       0.00000       A     3.31514e-01     4.13292e-01    ;  uncertainty sigma = 0.000012, epsilon = 0.000796
 c25bf                                  6      0.0000       0.00000       A     3.31509e-01     4.13757e-01    ;  uncertainty sigma = 0.000011, epsilon = 0.000799
 c26bf                                  6      0.0000       0.00000       A     3.31513e-01     4.13361e-01    ;  uncertainty sigma = 0.000005, epsilon = 0.000518
 n27bf                                  7      0.0000       0.00000       A     3.38391e-01     3.93277e-01    ;  uncertainty sigma = 0.000010, epsilon = 0.000960
 n28bf                                  7      0.0000       0.00000       A     3.20633e-01     8.53350e-01    ;  uncertainty sigma = 0.000014, epsilon = 0.001516
 c29bf                                  6      0.0000       0.00000       A     3.31512e-01     4.13040e-01    ;  uncertainty sigma = 0.000009, epsilon = 0.000957
 c30bf                                  6      0.0000       0.00000       A     3.31510e-01     4.13220e-01    ;  uncertainty sigma = 0.000011, epsilon = 0.001090
 c31bf                                  6      0.0000       0.00000       A     3.31520e-01     4.13355e-01    ;  uncertainty sigma = 0.000010, epsilon = 0.000739
 c32bf                                  6      0.0000       0.00000       A     3.31529e-01     4.13240e-01    ;  uncertainty sigma = 0.000003, epsilon = 0.000377
 h33bf                                  1      0.0000       0.00000       A     2.42214e-01     8.65193e-02    ;  uncertainty sigma = 0.000019, epsilon = 0.000676
 h34bf                                  1      0.0000       0.00000       A     2.42214e-01     8.65193e-02    ;  uncertainty sigma = 0.000019, epsilon = 0.000676
 h35bf                                  1      0.0000       0.00000       A     2.42190e-01     8.68158e-02    ;  uncertainty sigma = 0.000015, epsilon = 0.000908
 h36bf                                  1      0.0000       0.00000       A     2.42190e-01     8.68158e-02    ;  uncertainty sigma = 0.000015, epsilon = 0.000908
 h37bf                                  1      0.0000       0.00000       A     2.42190e-01     8.68158e-02    ;  uncertainty sigma = 0.000015, epsilon = 0.000908
 h38bf                                  1      0.0000       0.00000       A     2.42190e-01     8.68158e-02    ;  uncertainty sigma = 0.000015, epsilon = 0.000908
 h39bf                                  1      0.0000       0.00000       A     2.42214e-01     8.65193e-02    ;  uncertainty sigma = 0.000019, epsilon = 0.000676
 h40bf                                  1      0.0000       0.00000       A     2.42214e-01     8.65193e-02    ;  uncertainty sigma = 0.000019, epsilon = 0.000676
 h41bf                                  1      0.0000       0.00000       A     2.62564e-01     6.71920e-02    ;  uncertainty sigma = 0.000015, epsilon = 0.000441
 h42bf                                  1      0.0000       0.00000       A     2.62567e-01     6.70446e-02    ;  uncertainty sigma = 0.000013, epsilon = 0.000408
 h43bf                                  1      0.0000       0.00000       A     1.10708e-01     4.06502e-02    ;  uncertainty sigma = 0.000118, epsilon = 0.000465
 h44bf                                  1      0.0000       0.00000       A     2.53612e-01     6.73648e-02    ;  uncertainty sigma = 0.000081, epsilon = 0.000889
 h45bf                                  1      0.0000       0.00000       A     2.53649e-01     6.68496e-02    ;  uncertainty sigma = 0.000023, epsilon = 0.000657
 h46bf                                  1      0.0000       0.00000       A     2.53645e-01     6.69492e-02    ;  uncertainty sigma = 0.000020, epsilon = 0.000834
 h47bf                                  1      0.0000       0.00000       A     2.62566e-01     6.71205e-02    ;  uncertainty sigma = 0.000011, epsilon = 0.000550
 h48bf                                  1      0.0000       0.00000       A     2.62563e-01     6.68746e-02    ;  uncertainty sigma = 0.000013, epsilon = 0.000544
 h49bf                                  1      0.0000       0.00000       A     2.53655e-01     6.72548e-02    ;  uncertainty sigma = 0.000027, epsilon = 0.000407
 h50bf                                  1      0.0000       0.00000       A     1.10649e-01     4.13996e-02    ;  uncertainty sigma = 0.000067, epsilon = 0.000803
 h51bf                                  1      0.0000       0.00000       A     2.62569e-01     6.71238e-02    ;  uncertainty sigma = 0.000008, epsilon = 0.000504
 h52bf                                  1      0.0000       0.00000       A     2.62567e-01     6.70444e-02    ;  uncertainty sigma = 0.000013, epsilon = 0.000408
 h53bf                                  1      0.0000       0.00000       A     2.62564e-01     6.71921e-02    ;  uncertainty sigma = 0.000015, epsilon = 0.000441

[ moleculetype ]
;name             nrexcl
 MOL                   3

[ atoms ]
;       nr            type      resi   res      atom      cgnr      charge          mass ; qtot
         1            o0bf         1   UNL        o0         1    -0.56987       15.9990 ; qtot   -0.570
         2            s1bf         1   UNL        s1         2     0.91869       32.0670 ; qtot    0.349
         3            o2bf         1   UNL        o2         3    -0.56987       15.9990 ; qtot   -0.221
         4            c3bf         1   UNL        c3         4    -0.17424       12.0110 ; qtot   -0.395
         5            c4bf         1   UNL        c4         5     0.22721       12.0110 ; qtot   -0.168
         6            n5bf         1   UNL        n5         6    -0.68474       14.0070 ; qtot   -0.853
         7            c6bf         1   UNL        c6         7     0.22721       12.0110 ; qtot   -0.626
         8            c7bf         1   UNL        c7         8    -0.17424       12.0110 ; qtot   -0.800
         9            c8bf         1   UNL        c8         9     0.12680       12.0110 ; qtot   -0.673
        10            c9bf         1   UNL        c9        10    -0.16270       12.0110 ; qtot   -0.836
        11           c10bf         1   UNL       c10        11    -0.12966       12.0110 ; qtot   -0.965
        12           c11bf         1   UNL       c11        12     0.14860       12.0110 ; qtot   -0.817
        13           n12bf         1   UNL       n12        13    -0.74012       14.0070 ; qtot   -1.557
        14           c13bf         1   UNL       c13        14     0.75024       12.0110 ; qtot   -0.807
        15           n14bf         1   UNL       n14        15    -0.76973       14.0070 ; qtot   -1.576
        16           c15bf         1   UNL       c15        16     0.47542       12.0110 ; qtot   -1.101
        17           c16bf         1   UNL       c16        17    -0.22208       12.0110 ; qtot   -1.323
        18           n17bf         1   UNL       n17        18     0.05408       14.0070 ; qtot   -1.269
        19           c18bf         1   UNL       c18        19    -0.21243       12.0110 ; qtot   -1.481
        20           c19bf         1   UNL       c19        20     0.01175       12.0110 ; qtot   -1.470
        21           n20bf         1   UNL       n20        21    -0.27543       14.0070 ; qtot   -1.745
        22           c21bf         1   UNL       c21        22    -0.18460       12.0110 ; qtot   -1.930
        23           c22bf         1   UNL       c22        23    -0.09010       12.0110 ; qtot   -2.020
        24           c23bf         1   UNL       c23        24    -0.14752       12.0110 ; qtot   -2.167
        25           c24bf         1   UNL       c24        25    -0.05609       12.0110 ; qtot   -2.223
        26           c25bf         1   UNL       c25        26    -0.22020       12.0110 ; qtot   -2.444
        27           c26bf         1   UNL       c26        27     0.35625       12.0110 ; qtot   -2.087
        28           n27bf         1   UNL       n27        28    -0.50685       14.0070 ; qtot   -2.594
        29           n28bf         1   UNL       n28        29    -0.03477       14.0070 ; qtot   -2.629
        30           c29bf         1   UNL       c29        30    -0.03315       12.0110 ; qtot   -2.662
        31           c30bf         1   UNL       c30        31    -0.12410       12.0110 ; qtot   -2.786
        32           c31bf         1   UNL       c31        32    -0.12966       12.0110 ; qtot   -2.916
        33           c32bf         1   UNL       c32        33    -0.16270       12.0110 ; qtot   -3.079
        34           h33bf         1   UNL       h33        34     0.11165        1.0080 ; qtot   -2.967
        35           h34bf         1   UNL       h34        35     0.11165        1.0080 ; qtot   -2.855
        36           h35bf         1   UNL       h35        36     0.06719        1.0080 ; qtot   -2.788
        37           h36bf         1   UNL       h36        37     0.06719        1.0080 ; qtot   -2.721
        38           h37bf         1   UNL       h37        38     0.06719        1.0080 ; qtot   -2.654
        39           h38bf         1   UNL       h38        39     0.06719        1.0080 ; qtot   -2.587
        40           h39bf         1   UNL       h39        40     0.11165        1.0080 ; qtot   -2.475
        41           h40bf         1   UNL       h40        41     0.11165        1.0080 ; qtot   -2.363
        42           h41bf         1   UNL       h41        42     0.13067        1.0080 ; qtot   -2.233
        43           h42bf         1   UNL       h42        43     0.14804        1.0080 ; qtot   -2.085
        44           h43bf         1   UNL       h43        44     0.46054        1.0080 ; qtot   -1.624
        45           h44bf         1   UNL       h44        45     0.17402        1.0080 ; qtot   -1.450
        46           h45bf         1   UNL       h45        46     0.18619        1.0080 ; qtot   -1.264
        47           h46bf         1   UNL       h46        47     0.17120        1.0080 ; qtot   -1.093
        48           h47bf         1   UNL       h47        48     0.14353        1.0080 ; qtot   -0.949
        49           h48bf         1   UNL       h48        49     0.14235        1.0080 ; qtot   -0.807
        50           h49bf         1   UNL       h49        50     0.05012        1.0080 ; qtot   -0.757
        51           h50bf         1   UNL       h50        51     0.32822        1.0080 ; qtot   -0.428
        52           h51bf         1   UNL       h51        52     0.14965        1.0080 ; qtot   -0.279
        53           h52bf         1   UNL       h52        53     0.14804        1.0080 ; qtot   -0.131
        54           h53bf         1   UNL       h53        54     0.13067        1.0080 ; qtot    0.000

[ bonds ]
;       ai        aj funct               r               k
         1         2     1        0.147543   556546.772656    ;  uncertainty r = 0.000054, k = 6.019592
         2         3     1        0.147543   556546.772656    ;  uncertainty r = 0.000054, k = 6.019592
         2         4     1        0.182269   157265.959546    ;  uncertainty r = 0.000020, k = 10.821229
         2         8     1        0.182269   157265.959546    ;  uncertainty r = 0.000020, k = 10.821229
         4         5     1        0.153380   261279.946729    ;  uncertainty r = 0.000057, k = 23.872978
         4        34     1        0.109332   327389.981348    ;  uncertainty r = 0.000013, k = 2.963569
         4        35     1        0.109332   327389.981348    ;  uncertainty r = 0.000013, k = 2.963569
         5         6     1        0.145753   250985.810254    ;  uncertainty r = 0.000159, k = 11.696577
         5        36     1        0.109598   305290.805322    ;  uncertainty r = 0.000014, k = 1.033236
         5        37     1        0.109598   305290.805322    ;  uncertainty r = 0.000014, k = 1.033236
         6         7     1        0.145753   250985.810254    ;  uncertainty r = 0.000159, k = 11.696577
         6         9     1        0.141086   345230.512402    ;  uncertainty r = 0.000222, k = 13.481770
         7         8     1        0.153380   261279.946729    ;  uncertainty r = 0.000057, k = 23.872978
         7        38     1        0.109598   305290.805322    ;  uncertainty r = 0.000014, k = 1.033236
         7        39     1        0.109598   305290.805322    ;  uncertainty r = 0.000014, k = 1.033236
         8        40     1        0.109332   327389.981348    ;  uncertainty r = 0.000013, k = 2.963569
         8        41     1        0.109332   327389.981348    ;  uncertainty r = 0.000013, k = 2.963569
         9        10     1        0.140484   344011.549561    ;  uncertainty r = 0.000054, k = 5.240696
         9        33     1        0.140484   344011.549561    ;  uncertainty r = 0.000054, k = 5.240696
        10        11     1        0.138951   360786.289355    ;  uncertainty r = 0.000054, k = 6.220831
        10        42     1        0.108804   336867.083545    ;  uncertainty r = 0.000049, k = 2.350494
        11        12     1        0.140045   352500.237939    ;  uncertainty r = 0.000088, k = 6.015956
        11        43     1        0.108785   335836.380273    ;  uncertainty r = 0.000061, k = 1.629977
        12        13     1        0.141140   347428.900000    ;  uncertainty r = 0.000067, k = 12.529211
        12        32     1        0.140045   352500.289014    ;  uncertainty r = 0.000088, k = 6.015966
        13        14     1        0.137928   330364.033105    ;  uncertainty r = 0.000233, k = 32.504541
        13        44     1        0.102080   426606.656543    ;  uncertainty r = 0.000044, k = 5.060956
        14        15     1        0.132293   443196.890723    ;  uncertainty r = 0.000185, k = 13.473043
        14        22     1        0.143016   286566.945654    ;  uncertainty r = 0.000095, k = 10.976562
        15        16     1        0.137539   259289.788721    ;  uncertainty r = 0.000221, k = 27.333167
        16        17     1        0.136983   380120.741309    ;  uncertainty r = 0.000106, k = 13.129474
        16        23     1        0.147341   266299.265576    ;  uncertainty r = 0.000140, k = 10.421899
        17        18     1        0.137903   324759.863379    ;  uncertainty r = 0.000057, k = 6.440736
        17        45     1        0.108483   340864.892480    ;  uncertainty r = 0.000069, k = 2.329540
        18        19     1        0.137812   342777.392139    ;  uncertainty r = 0.000099, k = 5.087981
        18        22     1        0.139016   307421.187598    ;  uncertainty r = 0.000151, k = 23.940610
        19        20     1        0.138713   413349.296045    ;  uncertainty r = 0.000044, k = 11.515259
        19        46     1        0.108153   341281.147363    ;  uncertainty r = 0.000029, k = 4.725641
        20        21     1        0.136694   264650.947314    ;  uncertainty r = 0.000104, k = 21.676771
        20        47     1        0.108374   336399.652295    ;  uncertainty r = 0.000052, k = 2.763013
        21        22     1        0.133277   447135.836621    ;  uncertainty r = 0.000097, k = 11.841719
        23        24     1        0.142221   330382.215527    ;  uncertainty r = 0.000108, k = 4.226718
        23        31     1        0.138999   355014.238672    ;  uncertainty r = 0.000049, k = 4.165741
        24        25     1        0.138406   365370.174951    ;  uncertainty r = 0.000051, k = 6.484539
        24        48     1        0.108740   335079.715723    ;  uncertainty r = 0.000026, k = 2.762628
        25        26     1        0.140636   363954.065625    ;  uncertainty r = 0.000045, k = 4.520838
        25        49     1        0.108793   334157.723926    ;  uncertainty r = 0.000027, k = 0.888009
        26        27     1        0.143565   236002.166699    ;  uncertainty r = 0.000085, k = 10.251197
        26        30     1        0.141896   395442.598340    ;  uncertainty r = 0.000042, k = 7.271248
        27        28     1        0.132527   481307.910937    ;  uncertainty r = 0.000030, k = 4.804422
        27        50     1        0.108445   339950.331982    ;  uncertainty r = 0.000029, k = 2.772015
        28        29     1        0.136464   286651.218115    ;  uncertainty r = 0.000028, k = 6.362435
        29        30     1        0.137432   293777.093115    ;  uncertainty r = 0.000025, k = 8.625448
        29        51     1        0.101061   415482.921533    ;  uncertainty r = 0.000029, k = 2.943417
        30        31     1        0.139860   363187.467139    ;  uncertainty r = 0.000057, k = 4.398211
        31        52     1        0.108825   335126.984912    ;  uncertainty r = 0.000043, k = 1.321162
        32        33     1        0.138951   360786.289355    ;  uncertainty r = 0.000054, k = 6.220810
        32        53     1        0.108785   335836.431348    ;  uncertainty r = 0.000061, k = 1.629994
        33        54     1        0.108804   336867.109082    ;  uncertainty r = 0.000049, k = 2.350497

[ angles ]
;       ai        aj        ak funct           theta             cth
         1         2         3     1      121.985657      853.262689    ;  uncertainty theta = 0.003587, k = 0.053171
         1         2         4     1      111.554420      694.767386    ;  uncertainty theta = 0.002847, k = 0.025793
         1         2         8     1      111.554420      694.767386    ;  uncertainty theta = 0.002847, k = 0.025793
         2         4         5     1      109.486427      568.550350    ;  uncertainty theta = 0.001239, k = 0.177924
         2         4        34     1      105.939796      355.888412    ;  uncertainty theta = 0.001386, k = 0.076900
         2         4        35     1      105.939796      355.888412    ;  uncertainty theta = 0.001386, k = 0.076900
         2         8         7     1      109.486427      568.550350    ;  uncertainty theta = 0.001239, k = 0.177924
         2         8        40     1      105.939796      355.888412    ;  uncertainty theta = 0.001386, k = 0.076900
         2         8        41     1      105.939796      355.888412    ;  uncertainty theta = 0.001386, k = 0.076900
         3         2         4     1      111.554420      694.767386    ;  uncertainty theta = 0.002847, k = 0.025793
         3         2         8     1      111.554420      694.767386    ;  uncertainty theta = 0.002847, k = 0.025793
         4         2         8     1       99.014969      761.466549    ;  uncertainty theta = 0.007307, k = 0.325343
         4         5         6     1      111.284386      694.719440    ;  uncertainty theta = 0.002607, k = 0.234509
         4         5        36     1      107.125534      411.646392    ;  uncertainty theta = 0.000403, k = 0.074575
         4         5        37     1      107.125534      411.646392    ;  uncertainty theta = 0.000403, k = 0.074575
         5         4        34     1      110.345261      378.779845    ;  uncertainty theta = 0.001432, k = 0.111523
         5         4        35     1      110.345261      378.779845    ;  uncertainty theta = 0.001432, k = 0.111523
         5         6         7     1      109.812355      409.190042    ;  uncertainty theta = 0.007705, k = 0.228595
         5         6         9     1      111.486412      432.462201    ;  uncertainty theta = 0.001389, k = 0.158491
         6         5        36     1      108.035118      463.820877    ;  uncertainty theta = 0.002847, k = 0.041032
         6         5        37     1      108.035118      463.820877    ;  uncertainty theta = 0.002847, k = 0.041032
         6         7         8     1      111.284386      694.719440    ;  uncertainty theta = 0.002607, k = 0.234509
         6         7        38     1      108.035118      463.820877    ;  uncertainty theta = 0.002847, k = 0.041032
         6         7        39     1      108.035118      463.820877    ;  uncertainty theta = 0.002847, k = 0.041032
         6         9        10     1      121.738808      453.169604    ;  uncertainty theta = 0.002307, k = 0.144247
         6         9        33     1      121.738792      453.169541    ;  uncertainty theta = 0.002307, k = 0.144247
         7         6         9     1      111.486412      432.462201    ;  uncertainty theta = 0.001389, k = 0.158491
         7         8        40     1      110.345261      378.779845    ;  uncertainty theta = 0.001432, k = 0.111523
         7         8        41     1      110.345261      378.779845    ;  uncertainty theta = 0.001432, k = 0.111523
         8         7        38     1      107.125534      411.646392    ;  uncertainty theta = 0.000403, k = 0.074575
         8         7        39     1      107.125534      411.646392    ;  uncertainty theta = 0.000403, k = 0.074575
         9        10        11     1      121.236954      513.294941    ;  uncertainty theta = 0.003026, k = 0.084237
         9        10        42     1      119.222023      272.134993    ;  uncertainty theta = 0.001783, k = 0.048551
         9        33        32     1      121.236954      513.294941    ;  uncertainty theta = 0.003026, k = 0.084237
         9        33        54     1      119.222023      272.134993    ;  uncertainty theta = 0.001783, k = 0.048551
        10         9        33     1      119.262405      348.348645    ;  uncertainty theta = 0.005314, k = 0.250228
        10        11        12     1      120.736816      491.162183    ;  uncertainty theta = 0.003169, k = 0.166644
        10        11        43     1      120.711098      296.002071    ;  uncertainty theta = 0.002714, k = 0.104629
        11        10        42     1      119.762123      289.187653    ;  uncertainty theta = 0.001648, k = 0.068108
        11        12        13     1      120.230019      520.665589    ;  uncertainty theta = 0.002886, k = 0.190467
        11        12        32     1      118.783348      374.117439    ;  uncertainty theta = 0.006318, k = 0.143222
        12        11        43     1      119.414368      272.963864    ;  uncertainty theta = 0.002583, k = 0.072111
        12        13        14     1      116.276146      383.471268    ;  uncertainty theta = 0.003274, k = 0.167592
        12        13        44     1      114.244217      352.473462    ;  uncertainty theta = 0.005063, k = 0.253760
        12        32        33     1      120.736816      491.162183    ;  uncertainty theta = 0.003169, k = 0.166644
        12        32        53     1      119.414368      272.963864    ;  uncertainty theta = 0.002583, k = 0.072111
        13        12        32     1      120.230019      520.665653    ;  uncertainty theta = 0.002886, k = 0.190467
        13        14        15     1      122.101028      744.137513    ;  uncertainty theta = 0.006060, k = 0.183514
        13        14        22     1      118.389694      493.671492    ;  uncertainty theta = 0.006677, k = 0.107017
        14        13        44     1      116.994568      430.564506    ;  uncertainty theta = 0.006061, k = 0.204563
        14        15        16     1      121.081543      436.533806    ;  uncertainty theta = 0.009425, k = 0.261818
        14        22        18     1      111.142784      333.997874    ;  uncertainty theta = 0.012736, k = 0.456018
        14        22        21     1      125.515465      293.447945    ;  uncertainty theta = 0.008643, k = 0.324339
        15        14        22     1      122.405640      559.409789    ;  uncertainty theta = 0.006101, k = 0.247559
        15        16        17     1      124.529945      546.825995    ;  uncertainty theta = 0.003188, k = 0.249818
        15        16        23     1      117.266068      449.509754    ;  uncertainty theta = 0.001673, k = 0.093555
        16        17        18     1      117.545448      533.201245    ;  uncertainty theta = 0.004801, k = 0.198048
        16        17        45     1      124.661926      232.745215    ;  uncertainty theta = 0.008830, k = 0.220531
        16        23        24     1      119.027603      411.436892    ;  uncertainty theta = 0.003206, k = 0.096656
        16        23        31     1      119.097130      398.595621    ;  uncertainty theta = 0.002830, k = 0.193564
        17        16        23     1      121.495850      379.274084    ;  uncertainty theta = 0.004582, k = 0.073177
        17        18        19     1      129.660461      429.070873    ;  uncertainty theta = 0.002332, k = 0.325292
        17        18        22     1      117.456383      429.436979    ;  uncertainty theta = 0.007676, k = 0.177572
        18        17        45     1      117.405563      315.690512    ;  uncertainty theta = 0.003645, k = 0.141950
        18        19        20     1      105.324829      767.668044    ;  uncertainty theta = 0.004981, k = 0.189091
        18        19        46     1      119.539230      282.399762    ;  uncertainty theta = 0.002926, k = 0.163945
        18        22        21     1      114.523727      791.406958    ;  uncertainty theta = 0.003446, k = 0.159720
        19        18        22     1      106.195152      846.636320    ;  uncertainty theta = 0.003800, k = 0.266753
        19        20        21     1      111.223167      865.900238    ;  uncertainty theta = 0.003390, k = 0.157111
        19        20        47     1      125.339600      238.965624    ;  uncertainty theta = 0.004247, k = 0.092338
        20        19        46     1      130.781433      240.351858    ;  uncertainty theta = 0.003259, k = 0.025087
        20        21        22     1      106.065872      820.721453    ;  uncertainty theta = 0.001716, k = 0.145916
        21        20        47     1      119.156937      297.238833    ;  uncertainty theta = 0.004129, k = 0.152925
        23        24        25     1      123.016739      525.733939    ;  uncertainty theta = 0.003070, k = 0.077649
        23        24        48     1      117.874733      272.056881    ;  uncertainty theta = 0.003138, k = 0.063286
        23        31        30     1      116.866013      520.760715    ;  uncertainty theta = 0.004532, k = 0.170114
        23        31        52     1      119.930405      268.313652    ;  uncertainty theta = 0.002430, k = 0.106947
        24        23        31     1      123.809654      434.126710    ;  uncertainty theta = 0.003394, k = 0.121259
        24        25        26     1      118.929970      553.342236    ;  uncertainty theta = 0.002680, k = 0.060560
        24        25        49     1      120.653542      279.974630    ;  uncertainty theta = 0.001067, k = 0.066865
        25        24        48     1      119.509888      297.701821    ;  uncertainty theta = 0.002978, k = 0.036486
        25        26        27     1      132.278717      354.679422    ;  uncertainty theta = 0.004732, k = 0.185731
        25        26        30     1      116.909569      406.929752    ;  uncertainty theta = 0.004133, k = 0.092172
        26        25        49     1      121.803482      294.188936    ;  uncertainty theta = 0.000418, k = 0.134142
        26        27        28     1      112.801369      922.849971    ;  uncertainty theta = 0.002508, k = 0.102828
        26        27        50     1      126.617455      244.294835    ;  uncertainty theta = 0.003682, k = 0.151304
        26        30        29     1      105.521873      689.300082    ;  uncertainty theta = 0.003740, k = 0.125051
        26        30        31     1      121.842789      372.926740    ;  uncertainty theta = 0.004893, k = 0.200656
        27        26        30     1      103.430092      742.155068    ;  uncertainty theta = 0.005190, k = 0.108760
        27        28        29     1      108.574783      922.564020    ;  uncertainty theta = 0.002937, k = 0.116121
        28        27        50     1      118.543495      289.957533    ;  uncertainty theta = 0.002336, k = 0.058293
        28        29        30     1      109.065674      992.744593    ;  uncertainty theta = 0.003990, k = 0.161434
        28        29        51     1      108.465378      343.985566    ;  uncertainty theta = 0.006748, k = 0.092753
        29        30        31     1      129.650360      395.528773    ;  uncertainty theta = 0.003691, k = 0.176021
        30        29        51     1      116.092773      288.358048    ;  uncertainty theta = 0.006888, k = 0.111410
        30        31        52     1      122.512741      295.371432    ;  uncertainty theta = 0.001496, k = 0.111125
        32        33        54     1      119.762131      289.187653    ;  uncertainty theta = 0.001648, k = 0.068108
        33        32        53     1      120.711098      296.002039    ;  uncertainty theta = 0.002714, k = 0.104629
        34         4        35     1      108.767044      293.777949    ;  uncertainty theta = 0.001285, k = 0.101661
        36         5        37     1      106.234360      322.990742    ;  uncertainty theta = 0.002876, k = 0.085912
        38         7        39     1      106.234360      322.990742    ;  uncertainty theta = 0.002876, k = 0.085912
        40         8        41     1      108.767044      293.777949    ;  uncertainty theta = 0.001285, k = 0.101661

[ dihedrals ] ; propers for gromacs 4.5 or higher, use funct 9
;       ai        aj        ak        al funct           phase               k        pn
         1         2         4         5     9        0.000000       -5.547240         1    ;  uncertainty k = 1.872557
         1         2         4         5     9      180.000000        1.873728         2    ;  uncertainty k = 0.408219
         1         2         4         5     9        0.000000        0.640742         3    ;  uncertainty k = 0.279358
         1         2         4         5     9      180.000000        0.007717         4    ;  uncertainty k = 0.174515
         1         2         4        34     9        0.000000        0.322644         1    ;  uncertainty k = 0.689574
         1         2         4        34     9      180.000000       -0.775066         2    ;  uncertainty k = 0.537168
         1         2         4        34     9        0.000000        0.516280         3    ;  uncertainty k = 0.167039
         1         2         4        34     9      180.000000        0.075892         4    ;  uncertainty k = 0.098769
         1         2         4        35     9        0.000000        0.322644         1    ;  uncertainty k = 0.689574
         1         2         4        35     9      180.000000       -0.775066         2    ;  uncertainty k = 0.537168
         1         2         4        35     9        0.000000        0.516280         3    ;  uncertainty k = 0.167039
         1         2         4        35     9      180.000000        0.075892         4    ;  uncertainty k = 0.098769
         1         2         8         7     9        0.000000       -5.547240         1    ;  uncertainty k = 1.872557
         1         2         8         7     9      180.000000        1.873728         2    ;  uncertainty k = 0.408219
         1         2         8         7     9        0.000000        0.640742         3    ;  uncertainty k = 0.279358
         1         2         8         7     9      180.000000        0.007717         4    ;  uncertainty k = 0.174515
         1         2         8        40     9        0.000000        0.322644         1    ;  uncertainty k = 0.689574
         1         2         8        40     9      180.000000       -0.775066         2    ;  uncertainty k = 0.537168
         1         2         8        40     9        0.000000        0.516280         3    ;  uncertainty k = 0.167039
         1         2         8        40     9      180.000000        0.075892         4    ;  uncertainty k = 0.098769
         1         2         8        41     9        0.000000        0.322644         1    ;  uncertainty k = 0.689574
         1         2         8        41     9      180.000000       -0.775066         2    ;  uncertainty k = 0.537168
         1         2         8        41     9        0.000000        0.516280         3    ;  uncertainty k = 0.167039
         1         2         8        41     9      180.000000        0.075892         4    ;  uncertainty k = 0.098769
         2         4         5         6     9        0.000000        0.695549         1    ;  uncertainty k = 3.706366
         2         4         5         6     9      180.000000       -3.528430         2    ;  uncertainty k = 1.549880
         2         4         5         6     9        0.000000        0.248668         3    ;  uncertainty k = 0.513933
         2         4         5         6     9      180.000000       -0.397073         4    ;  uncertainty k = 0.393157
         2         4         5        36     9        0.000000        1.071467         1    ;  uncertainty k = 0.982699
         2         4         5        36     9      180.000000       -2.521335         2    ;  uncertainty k = 1.107771
         2         4         5        36     9        0.000000       -0.189059         3    ;  uncertainty k = 0.195402
         2         4         5        36     9      180.000000        0.198906         4    ;  uncertainty k = 0.242474
         2         4         5        37     9        0.000000        1.071467         1    ;  uncertainty k = 0.982699
         2         4         5        37     9      180.000000       -2.521335         2    ;  uncertainty k = 1.107771
         2         4         5        37     9        0.000000       -0.189059         3    ;  uncertainty k = 0.195402
         2         4         5        37     9      180.000000        0.198906         4    ;  uncertainty k = 0.242474
         2         8         7         6     9        0.000000        0.695549         1    ;  uncertainty k = 3.706366
         2         8         7         6     9      180.000000       -3.528430         2    ;  uncertainty k = 1.549880
         2         8         7         6     9        0.000000        0.248668         3    ;  uncertainty k = 0.513933
         2         8         7         6     9      180.000000       -0.397073         4    ;  uncertainty k = 0.393157
         2         8         7        38     9        0.000000        1.071467         1    ;  uncertainty k = 0.982699
         2         8         7        38     9      180.000000       -2.521335         2    ;  uncertainty k = 1.107771
         2         8         7        38     9        0.000000       -0.189059         3    ;  uncertainty k = 0.195402
         2         8         7        38     9      180.000000        0.198906         4    ;  uncertainty k = 0.242474
         2         8         7        39     9        0.000000        1.071467         1    ;  uncertainty k = 0.982699
         2         8         7        39     9      180.000000       -2.521335         2    ;  uncertainty k = 1.107771
         2         8         7        39     9        0.000000       -0.189059         3    ;  uncertainty k = 0.195402
         2         8         7        39     9      180.000000        0.198906         4    ;  uncertainty k = 0.242474
         3         2         4         5     9        0.000000       -5.547240         1    ;  uncertainty k = 1.872557
         3         2         4         5     9      180.000000        1.873728         2    ;  uncertainty k = 0.408219
         3         2         4         5     9        0.000000        0.640742         3    ;  uncertainty k = 0.279358
         3         2         4         5     9      180.000000        0.007717         4    ;  uncertainty k = 0.174515
         3         2         4        34     9        0.000000        0.322644         1    ;  uncertainty k = 0.689574
         3         2         4        34     9      180.000000       -0.775066         2    ;  uncertainty k = 0.537168
         3         2         4        34     9        0.000000        0.516280         3    ;  uncertainty k = 0.167039
         3         2         4        34     9      180.000000        0.075892         4    ;  uncertainty k = 0.098769
         3         2         4        35     9        0.000000        0.322644         1    ;  uncertainty k = 0.689574
         3         2         4        35     9      180.000000       -0.775066         2    ;  uncertainty k = 0.537168
         3         2         4        35     9        0.000000        0.516280         3    ;  uncertainty k = 0.167039
         3         2         4        35     9      180.000000        0.075892         4    ;  uncertainty k = 0.098769
         3         2         8         7     9        0.000000       -5.547240         1    ;  uncertainty k = 1.872557
         3         2         8         7     9      180.000000        1.873728         2    ;  uncertainty k = 0.408219
         3         2         8         7     9        0.000000        0.640742         3    ;  uncertainty k = 0.279358
         3         2         8         7     9      180.000000        0.007717         4    ;  uncertainty k = 0.174515
         3         2         8        40     9        0.000000        0.322644         1    ;  uncertainty k = 0.689574
         3         2         8        40     9      180.000000       -0.775066         2    ;  uncertainty k = 0.537168
         3         2         8        40     9        0.000000        0.516280         3    ;  uncertainty k = 0.167039
         3         2         8        40     9      180.000000        0.075892         4    ;  uncertainty k = 0.098769
         3         2         8        41     9        0.000000        0.322644         1    ;  uncertainty k = 0.689574
         3         2         8        41     9      180.000000       -0.775066         2    ;  uncertainty k = 0.537168
         3         2         8        41     9        0.000000        0.516280         3    ;  uncertainty k = 0.167039
         3         2         8        41     9      180.000000        0.075892         4    ;  uncertainty k = 0.098769
         4         2         8         7     9        0.000000       -7.963105         1    ;  uncertainty k = 1.729295
         4         2         8         7     9      180.000000        0.426800         2    ;  uncertainty k = 0.879740
         4         2         8         7     9        0.000000       -0.229599         3    ;  uncertainty k = 0.271038
         4         2         8         7     9      180.000000       -0.189288         4    ;  uncertainty k = 0.248816
         4         2         8        40     9        0.000000       -0.383089         1    ;  uncertainty k = 0.712277
         4         2         8        40     9      180.000000       -3.256356         2    ;  uncertainty k = 0.575021
         4         2         8        40     9        0.000000       -0.519611         3    ;  uncertainty k = 0.147092
         4         2         8        40     9      180.000000       -0.212795         4    ;  uncertainty k = 0.180907
         4         2         8        41     9        0.000000       -0.383089         1    ;  uncertainty k = 0.712277
         4         2         8        41     9      180.000000       -3.256356         2    ;  uncertainty k = 0.575021
         4         2         8        41     9        0.000000       -0.519611         3    ;  uncertainty k = 0.147092
         4         2         8        41     9      180.000000       -0.212795         4    ;  uncertainty k = 0.180907
         4         5         6         7     9        0.000000       -3.886838         1    ;  uncertainty k = 3.291095
         4         5         6         7     9      180.000000       -1.464188         2    ;  uncertainty k = 0.651704
         4         5         6         7     9        0.000000        0.666732         3    ;  uncertainty k = 0.380343
         4         5         6         7     9      180.000000       -0.200849         4    ;  uncertainty k = 0.082660
         4         5         6         9     9        0.000000       -2.115870         1    ;  uncertainty k = 1.220769
         4         5         6         9     9      180.000000       -0.583074         2    ;  uncertainty k = 0.285646
         4         5         6         9     9        0.000000        0.317380         3    ;  uncertainty k = 0.064267
         4         5         6         9     9      180.000000        0.284008         4    ;  uncertainty k = 0.132299
         5         4         2         8     9        0.000000       -7.963105         1    ;  uncertainty k = 1.729295
         5         4         2         8     9      180.000000        0.426800         2    ;  uncertainty k = 0.879740
         5         4         2         8     9        0.000000       -0.229599         3    ;  uncertainty k = 0.271038
         5         4         2         8     9      180.000000       -0.189288         4    ;  uncertainty k = 0.248816
         5         6         7         8     9        0.000000       -3.886838         1    ;  uncertainty k = 3.291095
         5         6         7         8     9      180.000000       -1.464188         2    ;  uncertainty k = 0.651704
         5         6         7         8     9        0.000000        0.666732         3    ;  uncertainty k = 0.380343
         5         6         7         8     9      180.000000       -0.200849         4    ;  uncertainty k = 0.082660
         5         6         7        38     9        0.000000       -6.352252         1    ;  uncertainty k = 0.980931
         5         6         7        38     9      180.000000        0.233013         2    ;  uncertainty k = 0.268545
         5         6         7        38     9        0.000000        0.674950         3    ;  uncertainty k = 0.112158
         5         6         7        38     9      180.000000       -0.156341         4    ;  uncertainty k = 0.108358
         5         6         7        39     9        0.000000       -6.352252         1    ;  uncertainty k = 0.980931
         5         6         7        39     9      180.000000        0.233013         2    ;  uncertainty k = 0.268545
         5         6         7        39     9        0.000000        0.674950         3    ;  uncertainty k = 0.112158
         5         6         7        39     9      180.000000       -0.156341         4    ;  uncertainty k = 0.108358
         5         6         9        10     9        0.000000        1.326114         1    ;  uncertainty k = 0.598647
         5         6         9        10     9      180.000000        6.056617         2    ;  uncertainty k = 0.154060
         5         6         9        10     9        0.000000        0.528071         3    ;  uncertainty k = 0.198040
         5         6         9        10     9      180.000000        0.269887         4    ;  uncertainty k = 0.091412
         5         6         9        33     9        0.000000        1.326115         1    ;  uncertainty k = 0.598647
         5         6         9        33     9      180.000000        6.056617         2    ;  uncertainty k = 0.154060
         5         6         9        33     9        0.000000        0.528071         3    ;  uncertainty k = 0.198040
         5         6         9        33     9      180.000000        0.269887         4    ;  uncertainty k = 0.091412
         6         5         4        34     9        0.000000       -0.436361         1    ;  uncertainty k = 0.653523
         6         5         4        34     9      180.000000       -0.936682         2    ;  uncertainty k = 0.355972
         6         5         4        34     9        0.000000        0.700547         3    ;  uncertainty k = 0.271837
         6         5         4        34     9      180.000000       -0.057974         4    ;  uncertainty k = 0.141556
         6         5         4        35     9        0.000000       -0.436361         1    ;  uncertainty k = 0.653523
         6         5         4        35     9      180.000000       -0.936682         2    ;  uncertainty k = 0.355972
         6         5         4        35     9        0.000000        0.700547         3    ;  uncertainty k = 0.271837
         6         5         4        35     9      180.000000       -0.057974         4    ;  uncertainty k = 0.141556
         6         7         8        40     9        0.000000       -0.436361         1    ;  uncertainty k = 0.653523
         6         7         8        40     9      180.000000       -0.936682         2    ;  uncertainty k = 0.355972
         6         7         8        40     9        0.000000        0.700547         3    ;  uncertainty k = 0.271837
         6         7         8        40     9      180.000000       -0.057974         4    ;  uncertainty k = 0.141556
         6         7         8        41     9        0.000000       -0.436361         1    ;  uncertainty k = 0.653523
         6         7         8        41     9      180.000000       -0.936682         2    ;  uncertainty k = 0.355972
         6         7         8        41     9        0.000000        0.700547         3    ;  uncertainty k = 0.271837
         6         7         8        41     9      180.000000       -0.057974         4    ;  uncertainty k = 0.141556
         6         9        10        11     9        0.000000        0.343509         1    ;  uncertainty k = 0.381332
         6         9        10        11     9      180.000000        8.884482         2    ;  uncertainty k = 0.386182
         6         9        10        11     9        0.000000        1.082450         3    ;  uncertainty k = 0.316912
         6         9        10        11     9      180.000000        1.646784         4    ;  uncertainty k = 0.221473
         6         9        10        42     9        0.000000       -0.205566         1    ;  uncertainty k = 0.605177
         6         9        10        42     9      180.000000        7.356261         2    ;  uncertainty k = 0.494910
         6         9        10        42     9        0.000000        0.769399         3    ;  uncertainty k = 0.111599
         6         9        10        42     9      180.000000        1.198989         4    ;  uncertainty k = 0.187278
         6         9        33        32     9        0.000000        0.343510         1    ;  uncertainty k = 0.381332
         6         9        33        32     9      180.000000        8.884482         2    ;  uncertainty k = 0.386182
         6         9        33        32     9        0.000000        1.082450         3    ;  uncertainty k = 0.316913
         6         9        33        32     9      180.000000        1.646784         4    ;  uncertainty k = 0.221474
         6         9        33        54     9        0.000000       -0.205565         1    ;  uncertainty k = 0.605176
         6         9        33        54     9      180.000000        7.356261         2    ;  uncertainty k = 0.494911
         6         9        33        54     9        0.000000        0.769399         3    ;  uncertainty k = 0.111599
         6         9        33        54     9      180.000000        1.198989         4    ;  uncertainty k = 0.187278
         7         6         5        36     9        0.000000       -6.352252         1    ;  uncertainty k = 0.980931
         7         6         5        36     9      180.000000        0.233013         2    ;  uncertainty k = 0.268545
         7         6         5        36     9        0.000000        0.674950         3    ;  uncertainty k = 0.112158
         7         6         5        36     9      180.000000       -0.156341         4    ;  uncertainty k = 0.108358
         7         6         5        37     9        0.000000       -6.352252         1    ;  uncertainty k = 0.980931
         7         6         5        37     9      180.000000        0.233013         2    ;  uncertainty k = 0.268545
         7         6         5        37     9        0.000000        0.674950         3    ;  uncertainty k = 0.112158
         7         6         5        37     9      180.000000       -0.156341         4    ;  uncertainty k = 0.108358
         7         6         9        10     9        0.000000        1.326114         1    ;  uncertainty k = 0.598647
         7         6         9        10     9      180.000000        6.056617         2    ;  uncertainty k = 0.154060
         7         6         9        10     9        0.000000        0.528071         3    ;  uncertainty k = 0.198040
         7         6         9        10     9      180.000000        0.269887         4    ;  uncertainty k = 0.091412
         7         6         9        33     9        0.000000        1.326115         1    ;  uncertainty k = 0.598647
         7         6         9        33     9      180.000000        6.056617         2    ;  uncertainty k = 0.154060
         7         6         9        33     9        0.000000        0.528071         3    ;  uncertainty k = 0.198040
         7         6         9        33     9      180.000000        0.269887         4    ;  uncertainty k = 0.091412
         8         2         4        34     9        0.000000       -0.383089         1    ;  uncertainty k = 0.712277
         8         2         4        34     9      180.000000       -3.256356         2    ;  uncertainty k = 0.575021
         8         2         4        34     9        0.000000       -0.519611         3    ;  uncertainty k = 0.147092
         8         2         4        34     9      180.000000       -0.212795         4    ;  uncertainty k = 0.180907
         8         2         4        35     9        0.000000       -0.383089         1    ;  uncertainty k = 0.712277
         8         2         4        35     9      180.000000       -3.256356         2    ;  uncertainty k = 0.575021
         8         2         4        35     9        0.000000       -0.519611         3    ;  uncertainty k = 0.147092
         8         2         4        35     9      180.000000       -0.212795         4    ;  uncertainty k = 0.180907
         8         7         6         9     9        0.000000       -2.115870         1    ;  uncertainty k = 1.220769
         8         7         6         9     9      180.000000       -0.583074         2    ;  uncertainty k = 0.285646
         8         7         6         9     9        0.000000        0.317380         3    ;  uncertainty k = 0.064267
         8         7         6         9     9      180.000000        0.284008         4    ;  uncertainty k = 0.132299
         9         6         5        36     9        0.000000        0.530009         1    ;  uncertainty k = 0.757534
         9         6         5        36     9      180.000000       -1.087760         2    ;  uncertainty k = 0.151438
         9         6         5        36     9        0.000000        0.570308         3    ;  uncertainty k = 0.093942
         9         6         5        36     9      180.000000        0.159567         4    ;  uncertainty k = 0.131563
         9         6         5        37     9        0.000000        0.530009         1    ;  uncertainty k = 0.757534
         9         6         5        37     9      180.000000       -1.087760         2    ;  uncertainty k = 0.151438
         9         6         5        37     9        0.000000        0.570308         3    ;  uncertainty k = 0.093942
         9         6         5        37     9      180.000000        0.159567         4    ;  uncertainty k = 0.131563
         9         6         7        38     9        0.000000        0.530009         1    ;  uncertainty k = 0.757534
         9         6         7        38     9      180.000000       -1.087760         2    ;  uncertainty k = 0.151438
         9         6         7        38     9        0.000000        0.570308         3    ;  uncertainty k = 0.093942
         9         6         7        38     9      180.000000        0.159567         4    ;  uncertainty k = 0.131563
         9         6         7        39     9        0.000000        0.530009         1    ;  uncertainty k = 0.757534
         9         6         7        39     9      180.000000       -1.087760         2    ;  uncertainty k = 0.151438
         9         6         7        39     9        0.000000        0.570308         3    ;  uncertainty k = 0.093942
         9         6         7        39     9      180.000000        0.159567         4    ;  uncertainty k = 0.131563
         9        10        11        12     9        0.000000       -0.084373         1    ;  uncertainty k = 0.209669
         9        10        11        12     9      180.000000       13.789932         2    ;  uncertainty k = 0.416498
         9        10        11        12     9        0.000000       -0.854545         3    ;  uncertainty k = 0.480405
         9        10        11        12     9      180.000000        0.772644         4    ;  uncertainty k = 0.319329
         9        10        11        43     9        0.000000        0.023766         1    ;  uncertainty k = 0.343276
         9        10        11        43     9      180.000000        8.745367         2    ;  uncertainty k = 0.258500
         9        10        11        43     9        0.000000        1.143976         3    ;  uncertainty k = 0.405744
         9        10        11        43     9      180.000000        1.742543         4    ;  uncertainty k = 0.159042
         9        33        32        12     9        0.000000       -0.084372         1    ;  uncertainty k = 0.209670
         9        33        32        12     9      180.000000       13.789929         2    ;  uncertainty k = 0.416498
         9        33        32        12     9        0.000000       -0.854545         3    ;  uncertainty k = 0.480404
         9        33        32        12     9      180.000000        0.772644         4    ;  uncertainty k = 0.319328
         9        33        32        53     9        0.000000        0.023764         1    ;  uncertainty k = 0.343277
         9        33        32        53     9      180.000000        8.745367         2    ;  uncertainty k = 0.258501
         9        33        32        53     9        0.000000        1.143977         3    ;  uncertainty k = 0.405744
         9        33        32        53     9      180.000000        1.742543         4    ;  uncertainty k = 0.159041
        10         9        33        32     9        0.000000        0.000858         1    ;  uncertainty k = 0.285969
        10         9        33        32     9      180.000000        8.454637         2    ;  uncertainty k = 0.550179
        10         9        33        32     9        0.000000        0.032837         3    ;  uncertainty k = 0.320203
        10         9        33        32     9      180.000000        1.331973         4    ;  uncertainty k = 0.272413
        10         9        33        54     9        0.000000        0.095057         1    ;  uncertainty k = 0.373038
        10         9        33        54     9      180.000000        6.040979         2    ;  uncertainty k = 0.714745
        10         9        33        54     9        0.000000        1.355530         3    ;  uncertainty k = 0.222428
        10         9        33        54     9      180.000000        1.537884         4    ;  uncertainty k = 0.130835
        10        11        12        13     9        0.000000        0.017099         1    ;  uncertainty k = 0.527339
        10        11        12        13     9      180.000000        9.348870         2    ;  uncertainty k = 0.242918
        10        11        12        13     9        0.000000        0.889096         3    ;  uncertainty k = 0.293617
        10        11        12        13     9      180.000000        1.533610         4    ;  uncertainty k = 0.164757
        10        11        12        32     9        0.000000        0.047148         1    ;  uncertainty k = 0.212409
        10        11        12        32     9      180.000000        9.040343         2    ;  uncertainty k = 0.293470
        10        11        12        32     9        0.000000       -0.068001         3    ;  uncertainty k = 0.183409
        10        11        12        32     9      180.000000        1.187446         4    ;  uncertainty k = 0.264202
        11        10         9        33     9        0.000000        0.000857         1    ;  uncertainty k = 0.285968
        11        10         9        33     9      180.000000        8.454637         2    ;  uncertainty k = 0.550179
        11        10         9        33     9        0.000000        0.032837         3    ;  uncertainty k = 0.320203
        11        10         9        33     9      180.000000        1.331972         4    ;  uncertainty k = 0.272413
        11        12        13        14     9        0.000000        1.762887         1    ;  uncertainty k = 0.727898
        11        12        13        14     9      180.000000        5.669042         2    ;  uncertainty k = 0.132780
        11        12        13        14     9        0.000000        0.941087         3    ;  uncertainty k = 0.205851
        11        12        13        14     9      180.000000        0.176432         4    ;  uncertainty k = 0.110020
        11        12        13        44     9        0.000000        2.597791         1    ;  uncertainty k = 0.388175
        11        12        13        44     9      180.000000        4.354503         2    ;  uncertainty k = 0.269021
        11        12        13        44     9        0.000000        0.668938         3    ;  uncertainty k = 0.165670
        11        12        13        44     9      180.000000        0.424981         4    ;  uncertainty k = 0.063204
        11        12        32        33     9        0.000000        0.047148         1    ;  uncertainty k = 0.212408
        11        12        32        33     9      180.000000        9.040342         2    ;  uncertainty k = 0.293470
        11        12        32        33     9        0.000000       -0.068001         3    ;  uncertainty k = 0.183409
        11        12        32        33     9      180.000000        1.187447         4    ;  uncertainty k = 0.264203
        11        12        32        53     9        0.000000        0.025169         1    ;  uncertainty k = 0.206550
        11        12        32        53     9      180.000000        6.326001         2    ;  uncertainty k = 0.744310
        11        12        32        53     9        0.000000        1.221454         3    ;  uncertainty k = 0.286691
        11        12        32        53     9      180.000000        1.446916         4    ;  uncertainty k = 0.179934
        12        11        10        42     9        0.000000       -0.115032         1    ;  uncertainty k = 0.213903
        12        11        10        42     9      180.000000        8.677754         2    ;  uncertainty k = 0.342401
        12        11        10        42     9        0.000000        1.262117         3    ;  uncertainty k = 0.290506
        12        11        10        42     9      180.000000        1.625814         4    ;  uncertainty k = 0.124384
        12        13        14        15     9        0.000000        4.150973         1    ;  uncertainty k = 1.231968
        12        13        14        15     9      180.000000       10.578377         2    ;  uncertainty k = 0.237301
        12        13        14        15     9        0.000000        0.691470         3    ;  uncertainty k = 0.297800
        12        13        14        15     9      180.000000       -0.481680         4    ;  uncertainty k = 0.051060
        12        13        14        22     9        0.000000        6.977052         1    ;  uncertainty k = 0.530158
        12        13        14        22     9      180.000000        8.516576         2    ;  uncertainty k = 0.116630
        12        13        14        22     9        0.000000        0.930574         3    ;  uncertainty k = 0.399994
        12        13        14        22     9      180.000000       -0.130894         4    ;  uncertainty k = 0.198979
        12        32        33        54     9        0.000000       -0.115033         1    ;  uncertainty k = 0.213904
        12        32        33        54     9      180.000000        8.677754         2    ;  uncertainty k = 0.342400
        12        32        33        54     9        0.000000        1.262117         3    ;  uncertainty k = 0.290507
        12        32        33        54     9      180.000000        1.625814         4    ;  uncertainty k = 0.124384
        13        12        11        43     9        0.000000       -0.295135         1    ;  uncertainty k = 0.251138
        13        12        11        43     9      180.000000        7.870887         2    ;  uncertainty k = 0.259819
        13        12        11        43     9        0.000000        0.866605         3    ;  uncertainty k = 0.209667
        13        12        11        43     9      180.000000        1.066669         4    ;  uncertainty k = 0.168322
        13        12        32        33     9        0.000000        0.017099         1    ;  uncertainty k = 0.527339
        13        12        32        33     9      180.000000        9.348869         2    ;  uncertainty k = 0.242919
        13        12        32        33     9        0.000000        0.889096         3    ;  uncertainty k = 0.293617
        13        12        32        33     9      180.000000        1.533610         4    ;  uncertainty k = 0.164757
        13        12        32        53     9        0.000000       -0.295134         1    ;  uncertainty k = 0.251135
        13        12        32        53     9      180.000000        7.870887         2    ;  uncertainty k = 0.259819
        13        12        32        53     9        0.000000        0.866605         3    ;  uncertainty k = 0.209667
        13        12        32        53     9      180.000000        1.066668         4    ;  uncertainty k = 0.168322
        13        14        15        16     9        0.000000        1.094677         1    ;  uncertainty k = 1.061918
        13        14        15        16     9      180.000000       18.029313         2    ;  uncertainty k = 0.463163
        13        14        15        16     9        0.000000        2.921584         3    ;  uncertainty k = 0.300070
        13        14        15        16     9      180.000000        1.660946         4    ;  uncertainty k = 0.300808
        13        14        22        18     9        0.000000       -0.935144         1    ;  uncertainty k = 0.961490
        13        14        22        18     9      180.000000        5.420647         2    ;  uncertainty k = 0.735007
        13        14        22        18     9        0.000000        0.466482         3    ;  uncertainty k = 0.276418
        13        14        22        18     9      180.000000        0.426563         4    ;  uncertainty k = 0.145930
        13        14        22        21     9        0.000000       -0.723521         1    ;  uncertainty k = 0.720899
        13        14        22        21     9      180.000000        4.573870         2    ;  uncertainty k = 1.073141
        13        14        22        21     9        0.000000        0.567897         3    ;  uncertainty k = 0.420061
        13        14        22        21     9      180.000000        0.320348         4    ;  uncertainty k = 0.222145
        14        13        12        32     9        0.000000        1.762886         1    ;  uncertainty k = 0.727897
        14        13        12        32     9      180.000000        5.669043         2    ;  uncertainty k = 0.132780
        14        13        12        32     9        0.000000        0.941087         3    ;  uncertainty k = 0.205851
        14        13        12        32     9      180.000000        0.176432         4    ;  uncertainty k = 0.110020
        14        15        16        17     9        0.000000        1.017504         1    ;  uncertainty k = 1.516360
        14        15        16        17     9      180.000000        5.410036         2    ;  uncertainty k = 1.406424
        14        15        16        17     9        0.000000        1.183504         3    ;  uncertainty k = 0.850444
        14        15        16        17     9      180.000000        0.501686         4    ;  uncertainty k = 0.531969
        14        15        16        23     9        0.000000        1.001242         1    ;  uncertainty k = 1.290635
        14        15        16        23     9      180.000000        8.728254         2    ;  uncertainty k = 0.911473
        14        15        16        23     9        0.000000        1.568762         3    ;  uncertainty k = 0.631592
        14        15        16        23     9      180.000000        0.401595         4    ;  uncertainty k = 0.332617
        14        22        18        17     9        0.000000       -0.065679         1    ;  uncertainty k = 0.930309
        14        22        18        17     9      180.000000        5.131901         2    ;  uncertainty k = 1.526753
        14        22        18        17     9        0.000000        1.363593         3    ;  uncertainty k = 0.467515
        14        22        18        17     9      180.000000        0.395973         4    ;  uncertainty k = 0.312049
        14        22        18        19     9        0.000000        0.340421         1    ;  uncertainty k = 0.792595
        14        22        18        19     9      180.000000        6.024515         2    ;  uncertainty k = 0.492566
        14        22        18        19     9        0.000000        0.209998         3    ;  uncertainty k = 0.527723
        14        22        18        19     9      180.000000        0.585310         4    ;  uncertainty k = 0.374830
        14        22        21        20     9        0.000000       -0.258736         1    ;  uncertainty k = 0.813751
        14        22        21        20     9      180.000000       16.417004         2    ;  uncertainty k = 0.455553
        14        22        21        20     9        0.000000        0.694004         3    ;  uncertainty k = 0.637623
        14        22        21        20     9      180.000000        1.345365         4    ;  uncertainty k = 0.597909
        15        14        13        44     9        0.000000        8.943455         1    ;  uncertainty k = 0.591279
        15        14        13        44     9      180.000000        9.687470         2    ;  uncertainty k = 0.280063
        15        14        13        44     9        0.000000        1.090516         3    ;  uncertainty k = 0.309512
        15        14        13        44     9      180.000000       -0.065768         4    ;  uncertainty k = 0.148564
        15        14        22        18     9        0.000000       -0.508120         1    ;  uncertainty k = 0.649583
        15        14        22        18     9      180.000000        6.006908         2    ;  uncertainty k = 0.721136
        15        14        22        18     9        0.000000       -0.359701         3    ;  uncertainty k = 0.319120
        15        14        22        18     9      180.000000        0.564109         4    ;  uncertainty k = 0.160688
        15        14        22        21     9        0.000000       -1.431194         1    ;  uncertainty k = 2.218090
        15        14        22        21     9      180.000000        4.468096         2    ;  uncertainty k = 0.589322
        15        14        22        21     9        0.000000        0.454907         3    ;  uncertainty k = 0.408290
        15        14        22        21     9      180.000000        0.386347         4    ;  uncertainty k = 0.295938
        15        16        17        18     9        0.000000        0.021628         1    ;  uncertainty k = 0.553837
        15        16        17        18     9      180.000000       21.308096         2    ;  uncertainty k = 0.618902
        15        16        17        18     9        0.000000        0.542129         3    ;  uncertainty k = 0.330363
        15        16        17        18     9      180.000000        0.532400         4    ;  uncertainty k = 0.522570
        15        16        17        45     9        0.000000        0.413530         1    ;  uncertainty k = 1.053393
        15        16        17        45     9      180.000000       12.778725         2    ;  uncertainty k = 0.373644
        15        16        17        45     9        0.000000        1.633797         3    ;  uncertainty k = 0.611850
        15        16        17        45     9      180.000000        1.088488         4    ;  uncertainty k = 0.439227
        15        16        23        24     9        0.000000       -0.628626         1    ;  uncertainty k = 1.518760
        15        16        23        24     9      180.000000        5.052242         2    ;  uncertainty k = 0.325806
        15        16        23        24     9        0.000000        0.583181         3    ;  uncertainty k = 0.127910
        15        16        23        24     9      180.000000        0.120920         4    ;  uncertainty k = 0.102121
        15        16        23        31     9        0.000000       -0.766604         1    ;  uncertainty k = 0.919108
        15        16        23        31     9      180.000000        4.899228         2    ;  uncertainty k = 0.217939
        15        16        23        31     9        0.000000        0.251595         3    ;  uncertainty k = 0.135564
        15        16        23        31     9      180.000000        0.082027         4    ;  uncertainty k = 0.123430
        16        15        14        22     9        0.000000       -0.097990         1    ;  uncertainty k = 2.188335
        16        15        14        22     9      180.000000       13.736996         2    ;  uncertainty k = 0.596844
        16        15        14        22     9        0.000000        2.511290         3    ;  uncertainty k = 0.854062
        16        15        14        22     9      180.000000        1.344029         4    ;  uncertainty k = 0.393277
        16        17        18        19     9        0.000000        0.387181         1    ;  uncertainty k = 1.514247
        16        17        18        19     9      180.000000        4.670308         2    ;  uncertainty k = 0.661014
        16        17        18        19     9        0.000000        0.721864         3    ;  uncertainty k = 0.341868
        16        17        18        19     9      180.000000        0.327281         4    ;  uncertainty k = 0.086812
        16        17        18        22     9        0.000000       -0.099694         1    ;  uncertainty k = 1.661026
        16        17        18        22     9      180.000000        6.351588         2    ;  uncertainty k = 0.533147
        16        17        18        22     9        0.000000       -0.869395         3    ;  uncertainty k = 0.839908
        16        17        18        22     9      180.000000        0.595359         4    ;  uncertainty k = 0.141779
        16        23        24        25     9        0.000000        0.068897         1    ;  uncertainty k = 0.215292
        16        23        24        25     9      180.000000        7.691152         2    ;  uncertainty k = 0.666200
        16        23        24        25     9        0.000000        1.290426         3    ;  uncertainty k = 0.312196
        16        23        24        25     9      180.000000        1.752418         4    ;  uncertainty k = 0.200484
        16        23        24        48     9        0.000000       -0.141044         1    ;  uncertainty k = 0.221408
        16        23        24        48     9      180.000000        6.709611         2    ;  uncertainty k = 0.380861
        16        23        24        48     9        0.000000        0.642981         3    ;  uncertainty k = 0.210089
        16        23        24        48     9      180.000000        1.030651         4    ;  uncertainty k = 0.217591
        16        23        31        30     9        0.000000        0.000207         1    ;  uncertainty k = 0.464893
        16        23        31        30     9      180.000000       11.593241         2    ;  uncertainty k = 0.463797
        16        23        31        30     9        0.000000        1.506096         3    ;  uncertainty k = 0.271513
        16        23        31        30     9      180.000000        1.554865         4    ;  uncertainty k = 0.288141
        16        23        31        52     9        0.000000       -0.122720         1    ;  uncertainty k = 0.281943
        16        23        31        52     9      180.000000        7.836517         2    ;  uncertainty k = 0.236328
        16        23        31        52     9        0.000000        0.688202         3    ;  uncertainty k = 0.200003
        16        23        31        52     9      180.000000        1.091534         4    ;  uncertainty k = 0.143245
        17        16        23        24     9        0.000000       -0.057218         1    ;  uncertainty k = 0.349503
        17        16        23        24     9      180.000000        3.916624         2    ;  uncertainty k = 0.545493
        17        16        23        24     9        0.000000        0.619050         3    ;  uncertainty k = 0.176087
        17        16        23        24     9      180.000000       -0.314910         4    ;  uncertainty k = 0.160497
        17        16        23        31     9        0.000000        0.027964         1    ;  uncertainty k = 0.248734
        17        16        23        31     9      180.000000        3.790324         2    ;  uncertainty k = 0.442273
        17        16        23        31     9        0.000000        0.910899         3    ;  uncertainty k = 0.183968
        17        16        23        31     9      180.000000       -0.341866         4    ;  uncertainty k = 0.189715
        17        18        19        20     9        0.000000        0.238879         1    ;  uncertainty k = 1.268059
        17        18        19        20     9      180.000000        9.618342         2    ;  uncertainty k = 0.775422
        17        18        19        20     9        0.000000        0.407411         3    ;  uncertainty k = 0.759266
        17        18        19        20     9      180.000000        0.559103         4    ;  uncertainty k = 0.314044
        17        18        19        46     9        0.000000        0.591128         1    ;  uncertainty k = 1.266310
        17        18        19        46     9      180.000000        2.793743         2    ;  uncertainty k = 1.401654
        17        18        19        46     9        0.000000        1.235888         3    ;  uncertainty k = 0.395832
        17        18        19        46     9      180.000000        0.135474         4    ;  uncertainty k = 0.120547
        17        18        22        21     9        0.000000        0.318033         1    ;  uncertainty k = 0.549936
        17        18        22        21     9      180.000000        8.739854         2    ;  uncertainty k = 0.549403
        17        18        22        21     9        0.000000        0.448820         3    ;  uncertainty k = 0.411752
        17        18        22        21     9      180.000000        0.878822         4    ;  uncertainty k = 0.217911
        18        17        16        23     9        0.000000        0.576730         1    ;  uncertainty k = 0.305749
        18        17        16        23     9      180.000000       17.337469         2    ;  uncertainty k = 0.521845
        18        17        16        23     9        0.000000        1.919282         3    ;  uncertainty k = 0.425533
        18        17        16        23     9      180.000000        0.788516         4    ;  uncertainty k = 0.297652
        18        19        20        21     9        0.000000       -0.424259         1    ;  uncertainty k = 0.720471
        18        19        20        21     9      180.000000       21.948844         2    ;  uncertainty k = 0.272817
        18        19        20        21     9        0.000000       -9.453916         3    ;  uncertainty k = 0.408148
        18        19        20        21     9      180.000000        1.578950         4    ;  uncertainty k = 0.654473
        18        19        20        47     9        0.000000        0.427383         1    ;  uncertainty k = 0.828520
        18        19        20        47     9      180.000000       13.870596         2    ;  uncertainty k = 0.182398
        18        19        20        47     9        0.000000        1.815389         3    ;  uncertainty k = 0.320274
        18        19        20        47     9      180.000000        0.903574         4    ;  uncertainty k = 0.223947
        18        22        21        20     9        0.000000       -0.698106         1    ;  uncertainty k = 0.543243
        18        22        21        20     9      180.000000       23.970051         2    ;  uncertainty k = 0.495895
        18        22        21        20     9        0.000000      -11.206153         3    ;  uncertainty k = 1.161985
        18        22        21        20     9      180.000000        1.981051         4    ;  uncertainty k = 0.603215
        19        18        17        45     9        0.000000        1.230264         1    ;  uncertainty k = 1.227408
        19        18        17        45     9      180.000000        2.935755         2    ;  uncertainty k = 1.100422
        19        18        17        45     9        0.000000        1.028872         3    ;  uncertainty k = 0.513157
        19        18        17        45     9      180.000000        0.182735         4    ;  uncertainty k = 0.171564
        19        18        22        21     9        0.000000       -0.600194         1    ;  uncertainty k = 0.427509
        19        18        22        21     9      180.000000       12.032075         2    ;  uncertainty k = 0.540572
        19        18        22        21     9        0.000000       -4.884606         3    ;  uncertainty k = 1.243656
        19        18        22        21     9      180.000000        1.176890         4    ;  uncertainty k = 0.463084
        19        20        21        22     9        0.000000       -0.719371         1    ;  uncertainty k = 0.806440
        19        20        21        22     9      180.000000       16.306391         2    ;  uncertainty k = 0.372137
        19        20        21        22     9        0.000000       -5.546726         3    ;  uncertainty k = 0.784851
        19        20        21        22     9      180.000000        2.138755         4    ;  uncertainty k = 0.319469
        20        19        18        22     9        0.000000        0.425340         1    ;  uncertainty k = 0.911889
        20        19        18        22     9      180.000000       13.121731         2    ;  uncertainty k = 1.266973
        20        19        18        22     9        0.000000      -13.119121         3    ;  uncertainty k = 1.817832
        20        19        18        22     9      180.000000        1.693366         4    ;  uncertainty k = 0.377703
        21        20        19        46     9        0.000000       -0.210816         1    ;  uncertainty k = 0.409318
        21        20        19        46     9      180.000000       14.525460         2    ;  uncertainty k = 0.474526
        21        20        19        46     9        0.000000        1.399987         3    ;  uncertainty k = 0.472591
        21        20        19        46     9      180.000000        0.597840         4    ;  uncertainty k = 0.116226
        22        14        13        44     9        0.000000        5.300787         1    ;  uncertainty k = 1.095312
        22        14        13        44     9      180.000000        6.151860         2    ;  uncertainty k = 0.321337
        22        14        13        44     9        0.000000        1.372350         3    ;  uncertainty k = 0.427877
        22        14        13        44     9      180.000000       -0.022341         4    ;  uncertainty k = 0.217792
        22        18        17        45     9        0.000000        1.226557         1    ;  uncertainty k = 1.441980
        22        18        17        45     9      180.000000        4.293775         2    ;  uncertainty k = 0.542296
        22        18        17        45     9        0.000000        1.116225         3    ;  uncertainty k = 0.349206
        22        18        17        45     9      180.000000        0.197252         4    ;  uncertainty k = 0.128616
        22        18        19        46     9        0.000000        0.337817         1    ;  uncertainty k = 0.998519
        22        18        19        46     9      180.000000        7.392009         2    ;  uncertainty k = 0.385665
        22        18        19        46     9        0.000000        1.061986         3    ;  uncertainty k = 0.365240
        22        18        19        46     9      180.000000        0.171584         4    ;  uncertainty k = 0.281011
        22        21        20        47     9        0.000000       -0.095582         1    ;  uncertainty k = 0.393923
        22        21        20        47     9      180.000000       14.177386         2    ;  uncertainty k = 0.352374
        22        21        20        47     9        0.000000        1.588169         3    ;  uncertainty k = 0.688228
        22        21        20        47     9      180.000000        0.904862         4    ;  uncertainty k = 0.448977
        23        16        17        45     9        0.000000       -0.219214         1    ;  uncertainty k = 0.332985
        23        16        17        45     9      180.000000        9.215237         2    ;  uncertainty k = 0.441043
        23        16        17        45     9        0.000000        1.515665         3    ;  uncertainty k = 0.270368
        23        16        17        45     9      180.000000        0.995306         4    ;  uncertainty k = 0.143311
        23        24        25        26     9        0.000000        0.036572         1    ;  uncertainty k = 0.331158
        23        24        25        26     9      180.000000       16.840932         2    ;  uncertainty k = 0.256778
        23        24        25        26     9        0.000000       -0.285123         3    ;  uncertainty k = 0.467322
        23        24        25        26     9      180.000000        0.632981         4    ;  uncertainty k = 0.299892
        23        24        25        49     9        0.000000       -0.036442         1    ;  uncertainty k = 0.215492
        23        24        25        49     9      180.000000        8.973969         2    ;  uncertainty k = 0.439173
        23        24        25        49     9        0.000000        1.439949         3    ;  uncertainty k = 0.248957
        23        24        25        49     9      180.000000        1.896736         4    ;  uncertainty k = 0.257135
        23        31        30        26     9        0.000000       -0.198172         1    ;  uncertainty k = 0.398265
        23        31        30        26     9      180.000000       12.419193         2    ;  uncertainty k = 0.132303
        23        31        30        26     9        0.000000       -1.380873         3    ;  uncertainty k = 0.530178
        23        31        30        26     9      180.000000        0.756409         4    ;  uncertainty k = 0.234868
        23        31        30        29     9        0.000000        0.161251         1    ;  uncertainty k = 0.187507
        23        31        30        29     9      180.000000       10.407056         2    ;  uncertainty k = 0.716704
        23        31        30        29     9        0.000000        0.894492         3    ;  uncertainty k = 0.361046
        23        31        30        29     9      180.000000        1.248653         4    ;  uncertainty k = 0.351138
        24        23        31        30     9        0.000000        0.050053         1    ;  uncertainty k = 0.216230
        24        23        31        30     9      180.000000       13.680778         2    ;  uncertainty k = 0.248895
        24        23        31        30     9        0.000000        0.002234         3    ;  uncertainty k = 0.286610
        24        23        31        30     9      180.000000        0.895120         4    ;  uncertainty k = 0.337935
        24        23        31        52     9        0.000000        0.247218         1    ;  uncertainty k = 0.158863
        24        23        31        52     9      180.000000        7.919297         2    ;  uncertainty k = 0.573084
        24        23        31        52     9        0.000000        1.544085         3    ;  uncertainty k = 0.138737
        24        23        31        52     9      180.000000        1.705629         4    ;  uncertainty k = 0.254640
        24        25        26        27     9        0.000000        0.312960         1    ;  uncertainty k = 0.413870
        24        25        26        27     9      180.000000        8.161813         2    ;  uncertainty k = 0.408100
        24        25        26        27     9        0.000000        0.680187         3    ;  uncertainty k = 0.316207
        24        25        26        27     9      180.000000        1.318401         4    ;  uncertainty k = 0.118210
        24        25        26        30     9        0.000000        0.024027         1    ;  uncertainty k = 0.234713
        24        25        26        30     9      180.000000       13.393022         2    ;  uncertainty k = 0.123364
        24        25        26        30     9        0.000000       -1.965306         3    ;  uncertainty k = 0.693199
        24        25        26        30     9      180.000000        0.688655         4    ;  uncertainty k = 0.252291
        25        24        23        31     9        0.000000       -0.064850         1    ;  uncertainty k = 0.238097
        25        24        23        31     9      180.000000        8.627471         2    ;  uncertainty k = 0.426027
        25        24        23        31     9        0.000000       -0.116894         3    ;  uncertainty k = 0.347151
        25        24        23        31     9      180.000000        1.107068         4    ;  uncertainty k = 0.235544
        25        26        27        28     9        0.000000        0.545698         1    ;  uncertainty k = 0.710680
        25        26        27        28     9      180.000000        7.153060         2    ;  uncertainty k = 0.604346
        25        26        27        28     9        0.000000       -0.042578         3    ;  uncertainty k = 0.385672
        25        26        27        28     9      180.000000        1.038495         4    ;  uncertainty k = 0.212607
        25        26        27        50     9        0.000000        0.564420         1    ;  uncertainty k = 0.984440
        25        26        27        50     9      180.000000        3.627038         2    ;  uncertainty k = 0.844669
        25        26        27        50     9        0.000000        1.294258         3    ;  uncertainty k = 0.243708
        25        26        27        50     9      180.000000        0.092482         4    ;  uncertainty k = 0.127683
        25        26        30        29     9        0.000000       -0.063131         1    ;  uncertainty k = 0.386313
        25        26        30        29     9      180.000000        8.412510         2    ;  uncertainty k = 0.121050
        25        26        30        29     9        0.000000       -0.287403         3    ;  uncertainty k = 0.440323
        25        26        30        29     9      180.000000        1.255913         4    ;  uncertainty k = 0.401647
        25        26        30        31     9        0.000000       -0.562856         1    ;  uncertainty k = 0.745394
        25        26        30        31     9      180.000000        7.458514         2    ;  uncertainty k = 0.459216
        25        26        30        31     9        0.000000        0.136454         3    ;  uncertainty k = 0.199056
        25        26        30        31     9      180.000000        1.050165         4    ;  uncertainty k = 0.325664
        26        25        24        48     9        0.000000        0.020909         1    ;  uncertainty k = 0.300364
        26        25        24        48     9      180.000000       11.611134         2    ;  uncertainty k = 0.328467
        26        25        24        48     9        0.000000        1.514345         3    ;  uncertainty k = 0.287097
        26        25        24        48     9      180.000000        1.729218         4    ;  uncertainty k = 0.314044
        26        27        28        29     9        0.000000       -0.120150         1    ;  uncertainty k = 0.731968
        26        27        28        29     9      180.000000       26.305457         2    ;  uncertainty k = 0.190420
        26        27        28        29     9        0.000000       -5.118996         3    ;  uncertainty k = 1.092191
        26        27        28        29     9      180.000000        1.921340         4    ;  uncertainty k = 0.544335
        26        30        29        28     9        0.000000        0.445887         1    ;  uncertainty k = 0.538505
        26        30        29        28     9      180.000000       17.377662         2    ;  uncertainty k = 0.937306
        26        30        29        28     9        0.000000       -8.620329         3    ;  uncertainty k = 1.375362
        26        30        29        28     9      180.000000        0.798738         4    ;  uncertainty k = 0.449854
        26        30        29        51     9        0.000000        4.597757         1    ;  uncertainty k = 2.148015
        26        30        29        51     9      180.000000        5.842092         2    ;  uncertainty k = 1.205206
        26        30        29        51     9        0.000000        1.417089         3    ;  uncertainty k = 0.198827
        26        30        29        51     9      180.000000        0.079654         4    ;  uncertainty k = 0.179784
        26        30        31        52     9        0.000000        0.013418         1    ;  uncertainty k = 0.418706
        26        30        31        52     9      180.000000        6.790814         2    ;  uncertainty k = 1.175804
        26        30        31        52     9        0.000000        1.352570         3    ;  uncertainty k = 0.132010
        26        30        31        52     9      180.000000        1.195216         4    ;  uncertainty k = 0.438465
        27        26        25        49     9        0.000000        0.217395         1    ;  uncertainty k = 0.480879
        27        26        25        49     9      180.000000        5.634350         2    ;  uncertainty k = 0.518608
        27        26        25        49     9        0.000000        1.012531         3    ;  uncertainty k = 0.158569
        27        26        25        49     9      180.000000        0.531503         4    ;  uncertainty k = 0.245181
        27        26        30        29     9        0.000000       -0.643775         1    ;  uncertainty k = 0.381050
        27        26        30        29     9      180.000000       11.992310         2    ;  uncertainty k = 0.969249
        27        26        30        29     9        0.000000       -3.882657         3    ;  uncertainty k = 1.450461
        27        26        30        29     9      180.000000        1.660888         4    ;  uncertainty k = 0.668480
        27        26        30        31     9        0.000000        0.241076         1    ;  uncertainty k = 0.298478
        27        26        30        31     9      180.000000        6.850321         2    ;  uncertainty k = 0.103680
        27        26        30        31     9        0.000000        0.207085         3    ;  uncertainty k = 0.461047
        27        26        30        31     9      180.000000        1.308351         4    ;  uncertainty k = 0.339157
        27        28        29        30     9        0.000000        0.010606         1    ;  uncertainty k = 0.662708
        27        28        29        30     9      180.000000       18.143360         2    ;  uncertainty k = 0.626429
        27        28        29        30     9        0.000000       -5.124361         3    ;  uncertainty k = 1.731977
        27        28        29        30     9      180.000000        1.047796         4    ;  uncertainty k = 0.635563
        27        28        29        51     9        0.000000        4.250976         1    ;  uncertainty k = 1.972130
        27        28        29        51     9      180.000000       14.221018         2    ;  uncertainty k = 0.376681
        27        28        29        51     9        0.000000        1.503735         3    ;  uncertainty k = 1.418968
        27        28        29        51     9      180.000000       -0.516135         4    ;  uncertainty k = 0.508752
        28        27        26        30     9        0.000000        0.359306         1    ;  uncertainty k = 0.778422
        28        27        26        30     9      180.000000       13.632398         2    ;  uncertainty k = 1.052808
        28        27        26        30     9        0.000000      -12.345143         3    ;  uncertainty k = 2.648213
        28        27        26        30     9      180.000000        2.230091         4    ;  uncertainty k = 0.628090
        28        29        30        31     9        0.000000        1.000030         1    ;  uncertainty k = 0.963977
        28        29        30        31     9      180.000000        6.598531         2    ;  uncertainty k = 0.456533
        28        29        30        31     9        0.000000        0.523615         3    ;  uncertainty k = 0.549525
        28        29        30        31     9      180.000000        0.305440         4    ;  uncertainty k = 0.151087
        29        28        27        50     9        0.000000        0.518235         1    ;  uncertainty k = 0.650449
        29        28        27        50     9      180.000000       24.335930         2    ;  uncertainty k = 0.403779
        29        28        27        50     9        0.000000        1.548245         3    ;  uncertainty k = 0.953165
        29        28        27        50     9      180.000000        1.092166         4    ;  uncertainty k = 0.377302
        29        30        31        52     9        0.000000        0.314928         1    ;  uncertainty k = 0.315515
        29        30        31        52     9      180.000000        5.699468         2    ;  uncertainty k = 0.975196
        29        30        31        52     9        0.000000        1.146584         3    ;  uncertainty k = 0.270923
        29        30        31        52     9      180.000000        0.857597         4    ;  uncertainty k = 0.459903
        30        26        25        49     9        0.000000       -0.020110         1    ;  uncertainty k = 0.552058
        30        26        25        49     9      180.000000        7.540400         2    ;  uncertainty k = 0.762481
        30        26        25        49     9        0.000000        1.344634         3    ;  uncertainty k = 0.335085
        30        26        25        49     9      180.000000        1.075326         4    ;  uncertainty k = 0.499322
        30        26        27        50     9        0.000000        0.126420         1    ;  uncertainty k = 0.442510
        30        26        27        50     9      180.000000        8.054401         2    ;  uncertainty k = 0.926413
        30        26        27        50     9        0.000000        1.381881         3    ;  uncertainty k = 0.459935
        30        26        27        50     9      180.000000        0.310454         4    ;  uncertainty k = 0.234121
        31        23        24        48     9        0.000000       -0.091765         1    ;  uncertainty k = 0.174121
        31        23        24        48     9      180.000000        6.129199         2    ;  uncertainty k = 0.575207
        31        23        24        48     9        0.000000        1.243235         3    ;  uncertainty k = 0.113303
        31        23        24        48     9      180.000000        1.508541         4    ;  uncertainty k = 0.244145
        31        30        29        51     9        0.000000        1.977927         1    ;  uncertainty k = 0.648831
        31        30        29        51     9      180.000000        1.587494         2    ;  uncertainty k = 0.601510
        31        30        29        51     9        0.000000        1.310226         3    ;  uncertainty k = 0.630295
        31        30        29        51     9      180.000000        0.107900         4    ;  uncertainty k = 0.145848
        32        12        11        43     9        0.000000        0.025168         1    ;  uncertainty k = 0.206551
        32        12        11        43     9      180.000000        6.326000         2    ;  uncertainty k = 0.744311
        32        12        11        43     9        0.000000        1.221454         3    ;  uncertainty k = 0.286692
        32        12        11        43     9      180.000000        1.446916         4    ;  uncertainty k = 0.179934
        32        12        13        44     9        0.000000        2.597791         1    ;  uncertainty k = 0.388176
        32        12        13        44     9      180.000000        4.354502         2    ;  uncertainty k = 0.269021
        32        12        13        44     9        0.000000        0.668938         3    ;  uncertainty k = 0.165671
        32        12        13        44     9      180.000000        0.424981         4    ;  uncertainty k = 0.063204
        33         9        10        42     9        0.000000        0.095057         1    ;  uncertainty k = 0.373037
        33         9        10        42     9      180.000000        6.040980         2    ;  uncertainty k = 0.714745
        33         9        10        42     9        0.000000        1.355530         3    ;  uncertainty k = 0.222429
        33         9        10        42     9      180.000000        1.537885         4    ;  uncertainty k = 0.130834
        34         4         5        36     9        0.000000       -0.925663         1    ;  uncertainty k = 0.490075
        34         4         5        36     9      180.000000        0.998328         2    ;  uncertainty k = 0.527091
        34         4         5        36     9        0.000000        0.224475         3    ;  uncertainty k = 0.219546
        34         4         5        36     9      180.000000       -0.413990         4    ;  uncertainty k = 0.163696
        34         4         5        37     9        0.000000       -0.925663         1    ;  uncertainty k = 0.490075
        34         4         5        37     9      180.000000        0.998328         2    ;  uncertainty k = 0.527091
        34         4         5        37     9        0.000000        0.224475         3    ;  uncertainty k = 0.219546
        34         4         5        37     9      180.000000       -0.413990         4    ;  uncertainty k = 0.163696
        35         4         5        36     9        0.000000       -0.925663         1    ;  uncertainty k = 0.490075
        35         4         5        36     9      180.000000        0.998328         2    ;  uncertainty k = 0.527091
        35         4         5        36     9        0.000000        0.224475         3    ;  uncertainty k = 0.219546
        35         4         5        36     9      180.000000       -0.413990         4    ;  uncertainty k = 0.163696
        35         4         5        37     9        0.000000       -0.925663         1    ;  uncertainty k = 0.490075
        35         4         5        37     9      180.000000        0.998328         2    ;  uncertainty k = 0.527091
        35         4         5        37     9        0.000000        0.224475         3    ;  uncertainty k = 0.219546
        35         4         5        37     9      180.000000       -0.413990         4    ;  uncertainty k = 0.163696
        38         7         8        40     9        0.000000       -0.925663         1    ;  uncertainty k = 0.490075
        38         7         8        40     9      180.000000        0.998328         2    ;  uncertainty k = 0.527091
        38         7         8        40     9        0.000000        0.224475         3    ;  uncertainty k = 0.219546
        38         7         8        40     9      180.000000       -0.413990         4    ;  uncertainty k = 0.163696
        38         7         8        41     9        0.000000       -0.925663         1    ;  uncertainty k = 0.490075
        38         7         8        41     9      180.000000        0.998328         2    ;  uncertainty k = 0.527091
        38         7         8        41     9        0.000000        0.224475         3    ;  uncertainty k = 0.219546
        38         7         8        41     9      180.000000       -0.413990         4    ;  uncertainty k = 0.163696
        39         7         8        40     9        0.000000       -0.925663         1    ;  uncertainty k = 0.490075
        39         7         8        40     9      180.000000        0.998328         2    ;  uncertainty k = 0.527091
        39         7         8        40     9        0.000000        0.224475         3    ;  uncertainty k = 0.219546
        39         7         8        40     9      180.000000       -0.413990         4    ;  uncertainty k = 0.163696
        39         7         8        41     9        0.000000       -0.925663         1    ;  uncertainty k = 0.490075
        39         7         8        41     9      180.000000        0.998328         2    ;  uncertainty k = 0.527091
        39         7         8        41     9        0.000000        0.224475         3    ;  uncertainty k = 0.219546
        39         7         8        41     9      180.000000       -0.413990         4    ;  uncertainty k = 0.163696
        42        10        11        43     9        0.000000       -0.033493         1    ;  uncertainty k = 0.337431
        42        10        11        43     9      180.000000        7.906292         2    ;  uncertainty k = 0.597080
        42        10        11        43     9        0.000000       -0.382018         3    ;  uncertainty k = 0.398381
        42        10        11        43     9      180.000000        0.330781         4    ;  uncertainty k = 0.235621
        46        19        20        47     9        0.000000       -0.311075         1    ;  uncertainty k = 0.492453
        46        19        20        47     9      180.000000        5.384359         2    ;  uncertainty k = 0.598234
        46        19        20        47     9        0.000000        1.243313         3    ;  uncertainty k = 0.430720
        46        19        20        47     9      180.000000        0.271791         4    ;  uncertainty k = 0.092255
        48        24        25        49     9        0.000000       -0.250847         1    ;  uncertainty k = 0.196331
        48        24        25        49     9      180.000000        8.235112         2    ;  uncertainty k = 0.381562
        48        24        25        49     9        0.000000       -0.155117         3    ;  uncertainty k = 0.220769
        48        24        25        49     9      180.000000        0.305847         4    ;  uncertainty k = 0.262587
        53        32        33        54     9        0.000000       -0.033493         1    ;  uncertainty k = 0.337431
        53        32        33        54     9      180.000000        7.906291         2    ;  uncertainty k = 0.597080
        53        32        33        54     9        0.000000       -0.382018         3    ;  uncertainty k = 0.398381
        53        32        33        54     9      180.000000        0.330781         4    ;  uncertainty k = 0.235621

[ dihedrals ] ; impropers
;       ai        aj        ak        al funct           phase               k        pn
         9         6        10        33     4      180.000000       20.057732         2    ;  uncertainty k = 0.159408
         9        10        33         6     4      180.000000       20.057732         2    ;  uncertainty k = 0.159408
         9        33         6        10     4      180.000000       20.057732         2    ;  uncertainty k = 0.159408
        10         9        11        42     4      180.000000        2.151429         2    ;  uncertainty k = 0.519855
        10        11        42         9     4      180.000000        2.151429         2    ;  uncertainty k = 0.519855
        10        42         9        11     4      180.000000        2.151429         2    ;  uncertainty k = 0.519855
        11        10        12        43     4      180.000000        3.206660         2    ;  uncertainty k = 0.223269
        11        12        43        10     4      180.000000        3.206660         2    ;  uncertainty k = 0.223269
        11        43        10        12     4      180.000000        3.206660         2    ;  uncertainty k = 0.223269
        12        11        13        32     4      180.000000       17.191664         2    ;  uncertainty k = 0.066919
        12        13        32        11     4      180.000000       17.191664         2    ;  uncertainty k = 0.066919
        12        32        11        13     4      180.000000       17.191664         2    ;  uncertainty k = 0.066919
        13        12        14        44     4      180.000000        1.609866         2    ;  uncertainty k = 0.665250
        13        14        44        12     4      180.000000        1.609866         2    ;  uncertainty k = 0.665250
        13        44        12        14     4      180.000000        1.609866         2    ;  uncertainty k = 0.665250
        14        13        15        22     4      180.000000       28.346684         2    ;  uncertainty k = 0.062767
        14        15        22        13     4      180.000000       28.346684         2    ;  uncertainty k = 0.062767
        14        22        13        15     4      180.000000       28.346684         2    ;  uncertainty k = 0.062767
        16        15        17        23     4      180.000000       19.200791         2    ;  uncertainty k = 0.081082
        16        17        23        15     4      180.000000       19.200791         2    ;  uncertainty k = 0.081082
        16        23        15        17     4      180.000000       19.200791         2    ;  uncertainty k = 0.081082
        17        16        18        45     4      180.000000        1.291987         2    ;  uncertainty k = 1.146498
        17        18        45        16     4      180.000000        1.291987         2    ;  uncertainty k = 1.146498
        17        45        16        18     4      180.000000        1.291987         2    ;  uncertainty k = 1.146498
        18        17        19        22     4      180.000000        1.588086         2    ;  uncertainty k = 1.398469
        18        19        22        17     4      180.000000        1.588086         2    ;  uncertainty k = 1.398469
        18        22        17        19     4      180.000000        1.588086         2    ;  uncertainty k = 1.398469
        19        18        20        46     4      180.000000        0.105195         2    ;  uncertainty k = 0.235223
        19        20        46        18     4      180.000000        0.105195         2    ;  uncertainty k = 0.235223
        19        46        18        20     4      180.000000        0.105195         2    ;  uncertainty k = 0.235223
        20        19        21        47     4      180.000000        1.779599         2    ;  uncertainty k = 0.230150
        20        21        47        19     4      180.000000        1.779599         2    ;  uncertainty k = 0.230150
        20        47        19        21     4      180.000000        1.779599         2    ;  uncertainty k = 0.230150
        22        14        18        21     4      180.000000        2.165379         2    ;  uncertainty k = 0.627946
        22        18        21        14     4      180.000000        2.165379         2    ;  uncertainty k = 0.627946
        22        21        14        18     4      180.000000        2.165379         2    ;  uncertainty k = 0.627946
        23        16        24        31     4      180.000000       11.787880         2    ;  uncertainty k = 0.110513
        23        24        31        16     4      180.000000       11.787880         2    ;  uncertainty k = 0.110513
        23        31        16        24     4      180.000000       11.787880         2    ;  uncertainty k = 0.110513
        24        23        25        48     4      180.000000        2.954189         2    ;  uncertainty k = 0.225776
        24        25        48        23     4      180.000000        2.954189         2    ;  uncertainty k = 0.225776
        24        48        23        25     4      180.000000        2.954189         2    ;  uncertainty k = 0.225776
        25        24        26        49     4      180.000000        5.148360         2    ;  uncertainty k = 0.214210
        25        26        49        24     4      180.000000        5.148360         2    ;  uncertainty k = 0.214210
        25        49        24        26     4      180.000000        5.148360         2    ;  uncertainty k = 0.214210
        27        26        28        50     4      180.000000        1.421392         2    ;  uncertainty k = 0.357579
        27        28        50        26     4      180.000000        1.421392         2    ;  uncertainty k = 0.357579
        27        50        26        28     4      180.000000        1.421392         2    ;  uncertainty k = 0.357579
        30        26        29        31     4      180.000000        1.427407         2    ;  uncertainty k = 0.758143
        30        29        31        26     4      180.000000        1.427407         2    ;  uncertainty k = 0.758143
        30        31        26        29     4      180.000000        1.427407         2    ;  uncertainty k = 0.758143
        31        23        30        52     4      180.000000        2.575294         2    ;  uncertainty k = 0.237857
        31        30        52        23     4      180.000000        2.575294         2    ;  uncertainty k = 0.237857
        31        52        23        30     4      180.000000        2.575294         2    ;  uncertainty k = 0.237857
        32        12        33        53     4      180.000000        3.206660         2    ;  uncertainty k = 0.223268
        32        33        53        12     4      180.000000        3.206660         2    ;  uncertainty k = 0.223268
        32        53        12        33     4      180.000000        3.206660         2    ;  uncertainty k = 0.223268
        33         9        32        54     4      180.000000        2.151431         2    ;  uncertainty k = 0.519856
        33        32        54         9     4      180.000000        2.151431         2    ;  uncertainty k = 0.519856
        33        54         9        32     4      180.000000        2.151431         2    ;  uncertainty k = 0.519856

[ pairs ]
;       ai        aj funct
         1         5     1
         1         7     1
         1        34     1
         1        35     1
         1        40     1
         1        41     1
         2         6     1
         2        36     1
         2        37     1
         2        38     1
         2        39     1
         3         5     1
         3         7     1
         3        34     1
         3        35     1
         3        40     1
         3        41     1
         4         7     1
         4         9     1
         4        40     1
         4        41     1
         5         8     1
         5        10     1
         5        33     1
         5        38     1
         5        39     1
         6        11     1
         6        32     1
         6        34     1
         6        35     1
         6        40     1
         6        41     1
         6        42     1
         6        54     1
         7        10     1
         7        33     1
         7        36     1
         7        37     1
         8         9     1
         8        34     1
         8        35     1
         9        12     1
         9        36     1
         9        37     1
         9        38     1
         9        39     1
         9        43     1
         9        53     1
        10        13     1
        10        32     1
        10        54     1
        11        14     1
        11        33     1
        11        44     1
        11        53     1
        12        15     1
        12        22     1
        12        42     1
        12        54     1
        13        16     1
        13        18     1
        13        21     1
        13        33     1
        13        43     1
        13        53     1
        14        17     1
        14        19     1
        14        20     1
        14        23     1
        14        32     1
        15        18     1
        15        21     1
        15        24     1
        15        31     1
        15        44     1
        15        45     1
        16        19     1
        16        22     1
        16        25     1
        16        30     1
        16        48     1
        16        52     1
        17        20     1
        17        21     1
        17        24     1
        17        31     1
        17        46     1
        18        23     1
        18        47     1
        19        45     1
        21        46     1
        22        44     1
        22        45     1
        22        46     1
        22        47     1
        23        26     1
        23        29     1
        23        45     1
        23        49     1
        24        27     1
        24        30     1
        24        52     1
        25        28     1
        25        29     1
        25        31     1
        25        50     1
        26        48     1
        26        51     1
        26        52     1
        27        31     1
        27        49     1
        27        51     1
        28        31     1
        29        50     1
        29        52     1
        30        49     1
        30        50     1
        31        48     1
        31        51     1
        32        43     1
        32        44     1
        33        42     1
        34        36     1
        34        37     1
        35        36     1
        35        37     1
        38        40     1
        38        41     1
        39        40     1
        39        41     1
        42        43     1
        46        47     1
        48        49     1
        53        54     1
