; ITP file created by ByteFF-joint-25, 2026-02-17 09:44:11.847387

[ atomtypes ]
;name           bonded.type        at.num        mass        charge   ptype           sigma         epsilon
 c0bf                                   6      0.0000       0.00000       A     3.39790e-01     4.50985e-01    ;  uncertainty sigma = 0.000004, epsilon = 0.000763
 o1bf                                   8      0.0000       0.00000       A     3.15646e-01     3.03088e-01    ;  uncertainty sigma = 0.000024, epsilon = 0.000735
 c2bf                                   6      0.0000       0.00000       A     3.31534e-01     4.13458e-01    ;  uncertainty sigma = 0.000004, epsilon = 0.000517
 c3bf                                   6      0.0000       0.00000       A     3.31512e-01     4.13328e-01    ;  uncertainty sigma = 0.000004, epsilon = 0.000516
 c4bf                                   6      0.0000       0.00000       A     3.31523e-01     4.13336e-01    ;  uncertainty sigma = 0.000009, epsilon = 0.000645
 c5bf                                   6      0.0000       0.00000       A     3.31527e-01     4.13388e-01    ;  uncertainty sigma = 0.000006, epsilon = 0.001051
 n6bf                                   7      0.0000       0.00000       A     3.27838e-01     6.46213e-01    ;  uncertainty sigma = 0.000040, epsilon = 0.003240
 c7bf                                   6      0.0000       0.00000       A     3.31526e-01     4.13887e-01    ;  uncertainty sigma = 0.000017, epsilon = 0.001682
 n8bf                                   7      0.0000       0.00000       A     3.38464e-01     3.93282e-01    ;  uncertainty sigma = 0.000032, epsilon = 0.000680
 c9bf                                   6      0.0000       0.00000       A     3.31551e-01     4.13482e-01    ;  uncertainty sigma = 0.000026, epsilon = 0.000675
 c10bf                                  6      0.0000       0.00000       A     3.31561e-01     4.13642e-01    ;  uncertainty sigma = 0.000012, epsilon = 0.001524
 n11bf                                  7      0.0000       0.00000       A     3.20547e-01     8.53303e-01    ;  uncertainty sigma = 0.000017, epsilon = 0.000844
 c12bf                                  6      0.0000       0.00000       A     3.31503e-01     4.12978e-01    ;  uncertainty sigma = 0.000012, epsilon = 0.001136
 c13bf                                  6      0.0000       0.00000       A     3.31531e-01     4.13187e-01    ;  uncertainty sigma = 0.000008, epsilon = 0.000699
 n14bf                                  7      0.0000       0.00000       A     3.38427e-01     3.92895e-01    ;  uncertainty sigma = 0.000039, epsilon = 0.000415
 c15bf                                  6      0.0000       0.00000       A     3.31554e-01     4.12537e-01    ;  uncertainty sigma = 0.000015, epsilon = 0.000432
 c16bf                                  6      0.0000       0.00000       A     3.31495e-01     4.12862e-01    ;  uncertainty sigma = 0.000015, epsilon = 0.000655
 c17bf                                  6      0.0000       0.00000       A     3.31522e-01     4.13340e-01    ;  uncertainty sigma = 0.000008, epsilon = 0.000498
 c18bf                                  6      0.0000       0.00000       A     3.31514e-01     4.13292e-01    ;  uncertainty sigma = 0.000012, epsilon = 0.000796
 c19bf                                  6      0.0000       0.00000       A     3.31509e-01     4.13757e-01    ;  uncertainty sigma = 0.000011, epsilon = 0.000799
 c20bf                                  6      0.0000       0.00000       A     3.31513e-01     4.13361e-01    ;  uncertainty sigma = 0.000005, epsilon = 0.000518
 n21bf                                  7      0.0000       0.00000       A     3.38391e-01     3.93277e-01    ;  uncertainty sigma = 0.000010, epsilon = 0.000960
 n22bf                                  7      0.0000       0.00000       A     3.20633e-01     8.53350e-01    ;  uncertainty sigma = 0.000014, epsilon = 0.001516
 c23bf                                  6      0.0000       0.00000       A     3.31512e-01     4.13040e-01    ;  uncertainty sigma = 0.000009, epsilon = 0.000957
 c24bf                                  6      0.0000       0.00000       A     3.31510e-01     4.13220e-01    ;  uncertainty sigma = 0.000011, epsilon = 0.001090
 c25bf                                  6      0.0000       0.00000       A     3.31523e-01     4.13336e-01    ;  uncertainty sigma = 0.000009, epsilon = 0.000645
 c26bf                                  6      0.0000       0.00000       A     3.31512e-01     4.13328e-01    ;  uncertainty sigma = 0.000004, epsilon = 0.000516
 h27bf                                  1      0.0000       0.00000       A     2.42205e-01     8.67538e-02    ;  uncertainty sigma = 0.000015, epsilon = 0.000624
 h28bf                                  1      0.0000       0.00000       A     2.42205e-01     8.67538e-02    ;  uncertainty sigma = 0.000015, epsilon = 0.000624
 h29bf                                  1      0.0000       0.00000       A     2.42205e-01     8.67538e-02    ;  uncertainty sigma = 0.000015, epsilon = 0.000624
 h30bf                                  1      0.0000       0.00000       A     2.62561e-01     6.71268e-02    ;  uncertainty sigma = 0.000010, epsilon = 0.000397
 h31bf                                  1      0.0000       0.00000       A     2.62564e-01     6.70248e-02    ;  uncertainty sigma = 0.000015, epsilon = 0.000426
 h32bf                                  1      0.0000       0.00000       A     1.10708e-01     4.06502e-02    ;  uncertainty sigma = 0.000118, epsilon = 0.000465
 h33bf                                  1      0.0000       0.00000       A     2.53612e-01     6.73648e-02    ;  uncertainty sigma = 0.000081, epsilon = 0.000889
 h34bf                                  1      0.0000       0.00000       A     2.53649e-01     6.68496e-02    ;  uncertainty sigma = 0.000023, epsilon = 0.000657
 h35bf                                  1      0.0000       0.00000       A     2.53645e-01     6.69492e-02    ;  uncertainty sigma = 0.000020, epsilon = 0.000834
 h36bf                                  1      0.0000       0.00000       A     2.62566e-01     6.71205e-02    ;  uncertainty sigma = 0.000011, epsilon = 0.000550
 h37bf                                  1      0.0000       0.00000       A     2.62563e-01     6.68746e-02    ;  uncertainty sigma = 0.000013, epsilon = 0.000544
 h38bf                                  1      0.0000       0.00000       A     2.53655e-01     6.72548e-02    ;  uncertainty sigma = 0.000027, epsilon = 0.000407
 h39bf                                  1      0.0000       0.00000       A     1.10649e-01     4.13996e-02    ;  uncertainty sigma = 0.000067, epsilon = 0.000803
 h40bf                                  1      0.0000       0.00000       A     2.62569e-01     6.71239e-02    ;  uncertainty sigma = 0.000008, epsilon = 0.000504
 h41bf                                  1      0.0000       0.00000       A     2.62564e-01     6.70247e-02    ;  uncertainty sigma = 0.000015, epsilon = 0.000426
 h42bf                                  1      0.0000       0.00000       A     2.62561e-01     6.71267e-02    ;  uncertainty sigma = 0.000010, epsilon = 0.000397

[ moleculetype ]
;name             nrexcl
 MOL                   3

[ atoms ]
;       nr            type      resi   res      atom      cgnr      charge          mass ; qtot
         1            c0bf         1   UNL        c0         1     0.12074       12.0110 ; qtot    0.121
         2            o1bf         1   UNL        o1         2    -0.32678       15.9990 ; qtot   -0.206
         3            c2bf         1   UNL        c2         3     0.10861       12.0110 ; qtot   -0.097
         4            c3bf         1   UNL        c3         4    -0.16407       12.0110 ; qtot   -0.262
         5            c4bf         1   UNL        c4         5    -0.12803       12.0110 ; qtot   -0.390
         6            c5bf         1   UNL        c5         6     0.13807       12.0110 ; qtot   -0.251
         7            n6bf         1   UNL        n6         7    -0.73969       14.0070 ; qtot   -0.991
         8            c7bf         1   UNL        c7         8     0.75024       12.0110 ; qtot   -0.241
         9            n8bf         1   UNL        n8         9    -0.76973       14.0070 ; qtot   -1.011
        10            c9bf         1   UNL        c9        10     0.47542       12.0110 ; qtot   -0.535
        11           c10bf         1   UNL       c10        11    -0.22208       12.0110 ; qtot   -0.757
        12           n11bf         1   UNL       n11        12     0.05408       14.0070 ; qtot   -0.703
        13           c12bf         1   UNL       c12        13    -0.21243       12.0110 ; qtot   -0.916
        14           c13bf         1   UNL       c13        14     0.01175       12.0110 ; qtot   -0.904
        15           n14bf         1   UNL       n14        15    -0.27543       14.0070 ; qtot   -1.179
        16           c15bf         1   UNL       c15        16    -0.18460       12.0110 ; qtot   -1.364
        17           c16bf         1   UNL       c16        17    -0.09010       12.0110 ; qtot   -1.454
        18           c17bf         1   UNL       c17        18    -0.14752       12.0110 ; qtot   -1.602
        19           c18bf         1   UNL       c18        19    -0.05609       12.0110 ; qtot   -1.658
        20           c19bf         1   UNL       c19        20    -0.22020       12.0110 ; qtot   -1.878
        21           c20bf         1   UNL       c20        21     0.35625       12.0110 ; qtot   -1.522
        22           n21bf         1   UNL       n21        22    -0.50685       14.0070 ; qtot   -2.028
        23           n22bf         1   UNL       n22        23    -0.03477       14.0070 ; qtot   -2.063
        24           c23bf         1   UNL       c23        24    -0.03315       12.0110 ; qtot   -2.096
        25           c24bf         1   UNL       c24        25    -0.12410       12.0110 ; qtot   -2.220
        26           c25bf         1   UNL       c25        26    -0.12803       12.0110 ; qtot   -2.348
        27           c26bf         1   UNL       c26        27    -0.16407       12.0110 ; qtot   -2.513
        28           h27bf         1   UNL       h27        28     0.04263        1.0080 ; qtot   -2.470
        29           h28bf         1   UNL       h28        29     0.04263        1.0080 ; qtot   -2.427
        30           h29bf         1   UNL       h29        30     0.04263        1.0080 ; qtot   -2.385
        31           h30bf         1   UNL       h30        31     0.14058        1.0080 ; qtot   -2.244
        32           h31bf         1   UNL       h31        32     0.14882        1.0080 ; qtot   -2.095
        33           h32bf         1   UNL       h32        33     0.46054        1.0080 ; qtot   -1.635
        34           h33bf         1   UNL       h33        34     0.17402        1.0080 ; qtot   -1.461
        35           h34bf         1   UNL       h34        35     0.18619        1.0080 ; qtot   -1.275
        36           h35bf         1   UNL       h35        36     0.17120        1.0080 ; qtot   -1.103
        37           h36bf         1   UNL       h36        37     0.14353        1.0080 ; qtot   -0.960
        38           h37bf         1   UNL       h37        38     0.14235        1.0080 ; qtot   -0.817
        39           h38bf         1   UNL       h38        39     0.05012        1.0080 ; qtot   -0.767
        40           h39bf         1   UNL       h39        40     0.32822        1.0080 ; qtot   -0.439
        41           h40bf         1   UNL       h40        41     0.14965        1.0080 ; qtot   -0.289
        42           h41bf         1   UNL       h41        42     0.14882        1.0080 ; qtot   -0.141
        43           h42bf         1   UNL       h42        43     0.14063        1.0080 ; qtot    0.000

[ bonds ]
;       ai        aj funct               r               k
         1         2     1        0.141873   253422.305859    ;  uncertainty r = 0.000020, k = 2.719231
         1        28     1        0.109623   311224.914502    ;  uncertainty r = 0.000009, k = 1.869772
         1        29     1        0.109623   311224.914502    ;  uncertainty r = 0.000009, k = 1.869772
         1        30     1        0.109623   311224.914502    ;  uncertainty r = 0.000009, k = 1.869772
         2         3     1        0.136702   321249.149268    ;  uncertainty r = 0.000034, k = 2.995185
         3         4     1        0.139795   361340.036035    ;  uncertainty r = 0.000043, k = 5.116320
         3        27     1        0.139795   361340.036035    ;  uncertainty r = 0.000043, k = 5.116311
         4         5     1        0.139103   365134.544043    ;  uncertainty r = 0.000072, k = 2.745441
         4        31     1        0.108803   337161.194434    ;  uncertainty r = 0.000031, k = 0.650954
         5         6     1        0.140117   350688.737549    ;  uncertainty r = 0.000066, k = 5.305755
         5        32     1        0.108743   335941.337793    ;  uncertainty r = 0.000045, k = 1.664120
         6         7     1        0.141267   344999.656934    ;  uncertainty r = 0.000082, k = 11.817378
         6        26     1        0.140117   350688.737549    ;  uncertainty r = 0.000066, k = 5.305777
         7         8     1        0.137928   330364.033105    ;  uncertainty r = 0.000233, k = 32.504541
         7        33     1        0.102080   426606.656543    ;  uncertainty r = 0.000044, k = 5.060948
         8         9     1        0.132293   443196.890723    ;  uncertainty r = 0.000185, k = 13.473043
         8        16     1        0.143016   286566.945654    ;  uncertainty r = 0.000095, k = 10.976562
         9        10     1        0.137539   259289.788721    ;  uncertainty r = 0.000221, k = 27.333167
        10        11     1        0.136983   380120.690234    ;  uncertainty r = 0.000106, k = 13.129494
        10        17     1        0.147341   266299.291113    ;  uncertainty r = 0.000140, k = 10.421868
        11        12     1        0.137903   324759.863379    ;  uncertainty r = 0.000057, k = 6.440732
        11        34     1        0.108483   340864.892480    ;  uncertainty r = 0.000069, k = 2.329542
        12        13     1        0.137812   342777.341064    ;  uncertainty r = 0.000099, k = 5.087994
        12        16     1        0.139016   307421.213135    ;  uncertainty r = 0.000151, k = 23.940608
        13        14     1        0.138713   413349.321582    ;  uncertainty r = 0.000044, k = 11.515258
        13        35     1        0.108153   341281.147363    ;  uncertainty r = 0.000029, k = 4.725641
        14        15     1        0.136694   264650.921777    ;  uncertainty r = 0.000104, k = 21.676773
        14        36     1        0.108374   336399.652295    ;  uncertainty r = 0.000052, k = 2.763013
        15        16     1        0.133277   447135.785547    ;  uncertainty r = 0.000097, k = 11.841721
        17        18     1        0.142221   330382.215527    ;  uncertainty r = 0.000108, k = 4.226718
        17        25     1        0.138999   355014.238672    ;  uncertainty r = 0.000049, k = 4.165741
        18        19     1        0.138406   365370.174951    ;  uncertainty r = 0.000051, k = 6.484539
        18        37     1        0.108740   335079.715723    ;  uncertainty r = 0.000026, k = 2.762628
        19        20     1        0.140636   363954.065625    ;  uncertainty r = 0.000045, k = 4.520849
        19        38     1        0.108793   334157.723926    ;  uncertainty r = 0.000027, k = 0.887991
        20        21     1        0.143565   236002.192236    ;  uncertainty r = 0.000085, k = 10.251134
        20        24     1        0.141896   395442.598340    ;  uncertainty r = 0.000042, k = 7.271248
        21        22     1        0.132527   481307.910937    ;  uncertainty r = 0.000030, k = 4.804422
        21        39     1        0.108445   339950.331982    ;  uncertainty r = 0.000029, k = 2.772015
        22        23     1        0.136464   286651.218115    ;  uncertainty r = 0.000028, k = 6.362435
        23        24     1        0.137432   293777.093115    ;  uncertainty r = 0.000025, k = 8.625448
        23        40     1        0.101061   415482.921533    ;  uncertainty r = 0.000029, k = 2.943417
        24        25     1        0.139860   363187.467139    ;  uncertainty r = 0.000057, k = 4.398211
        25        41     1        0.108825   335126.984912    ;  uncertainty r = 0.000043, k = 1.321162
        26        27     1        0.139103   365134.569580    ;  uncertainty r = 0.000072, k = 2.745466
        26        42     1        0.108743   335941.312256    ;  uncertainty r = 0.000045, k = 1.664135
        27        43     1        0.108803   337161.194434    ;  uncertainty r = 0.000031, k = 0.650986

[ angles ]
;       ai        aj        ak funct           theta             cth
         1         2         3     1      109.716843      516.217408    ;  uncertainty theta = 0.000693, k = 0.036119
         2         1        28     1      108.813194      446.415230    ;  uncertainty theta = 0.001356, k = 0.024421
         2         1        29     1      108.813194      446.415230    ;  uncertainty theta = 0.001356, k = 0.024421
         2         1        30     1      108.813194      446.415230    ;  uncertainty theta = 0.001356, k = 0.024421
         2         3         4     1      119.714859      420.422731    ;  uncertainty theta = 0.003545, k = 0.067349
         2         3        27     1      119.714859      420.422731    ;  uncertainty theta = 0.003545, k = 0.067348
         3         4         5     1      119.780800      506.052106    ;  uncertainty theta = 0.002444, k = 0.074791
         3         4        31     1      119.789352      266.634651    ;  uncertainty theta = 0.002113, k = 0.043197
         3        27        26     1      119.780800      506.052138    ;  uncertainty theta = 0.002444, k = 0.074791
         3        27        43     1      119.789352      266.634667    ;  uncertainty theta = 0.002113, k = 0.043196
         4         3        27     1      120.186935      378.947720    ;  uncertainty theta = 0.005453, k = 0.153368
         4         5         6     1      120.609146      496.437831    ;  uncertainty theta = 0.002526, k = 0.069581
         4         5        32     1      120.428978      297.166723    ;  uncertainty theta = 0.002602, k = 0.051687
         5         4        31     1      120.371437      279.047729    ;  uncertainty theta = 0.001268, k = 0.056003
         5         6         7     1      120.141556      520.647266    ;  uncertainty theta = 0.002868, k = 0.173014
         5         6        26     1      119.209923      376.109334    ;  uncertainty theta = 0.004556, k = 0.077482
         6         5        32     1      119.329056      272.223703    ;  uncertainty theta = 0.002091, k = 0.062751
         6         7         8     1      116.337479      382.888191    ;  uncertainty theta = 0.003672, k = 0.174342
         6         7        33     1      114.329323      350.018069    ;  uncertainty theta = 0.004924, k = 0.223030
         6        26        27     1      120.609154      496.437831    ;  uncertainty theta = 0.002526, k = 0.069582
         6        26        42     1      119.329056      272.223703    ;  uncertainty theta = 0.002091, k = 0.062751
         7         6        26     1      120.141556      520.647202    ;  uncertainty theta = 0.002868, k = 0.173014
         7         8         9     1      122.101028      744.137513    ;  uncertainty theta = 0.006060, k = 0.183514
         7         8        16     1      118.389694      493.671492    ;  uncertainty theta = 0.006677, k = 0.107017
         8         7        33     1      116.994553      430.564506    ;  uncertainty theta = 0.006061, k = 0.204563
         8         9        10     1      121.081543      436.533806    ;  uncertainty theta = 0.009425, k = 0.261818
         8        16        12     1      111.142784      333.997874    ;  uncertainty theta = 0.012736, k = 0.456017
         8        16        15     1      125.515465      293.447945    ;  uncertainty theta = 0.008643, k = 0.324339
         9         8        16     1      122.405640      559.409789    ;  uncertainty theta = 0.006101, k = 0.247559
         9        10        11     1      124.529945      546.825995    ;  uncertainty theta = 0.003188, k = 0.249818
         9        10        17     1      117.266068      449.509754    ;  uncertainty theta = 0.001673, k = 0.093555
        10        11        12     1      117.545448      533.201245    ;  uncertainty theta = 0.004801, k = 0.198048
        10        11        34     1      124.661926      232.745215    ;  uncertainty theta = 0.008830, k = 0.220531
        10        17        18     1      119.027603      411.436892    ;  uncertainty theta = 0.003206, k = 0.096656
        10        17        25     1      119.097130      398.595621    ;  uncertainty theta = 0.002830, k = 0.193564
        11        10        17     1      121.495850      379.274084    ;  uncertainty theta = 0.004582, k = 0.073177
        11        12        13     1      129.660461      429.070873    ;  uncertainty theta = 0.002332, k = 0.325292
        11        12        16     1      117.456383      429.436979    ;  uncertainty theta = 0.007676, k = 0.177572
        12        11        34     1      117.405563      315.690512    ;  uncertainty theta = 0.003645, k = 0.141950
        12        13        14     1      105.324829      767.668044    ;  uncertainty theta = 0.004981, k = 0.189091
        12        13        35     1      119.539230      282.399762    ;  uncertainty theta = 0.002926, k = 0.163945
        12        16        15     1      114.523727      791.406958    ;  uncertainty theta = 0.003446, k = 0.159720
        13        12        16     1      106.195152      846.636320    ;  uncertainty theta = 0.003800, k = 0.266753
        13        14        15     1      111.223167      865.900238    ;  uncertainty theta = 0.003390, k = 0.157111
        13        14        36     1      125.339600      238.965624    ;  uncertainty theta = 0.004247, k = 0.092338
        14        13        35     1      130.781433      240.351858    ;  uncertainty theta = 0.003259, k = 0.025087
        14        15        16     1      106.065872      820.721453    ;  uncertainty theta = 0.001716, k = 0.145916
        15        14        36     1      119.156937      297.238833    ;  uncertainty theta = 0.004129, k = 0.152925
        17        18        19     1      123.016739      525.733939    ;  uncertainty theta = 0.003070, k = 0.077649
        17        18        37     1      117.874733      272.056881    ;  uncertainty theta = 0.003138, k = 0.063286
        17        25        24     1      116.866013      520.760715    ;  uncertainty theta = 0.004532, k = 0.170114
        17        25        41     1      119.930405      268.313652    ;  uncertainty theta = 0.002430, k = 0.106947
        18        17        25     1      123.809654      434.126710    ;  uncertainty theta = 0.003394, k = 0.121259
        18        19        20     1      118.929970      553.342236    ;  uncertainty theta = 0.002680, k = 0.060560
        18        19        38     1      120.653542      279.974630    ;  uncertainty theta = 0.001067, k = 0.066865
        19        18        37     1      119.509888      297.701821    ;  uncertainty theta = 0.002978, k = 0.036486
        19        20        21     1      132.278717      354.679422    ;  uncertainty theta = 0.004732, k = 0.185731
        19        20        24     1      116.909569      406.929752    ;  uncertainty theta = 0.004133, k = 0.092172
        20        19        38     1      121.803482      294.188936    ;  uncertainty theta = 0.000418, k = 0.134142
        20        21        22     1      112.801369      922.849971    ;  uncertainty theta = 0.002508, k = 0.102828
        20        21        39     1      126.617455      244.294835    ;  uncertainty theta = 0.003682, k = 0.151304
        20        24        23     1      105.521873      689.300082    ;  uncertainty theta = 0.003740, k = 0.125051
        20        24        25     1      121.842789      372.926740    ;  uncertainty theta = 0.004893, k = 0.200656
        21        20        24     1      103.430092      742.155068    ;  uncertainty theta = 0.005190, k = 0.108760
        21        22        23     1      108.574791      922.564020    ;  uncertainty theta = 0.002937, k = 0.116121
        22        21        39     1      118.543495      289.957533    ;  uncertainty theta = 0.002336, k = 0.058293
        22        23        24     1      109.065674      992.744593    ;  uncertainty theta = 0.003990, k = 0.161434
        22        23        40     1      108.465378      343.985566    ;  uncertainty theta = 0.006748, k = 0.092753
        23        24        25     1      129.650360      395.528709    ;  uncertainty theta = 0.003691, k = 0.176021
        24        23        40     1      116.092773      288.358048    ;  uncertainty theta = 0.006888, k = 0.111410
        24        25        41     1      122.512741      295.371464    ;  uncertainty theta = 0.001496, k = 0.111125
        26        27        43     1      120.371437      279.047761    ;  uncertainty theta = 0.001268, k = 0.056003
        27        26        42     1      120.428978      297.166691    ;  uncertainty theta = 0.002602, k = 0.051687
        28         1        29     1      109.081810      330.154316    ;  uncertainty theta = 0.001818, k = 0.013784
        28         1        30     1      109.081810      330.154316    ;  uncertainty theta = 0.001818, k = 0.013784
        29         1        30     1      109.081810      330.154316    ;  uncertainty theta = 0.001818, k = 0.013784

[ dihedrals ] ; propers for gromacs 4.5 or higher, use funct 9
;       ai        aj        ak        al funct           phase               k        pn
         1         2         3         4     9        0.000000        0.532265         1    ;  uncertainty k = 0.614530
         1         2         3         4     9      180.000000        7.248504         2    ;  uncertainty k = 0.116310
         1         2         3         4     9        0.000000        0.694153         3    ;  uncertainty k = 0.104681
         1         2         3         4     9      180.000000        0.334906         4    ;  uncertainty k = 0.047403
         1         2         3        27     9        0.000000        0.532265         1    ;  uncertainty k = 0.614531
         1         2         3        27     9      180.000000        7.248504         2    ;  uncertainty k = 0.116311
         1         2         3        27     9        0.000000        0.694154         3    ;  uncertainty k = 0.104680
         1         2         3        27     9      180.000000        0.334906         4    ;  uncertainty k = 0.047403
         2         3         4         5     9        0.000000        0.007569         1    ;  uncertainty k = 0.328830
         2         3         4         5     9      180.000000       10.164426         2    ;  uncertainty k = 0.417946
         2         3         4         5     9        0.000000        1.201101         3    ;  uncertainty k = 0.299334
         2         3         4         5     9      180.000000        1.582609         4    ;  uncertainty k = 0.135060
         2         3         4        31     9        0.000000       -0.196105         1    ;  uncertainty k = 0.270476
         2         3         4        31     9      180.000000        8.134445         2    ;  uncertainty k = 0.274487
         2         3         4        31     9        0.000000        0.682135         3    ;  uncertainty k = 0.130131
         2         3         4        31     9      180.000000        0.959557         4    ;  uncertainty k = 0.210281
         2         3        27        26     9        0.000000        0.007568         1    ;  uncertainty k = 0.328830
         2         3        27        26     9      180.000000       10.164426         2    ;  uncertainty k = 0.417947
         2         3        27        26     9        0.000000        1.201101         3    ;  uncertainty k = 0.299334
         2         3        27        26     9      180.000000        1.582609         4    ;  uncertainty k = 0.135060
         2         3        27        43     9        0.000000       -0.196106         1    ;  uncertainty k = 0.270475
         2         3        27        43     9      180.000000        8.134446         2    ;  uncertainty k = 0.274486
         2         3        27        43     9        0.000000        0.682135         3    ;  uncertainty k = 0.130131
         2         3        27        43     9      180.000000        0.959557         4    ;  uncertainty k = 0.210281
         3         2         1        28     9        0.000000        0.668802         1    ;  uncertainty k = 0.252257
         3         2         1        28     9      180.000000       -1.435275         2    ;  uncertainty k = 0.104505
         3         2         1        28     9        0.000000        0.947036         3    ;  uncertainty k = 0.052269
         3         2         1        28     9      180.000000        0.293012         4    ;  uncertainty k = 0.066295
         3         2         1        29     9        0.000000        0.668802         1    ;  uncertainty k = 0.252257
         3         2         1        29     9      180.000000       -1.435275         2    ;  uncertainty k = 0.104505
         3         2         1        29     9        0.000000        0.947036         3    ;  uncertainty k = 0.052269
         3         2         1        29     9      180.000000        0.293012         4    ;  uncertainty k = 0.066295
         3         2         1        30     9        0.000000        0.668802         1    ;  uncertainty k = 0.252257
         3         2         1        30     9      180.000000       -1.435275         2    ;  uncertainty k = 0.104505
         3         2         1        30     9        0.000000        0.947036         3    ;  uncertainty k = 0.052269
         3         2         1        30     9      180.000000        0.293012         4    ;  uncertainty k = 0.066295
         3         4         5         6     9        0.000000       -0.220884         1    ;  uncertainty k = 0.077946
         3         4         5         6     9      180.000000       13.877523         2    ;  uncertainty k = 0.240068
         3         4         5         6     9        0.000000       -0.644538         3    ;  uncertainty k = 0.465093
         3         4         5         6     9      180.000000        0.847160         4    ;  uncertainty k = 0.281335
         3         4         5        32     9        0.000000       -0.012428         1    ;  uncertainty k = 0.310990
         3         4         5        32     9      180.000000        8.320570         2    ;  uncertainty k = 0.138310
         3         4         5        32     9        0.000000        1.213981         3    ;  uncertainty k = 0.377411
         3         4         5        32     9      180.000000        1.776185         4    ;  uncertainty k = 0.063379
         3        27        26         6     9        0.000000       -0.220886         1    ;  uncertainty k = 0.077946
         3        27        26         6     9      180.000000       13.877520         2    ;  uncertainty k = 0.240068
         3        27        26         6     9        0.000000       -0.644538         3    ;  uncertainty k = 0.465093
         3        27        26         6     9      180.000000        0.847161         4    ;  uncertainty k = 0.281335
         3        27        26        42     9        0.000000       -0.012428         1    ;  uncertainty k = 0.310989
         3        27        26        42     9      180.000000        8.320572         2    ;  uncertainty k = 0.138310
         3        27        26        42     9        0.000000        1.213981         3    ;  uncertainty k = 0.377411
         3        27        26        42     9      180.000000        1.776185         4    ;  uncertainty k = 0.063378
         4         3        27        26     9        0.000000       -0.077133         1    ;  uncertainty k = 0.212958
         4         3        27        26     9      180.000000        8.946048         2    ;  uncertainty k = 0.595169
         4         3        27        26     9        0.000000       -0.071642         3    ;  uncertainty k = 0.305394
         4         3        27        26     9      180.000000        1.166635         4    ;  uncertainty k = 0.298478
         4         3        27        43     9        0.000000        0.150530         1    ;  uncertainty k = 0.287637
         4         3        27        43     9      180.000000        5.860300         2    ;  uncertainty k = 0.506128
         4         3        27        43     9        0.000000        1.380817         3    ;  uncertainty k = 0.344287
         4         3        27        43     9      180.000000        1.531439         4    ;  uncertainty k = 0.135250
         4         5         6         7     9        0.000000        0.050329         1    ;  uncertainty k = 0.478320
         4         5         6         7     9      180.000000        9.496222         2    ;  uncertainty k = 0.365285
         4         5         6         7     9        0.000000        0.967154         3    ;  uncertainty k = 0.329687
         4         5         6         7     9      180.000000        1.567586         4    ;  uncertainty k = 0.189502
         4         5         6        26     9        0.000000       -0.026526         1    ;  uncertainty k = 0.124242
         4         5         6        26     9      180.000000        9.110114         2    ;  uncertainty k = 0.302811
         4         5         6        26     9        0.000000       -0.099105         3    ;  uncertainty k = 0.133449
         4         5         6        26     9      180.000000        1.177252         4    ;  uncertainty k = 0.252573
         5         4         3        27     9        0.000000       -0.077134         1    ;  uncertainty k = 0.212956
         5         4         3        27     9      180.000000        8.946049         2    ;  uncertainty k = 0.595169
         5         4         3        27     9        0.000000       -0.071642         3    ;  uncertainty k = 0.305395
         5         4         3        27     9      180.000000        1.166635         4    ;  uncertainty k = 0.298479
         5         6         7         8     9        0.000000        1.823759         1    ;  uncertainty k = 0.753852
         5         6         7         8     9      180.000000        5.356414         2    ;  uncertainty k = 0.089547
         5         6         7         8     9        0.000000        0.916052         3    ;  uncertainty k = 0.212753
         5         6         7         8     9      180.000000        0.226544         4    ;  uncertainty k = 0.096795
         5         6         7        33     9        0.000000        2.564448         1    ;  uncertainty k = 0.544821
         5         6         7        33     9      180.000000        4.111243         2    ;  uncertainty k = 0.267338
         5         6         7        33     9        0.000000        0.658338         3    ;  uncertainty k = 0.138301
         5         6         7        33     9      180.000000        0.444281         4    ;  uncertainty k = 0.052348
         5         6        26        27     9        0.000000       -0.026525         1    ;  uncertainty k = 0.124241
         5         6        26        27     9      180.000000        9.110113         2    ;  uncertainty k = 0.302811
         5         6        26        27     9        0.000000       -0.099104         3    ;  uncertainty k = 0.133450
         5         6        26        27     9      180.000000        1.177252         4    ;  uncertainty k = 0.252573
         5         6        26        42     9        0.000000        0.040024         1    ;  uncertainty k = 0.282611
         5         6        26        42     9      180.000000        6.347037         2    ;  uncertainty k = 0.720262
         5         6        26        42     9        0.000000        1.244476         3    ;  uncertainty k = 0.278344
         5         6        26        42     9      180.000000        1.459252         4    ;  uncertainty k = 0.133146
         6         5         4        31     9        0.000000       -0.014379         1    ;  uncertainty k = 0.190178
         6         5         4        31     9      180.000000        8.269614         2    ;  uncertainty k = 0.357564
         6         5         4        31     9        0.000000        1.315469         3    ;  uncertainty k = 0.294944
         6         5         4        31     9      180.000000        1.664089         4    ;  uncertainty k = 0.129783
         6         7         8         9     9        0.000000        4.114728         1    ;  uncertainty k = 1.260942
         6         7         8         9     9      180.000000       10.588897         2    ;  uncertainty k = 0.217569
         6         7         8         9     9        0.000000        0.705118         3    ;  uncertainty k = 0.308032
         6         7         8         9     9      180.000000       -0.484629         4    ;  uncertainty k = 0.040692
         6         7         8        16     9        0.000000        6.987392         1    ;  uncertainty k = 0.531897
         6         7         8        16     9      180.000000        8.596736         2    ;  uncertainty k = 0.128787
         6         7         8        16     9        0.000000        0.928920         3    ;  uncertainty k = 0.366901
         6         7         8        16     9      180.000000       -0.138638         4    ;  uncertainty k = 0.194065
         6        26        27        43     9        0.000000       -0.014378         1    ;  uncertainty k = 0.190178
         6        26        27        43     9      180.000000        8.269615         2    ;  uncertainty k = 0.357564
         6        26        27        43     9        0.000000        1.315469         3    ;  uncertainty k = 0.294946
         6        26        27        43     9      180.000000        1.664089         4    ;  uncertainty k = 0.129783
         7         6         5        32     9        0.000000       -0.275772         1    ;  uncertainty k = 0.232959
         7         6         5        32     9      180.000000        7.903455         2    ;  uncertainty k = 0.249561
         7         6         5        32     9        0.000000        0.893543         3    ;  uncertainty k = 0.194739
         7         6         5        32     9      180.000000        1.086978         4    ;  uncertainty k = 0.161106
         7         6        26        27     9        0.000000        0.050328         1    ;  uncertainty k = 0.478319
         7         6        26        27     9      180.000000        9.496223         2    ;  uncertainty k = 0.365286
         7         6        26        27     9        0.000000        0.967154         3    ;  uncertainty k = 0.329687
         7         6        26        27     9      180.000000        1.567586         4    ;  uncertainty k = 0.189502
         7         6        26        42     9        0.000000       -0.275768         1    ;  uncertainty k = 0.232959
         7         6        26        42     9      180.000000        7.903457         2    ;  uncertainty k = 0.249562
         7         6        26        42     9        0.000000        0.893544         3    ;  uncertainty k = 0.194739
         7         6        26        42     9      180.000000        1.086978         4    ;  uncertainty k = 0.161107
         7         8         9        10     9        0.000000        1.094677         1    ;  uncertainty k = 1.061918
         7         8         9        10     9      180.000000       18.029313         2    ;  uncertainty k = 0.463163
         7         8         9        10     9        0.000000        2.921584         3    ;  uncertainty k = 0.300070
         7         8         9        10     9      180.000000        1.660946         4    ;  uncertainty k = 0.300808
         7         8        16        12     9        0.000000       -0.935144         1    ;  uncertainty k = 0.961490
         7         8        16        12     9      180.000000        5.420647         2    ;  uncertainty k = 0.735007
         7         8        16        12     9        0.000000        0.466482         3    ;  uncertainty k = 0.276418
         7         8        16        12     9      180.000000        0.426563         4    ;  uncertainty k = 0.145930
         7         8        16        15     9        0.000000       -0.723521         1    ;  uncertainty k = 0.720899
         7         8        16        15     9      180.000000        4.573870         2    ;  uncertainty k = 1.073141
         7         8        16        15     9        0.000000        0.567897         3    ;  uncertainty k = 0.420061
         7         8        16        15     9      180.000000        0.320348         4    ;  uncertainty k = 0.222145
         8         7         6        26     9        0.000000        1.823759         1    ;  uncertainty k = 0.753852
         8         7         6        26     9      180.000000        5.356413         2    ;  uncertainty k = 0.089546
         8         7         6        26     9        0.000000        0.916052         3    ;  uncertainty k = 0.212753
         8         7         6        26     9      180.000000        0.226544         4    ;  uncertainty k = 0.096795
         8         9        10        11     9        0.000000        1.017504         1    ;  uncertainty k = 1.516360
         8         9        10        11     9      180.000000        5.410036         2    ;  uncertainty k = 1.406424
         8         9        10        11     9        0.000000        1.183504         3    ;  uncertainty k = 0.850444
         8         9        10        11     9      180.000000        0.501686         4    ;  uncertainty k = 0.531969
         8         9        10        17     9        0.000000        1.001242         1    ;  uncertainty k = 1.290635
         8         9        10        17     9      180.000000        8.728254         2    ;  uncertainty k = 0.911473
         8         9        10        17     9        0.000000        1.568762         3    ;  uncertainty k = 0.631592
         8         9        10        17     9      180.000000        0.401595         4    ;  uncertainty k = 0.332617
         8        16        12        11     9        0.000000       -0.065679         1    ;  uncertainty k = 0.930309
         8        16        12        11     9      180.000000        5.131901         2    ;  uncertainty k = 1.526753
         8        16        12        11     9        0.000000        1.363593         3    ;  uncertainty k = 0.467515
         8        16        12        11     9      180.000000        0.395973         4    ;  uncertainty k = 0.312049
         8        16        12        13     9        0.000000        0.340421         1    ;  uncertainty k = 0.792595
         8        16        12        13     9      180.000000        6.024515         2    ;  uncertainty k = 0.492566
         8        16        12        13     9        0.000000        0.209998         3    ;  uncertainty k = 0.527723
         8        16        12        13     9      180.000000        0.585310         4    ;  uncertainty k = 0.374830
         8        16        15        14     9        0.000000       -0.258736         1    ;  uncertainty k = 0.813751
         8        16        15        14     9      180.000000       16.417004         2    ;  uncertainty k = 0.455553
         8        16        15        14     9        0.000000        0.694004         3    ;  uncertainty k = 0.637623
         8        16        15        14     9      180.000000        1.345365         4    ;  uncertainty k = 0.597909
         9         8         7        33     9        0.000000        8.943457         1    ;  uncertainty k = 0.591276
         9         8         7        33     9      180.000000        9.687470         2    ;  uncertainty k = 0.280063
         9         8         7        33     9        0.000000        1.090516         3    ;  uncertainty k = 0.309511
         9         8         7        33     9      180.000000       -0.065768         4    ;  uncertainty k = 0.148565
         9         8        16        12     9        0.000000       -0.508120         1    ;  uncertainty k = 0.649583
         9         8        16        12     9      180.000000        6.006908         2    ;  uncertainty k = 0.721136
         9         8        16        12     9        0.000000       -0.359701         3    ;  uncertainty k = 0.319120
         9         8        16        12     9      180.000000        0.564109         4    ;  uncertainty k = 0.160688
         9         8        16        15     9        0.000000       -1.431194         1    ;  uncertainty k = 2.218090
         9         8        16        15     9      180.000000        4.468096         2    ;  uncertainty k = 0.589322
         9         8        16        15     9        0.000000        0.454907         3    ;  uncertainty k = 0.408290
         9         8        16        15     9      180.000000        0.386347         4    ;  uncertainty k = 0.295938
         9        10        11        12     9        0.000000        0.021628         1    ;  uncertainty k = 0.553837
         9        10        11        12     9      180.000000       21.308096         2    ;  uncertainty k = 0.618902
         9        10        11        12     9        0.000000        0.542129         3    ;  uncertainty k = 0.330363
         9        10        11        12     9      180.000000        0.532400         4    ;  uncertainty k = 0.522570
         9        10        11        34     9        0.000000        0.413530         1    ;  uncertainty k = 1.053393
         9        10        11        34     9      180.000000       12.778725         2    ;  uncertainty k = 0.373644
         9        10        11        34     9        0.000000        1.633797         3    ;  uncertainty k = 0.611850
         9        10        11        34     9      180.000000        1.088488         4    ;  uncertainty k = 0.439227
         9        10        17        18     9        0.000000       -0.628626         1    ;  uncertainty k = 1.518760
         9        10        17        18     9      180.000000        5.052242         2    ;  uncertainty k = 0.325806
         9        10        17        18     9        0.000000        0.583181         3    ;  uncertainty k = 0.127910
         9        10        17        18     9      180.000000        0.120920         4    ;  uncertainty k = 0.102121
         9        10        17        25     9        0.000000       -0.766604         1    ;  uncertainty k = 0.919108
         9        10        17        25     9      180.000000        4.899228         2    ;  uncertainty k = 0.217939
         9        10        17        25     9        0.000000        0.251595         3    ;  uncertainty k = 0.135564
         9        10        17        25     9      180.000000        0.082027         4    ;  uncertainty k = 0.123430
        10         9         8        16     9        0.000000       -0.097990         1    ;  uncertainty k = 2.188335
        10         9         8        16     9      180.000000       13.736996         2    ;  uncertainty k = 0.596844
        10         9         8        16     9        0.000000        2.511290         3    ;  uncertainty k = 0.854062
        10         9         8        16     9      180.000000        1.344029         4    ;  uncertainty k = 0.393277
        10        11        12        13     9        0.000000        0.387181         1    ;  uncertainty k = 1.514247
        10        11        12        13     9      180.000000        4.670308         2    ;  uncertainty k = 0.661014
        10        11        12        13     9        0.000000        0.721864         3    ;  uncertainty k = 0.341868
        10        11        12        13     9      180.000000        0.327281         4    ;  uncertainty k = 0.086812
        10        11        12        16     9        0.000000       -0.099694         1    ;  uncertainty k = 1.661026
        10        11        12        16     9      180.000000        6.351588         2    ;  uncertainty k = 0.533147
        10        11        12        16     9        0.000000       -0.869395         3    ;  uncertainty k = 0.839908
        10        11        12        16     9      180.000000        0.595359         4    ;  uncertainty k = 0.141779
        10        17        18        19     9        0.000000        0.068897         1    ;  uncertainty k = 0.215292
        10        17        18        19     9      180.000000        7.691152         2    ;  uncertainty k = 0.666200
        10        17        18        19     9        0.000000        1.290426         3    ;  uncertainty k = 0.312196
        10        17        18        19     9      180.000000        1.752418         4    ;  uncertainty k = 0.200484
        10        17        18        37     9        0.000000       -0.141044         1    ;  uncertainty k = 0.221408
        10        17        18        37     9      180.000000        6.709611         2    ;  uncertainty k = 0.380861
        10        17        18        37     9        0.000000        0.642981         3    ;  uncertainty k = 0.210089
        10        17        18        37     9      180.000000        1.030651         4    ;  uncertainty k = 0.217591
        10        17        25        24     9        0.000000        0.000207         1    ;  uncertainty k = 0.464893
        10        17        25        24     9      180.000000       11.593241         2    ;  uncertainty k = 0.463797
        10        17        25        24     9        0.000000        1.506096         3    ;  uncertainty k = 0.271513
        10        17        25        24     9      180.000000        1.554865         4    ;  uncertainty k = 0.288141
        10        17        25        41     9        0.000000       -0.122720         1    ;  uncertainty k = 0.281943
        10        17        25        41     9      180.000000        7.836517         2    ;  uncertainty k = 0.236328
        10        17        25        41     9        0.000000        0.688202         3    ;  uncertainty k = 0.200003
        10        17        25        41     9      180.000000        1.091534         4    ;  uncertainty k = 0.143245
        11        10        17        18     9        0.000000       -0.057218         1    ;  uncertainty k = 0.349503
        11        10        17        18     9      180.000000        3.916624         2    ;  uncertainty k = 0.545493
        11        10        17        18     9        0.000000        0.619050         3    ;  uncertainty k = 0.176087
        11        10        17        18     9      180.000000       -0.314910         4    ;  uncertainty k = 0.160497
        11        10        17        25     9        0.000000        0.027964         1    ;  uncertainty k = 0.248734
        11        10        17        25     9      180.000000        3.790324         2    ;  uncertainty k = 0.442273
        11        10        17        25     9        0.000000        0.910899         3    ;  uncertainty k = 0.183968
        11        10        17        25     9      180.000000       -0.341866         4    ;  uncertainty k = 0.189715
        11        12        13        14     9        0.000000        0.238879         1    ;  uncertainty k = 1.268059
        11        12        13        14     9      180.000000        9.618342         2    ;  uncertainty k = 0.775422
        11        12        13        14     9        0.000000        0.407411         3    ;  uncertainty k = 0.759266
        11        12        13        14     9      180.000000        0.559103         4    ;  uncertainty k = 0.314044
        11        12        13        35     9        0.000000        0.591128         1    ;  uncertainty k = 1.266310
        11        12        13        35     9      180.000000        2.793743         2    ;  uncertainty k = 1.401654
        11        12        13        35     9        0.000000        1.235888         3    ;  uncertainty k = 0.395832
        11        12        13        35     9      180.000000        0.135474         4    ;  uncertainty k = 0.120547
        11        12        16        15     9        0.000000        0.318033         1    ;  uncertainty k = 0.549936
        11        12        16        15     9      180.000000        8.739854         2    ;  uncertainty k = 0.549403
        11        12        16        15     9        0.000000        0.448820         3    ;  uncertainty k = 0.411752
        11        12        16        15     9      180.000000        0.878822         4    ;  uncertainty k = 0.217911
        12        11        10        17     9        0.000000        0.576730         1    ;  uncertainty k = 0.305749
        12        11        10        17     9      180.000000       17.337469         2    ;  uncertainty k = 0.521845
        12        11        10        17     9        0.000000        1.919282         3    ;  uncertainty k = 0.425533
        12        11        10        17     9      180.000000        0.788516         4    ;  uncertainty k = 0.297652
        12        13        14        15     9        0.000000       -0.424259         1    ;  uncertainty k = 0.720471
        12        13        14        15     9      180.000000       21.948844         2    ;  uncertainty k = 0.272817
        12        13        14        15     9        0.000000       -9.453916         3    ;  uncertainty k = 0.408148
        12        13        14        15     9      180.000000        1.578950         4    ;  uncertainty k = 0.654473
        12        13        14        36     9        0.000000        0.427383         1    ;  uncertainty k = 0.828520
        12        13        14        36     9      180.000000       13.870596         2    ;  uncertainty k = 0.182398
        12        13        14        36     9        0.000000        1.815389         3    ;  uncertainty k = 0.320274
        12        13        14        36     9      180.000000        0.903574         4    ;  uncertainty k = 0.223947
        12        16        15        14     9        0.000000       -0.698106         1    ;  uncertainty k = 0.543243
        12        16        15        14     9      180.000000       23.970051         2    ;  uncertainty k = 0.495895
        12        16        15        14     9        0.000000      -11.206153         3    ;  uncertainty k = 1.161985
        12        16        15        14     9      180.000000        1.981051         4    ;  uncertainty k = 0.603215
        13        12        11        34     9        0.000000        1.230264         1    ;  uncertainty k = 1.227408
        13        12        11        34     9      180.000000        2.935755         2    ;  uncertainty k = 1.100422
        13        12        11        34     9        0.000000        1.028872         3    ;  uncertainty k = 0.513157
        13        12        11        34     9      180.000000        0.182735         4    ;  uncertainty k = 0.171564
        13        12        16        15     9        0.000000       -0.600194         1    ;  uncertainty k = 0.427509
        13        12        16        15     9      180.000000       12.032075         2    ;  uncertainty k = 0.540572
        13        12        16        15     9        0.000000       -4.884606         3    ;  uncertainty k = 1.243656
        13        12        16        15     9      180.000000        1.176890         4    ;  uncertainty k = 0.463084
        13        14        15        16     9        0.000000       -0.719371         1    ;  uncertainty k = 0.806440
        13        14        15        16     9      180.000000       16.306391         2    ;  uncertainty k = 0.372137
        13        14        15        16     9        0.000000       -5.546726         3    ;  uncertainty k = 0.784851
        13        14        15        16     9      180.000000        2.138755         4    ;  uncertainty k = 0.319469
        14        13        12        16     9        0.000000        0.425340         1    ;  uncertainty k = 0.911889
        14        13        12        16     9      180.000000       13.121731         2    ;  uncertainty k = 1.266973
        14        13        12        16     9        0.000000      -13.119121         3    ;  uncertainty k = 1.817832
        14        13        12        16     9      180.000000        1.693366         4    ;  uncertainty k = 0.377703
        15        14        13        35     9        0.000000       -0.210816         1    ;  uncertainty k = 0.409318
        15        14        13        35     9      180.000000       14.525460         2    ;  uncertainty k = 0.474526
        15        14        13        35     9        0.000000        1.399987         3    ;  uncertainty k = 0.472591
        15        14        13        35     9      180.000000        0.597840         4    ;  uncertainty k = 0.116226
        16         8         7        33     9        0.000000        5.300790         1    ;  uncertainty k = 1.095310
        16         8         7        33     9      180.000000        6.151860         2    ;  uncertainty k = 0.321337
        16         8         7        33     9        0.000000        1.372350         3    ;  uncertainty k = 0.427877
        16         8         7        33     9      180.000000       -0.022341         4    ;  uncertainty k = 0.217792
        16        12        11        34     9        0.000000        1.226557         1    ;  uncertainty k = 1.441980
        16        12        11        34     9      180.000000        4.293775         2    ;  uncertainty k = 0.542296
        16        12        11        34     9        0.000000        1.116225         3    ;  uncertainty k = 0.349206
        16        12        11        34     9      180.000000        0.197252         4    ;  uncertainty k = 0.128616
        16        12        13        35     9        0.000000        0.337817         1    ;  uncertainty k = 0.998519
        16        12        13        35     9      180.000000        7.392009         2    ;  uncertainty k = 0.385665
        16        12        13        35     9        0.000000        1.061986         3    ;  uncertainty k = 0.365240
        16        12        13        35     9      180.000000        0.171584         4    ;  uncertainty k = 0.281011
        16        15        14        36     9        0.000000       -0.095582         1    ;  uncertainty k = 0.393923
        16        15        14        36     9      180.000000       14.177386         2    ;  uncertainty k = 0.352374
        16        15        14        36     9        0.000000        1.588169         3    ;  uncertainty k = 0.688228
        16        15        14        36     9      180.000000        0.904862         4    ;  uncertainty k = 0.448977
        17        10        11        34     9        0.000000       -0.219214         1    ;  uncertainty k = 0.332985
        17        10        11        34     9      180.000000        9.215237         2    ;  uncertainty k = 0.441043
        17        10        11        34     9        0.000000        1.515665         3    ;  uncertainty k = 0.270368
        17        10        11        34     9      180.000000        0.995306         4    ;  uncertainty k = 0.143311
        17        18        19        20     9        0.000000        0.036572         1    ;  uncertainty k = 0.331158
        17        18        19        20     9      180.000000       16.840932         2    ;  uncertainty k = 0.256778
        17        18        19        20     9        0.000000       -0.285123         3    ;  uncertainty k = 0.467322
        17        18        19        20     9      180.000000        0.632981         4    ;  uncertainty k = 0.299892
        17        18        19        38     9        0.000000       -0.036442         1    ;  uncertainty k = 0.215492
        17        18        19        38     9      180.000000        8.973969         2    ;  uncertainty k = 0.439173
        17        18        19        38     9        0.000000        1.439949         3    ;  uncertainty k = 0.248957
        17        18        19        38     9      180.000000        1.896736         4    ;  uncertainty k = 0.257135
        17        25        24        20     9        0.000000       -0.198172         1    ;  uncertainty k = 0.398265
        17        25        24        20     9      180.000000       12.419193         2    ;  uncertainty k = 0.132303
        17        25        24        20     9        0.000000       -1.380873         3    ;  uncertainty k = 0.530178
        17        25        24        20     9      180.000000        0.756409         4    ;  uncertainty k = 0.234868
        17        25        24        23     9        0.000000        0.161251         1    ;  uncertainty k = 0.187507
        17        25        24        23     9      180.000000       10.407056         2    ;  uncertainty k = 0.716704
        17        25        24        23     9        0.000000        0.894492         3    ;  uncertainty k = 0.361046
        17        25        24        23     9      180.000000        1.248653         4    ;  uncertainty k = 0.351138
        18        17        25        24     9        0.000000        0.050053         1    ;  uncertainty k = 0.216230
        18        17        25        24     9      180.000000       13.680778         2    ;  uncertainty k = 0.248895
        18        17        25        24     9        0.000000        0.002234         3    ;  uncertainty k = 0.286610
        18        17        25        24     9      180.000000        0.895120         4    ;  uncertainty k = 0.337935
        18        17        25        41     9        0.000000        0.247218         1    ;  uncertainty k = 0.158863
        18        17        25        41     9      180.000000        7.919297         2    ;  uncertainty k = 0.573084
        18        17        25        41     9        0.000000        1.544085         3    ;  uncertainty k = 0.138737
        18        17        25        41     9      180.000000        1.705629         4    ;  uncertainty k = 0.254640
        18        19        20        21     9        0.000000        0.312960         1    ;  uncertainty k = 0.413870
        18        19        20        21     9      180.000000        8.161813         2    ;  uncertainty k = 0.408100
        18        19        20        21     9        0.000000        0.680187         3    ;  uncertainty k = 0.316207
        18        19        20        21     9      180.000000        1.318401         4    ;  uncertainty k = 0.118210
        18        19        20        24     9        0.000000        0.024027         1    ;  uncertainty k = 0.234713
        18        19        20        24     9      180.000000       13.393022         2    ;  uncertainty k = 0.123364
        18        19        20        24     9        0.000000       -1.965306         3    ;  uncertainty k = 0.693199
        18        19        20        24     9      180.000000        0.688655         4    ;  uncertainty k = 0.252291
        19        18        17        25     9        0.000000       -0.064850         1    ;  uncertainty k = 0.238097
        19        18        17        25     9      180.000000        8.627471         2    ;  uncertainty k = 0.426027
        19        18        17        25     9        0.000000       -0.116894         3    ;  uncertainty k = 0.347151
        19        18        17        25     9      180.000000        1.107068         4    ;  uncertainty k = 0.235544
        19        20        21        22     9        0.000000        0.545698         1    ;  uncertainty k = 0.710680
        19        20        21        22     9      180.000000        7.153060         2    ;  uncertainty k = 0.604346
        19        20        21        22     9        0.000000       -0.042578         3    ;  uncertainty k = 0.385672
        19        20        21        22     9      180.000000        1.038495         4    ;  uncertainty k = 0.212607
        19        20        21        39     9        0.000000        0.564420         1    ;  uncertainty k = 0.984440
        19        20        21        39     9      180.000000        3.627038         2    ;  uncertainty k = 0.844669
        19        20        21        39     9        0.000000        1.294258         3    ;  uncertainty k = 0.243708
        19        20        21        39     9      180.000000        0.092482         4    ;  uncertainty k = 0.127683
        19        20        24        23     9        0.000000       -0.063131         1    ;  uncertainty k = 0.386313
        19        20        24        23     9      180.000000        8.412510         2    ;  uncertainty k = 0.121050
        19        20        24        23     9        0.000000       -0.287403         3    ;  uncertainty k = 0.440323
        19        20        24        23     9      180.000000        1.255913         4    ;  uncertainty k = 0.401647
        19        20        24        25     9        0.000000       -0.562856         1    ;  uncertainty k = 0.745394
        19        20        24        25     9      180.000000        7.458514         2    ;  uncertainty k = 0.459216
        19        20        24        25     9        0.000000        0.136454         3    ;  uncertainty k = 0.199056
        19        20        24        25     9      180.000000        1.050165         4    ;  uncertainty k = 0.325664
        20        19        18        37     9        0.000000        0.020909         1    ;  uncertainty k = 0.300364
        20        19        18        37     9      180.000000       11.611134         2    ;  uncertainty k = 0.328467
        20        19        18        37     9        0.000000        1.514345         3    ;  uncertainty k = 0.287097
        20        19        18        37     9      180.000000        1.729218         4    ;  uncertainty k = 0.314044
        20        21        22        23     9        0.000000       -0.120150         1    ;  uncertainty k = 0.731968
        20        21        22        23     9      180.000000       26.305457         2    ;  uncertainty k = 0.190420
        20        21        22        23     9        0.000000       -5.118996         3    ;  uncertainty k = 1.092191
        20        21        22        23     9      180.000000        1.921340         4    ;  uncertainty k = 0.544335
        20        24        23        22     9        0.000000        0.445887         1    ;  uncertainty k = 0.538505
        20        24        23        22     9      180.000000       17.377662         2    ;  uncertainty k = 0.937306
        20        24        23        22     9        0.000000       -8.620329         3    ;  uncertainty k = 1.375362
        20        24        23        22     9      180.000000        0.798738         4    ;  uncertainty k = 0.449854
        20        24        23        40     9        0.000000        4.597757         1    ;  uncertainty k = 2.148015
        20        24        23        40     9      180.000000        5.842092         2    ;  uncertainty k = 1.205206
        20        24        23        40     9        0.000000        1.417089         3    ;  uncertainty k = 0.198827
        20        24        23        40     9      180.000000        0.079654         4    ;  uncertainty k = 0.179784
        20        24        25        41     9        0.000000        0.013418         1    ;  uncertainty k = 0.418706
        20        24        25        41     9      180.000000        6.790814         2    ;  uncertainty k = 1.175804
        20        24        25        41     9        0.000000        1.352570         3    ;  uncertainty k = 0.132010
        20        24        25        41     9      180.000000        1.195216         4    ;  uncertainty k = 0.438465
        21        20        19        38     9        0.000000        0.217395         1    ;  uncertainty k = 0.480879
        21        20        19        38     9      180.000000        5.634350         2    ;  uncertainty k = 0.518608
        21        20        19        38     9        0.000000        1.012531         3    ;  uncertainty k = 0.158569
        21        20        19        38     9      180.000000        0.531503         4    ;  uncertainty k = 0.245181
        21        20        24        23     9        0.000000       -0.643775         1    ;  uncertainty k = 0.381050
        21        20        24        23     9      180.000000       11.992310         2    ;  uncertainty k = 0.969249
        21        20        24        23     9        0.000000       -3.882657         3    ;  uncertainty k = 1.450461
        21        20        24        23     9      180.000000        1.660888         4    ;  uncertainty k = 0.668480
        21        20        24        25     9        0.000000        0.241076         1    ;  uncertainty k = 0.298478
        21        20        24        25     9      180.000000        6.850321         2    ;  uncertainty k = 0.103680
        21        20        24        25     9        0.000000        0.207085         3    ;  uncertainty k = 0.461047
        21        20        24        25     9      180.000000        1.308351         4    ;  uncertainty k = 0.339157
        21        22        23        24     9        0.000000        0.010606         1    ;  uncertainty k = 0.662708
        21        22        23        24     9      180.000000       18.143360         2    ;  uncertainty k = 0.626429
        21        22        23        24     9        0.000000       -5.124361         3    ;  uncertainty k = 1.731977
        21        22        23        24     9      180.000000        1.047796         4    ;  uncertainty k = 0.635563
        21        22        23        40     9        0.000000        4.250976         1    ;  uncertainty k = 1.972130
        21        22        23        40     9      180.000000       14.221018         2    ;  uncertainty k = 0.376681
        21        22        23        40     9        0.000000        1.503735         3    ;  uncertainty k = 1.418968
        21        22        23        40     9      180.000000       -0.516135         4    ;  uncertainty k = 0.508752
        22        21        20        24     9        0.000000        0.359306         1    ;  uncertainty k = 0.778422
        22        21        20        24     9      180.000000       13.632398         2    ;  uncertainty k = 1.052808
        22        21        20        24     9        0.000000      -12.345143         3    ;  uncertainty k = 2.648213
        22        21        20        24     9      180.000000        2.230091         4    ;  uncertainty k = 0.628090
        22        23        24        25     9        0.000000        1.000030         1    ;  uncertainty k = 0.963977
        22        23        24        25     9      180.000000        6.598531         2    ;  uncertainty k = 0.456533
        22        23        24        25     9        0.000000        0.523615         3    ;  uncertainty k = 0.549525
        22        23        24        25     9      180.000000        0.305440         4    ;  uncertainty k = 0.151087
        23        22        21        39     9        0.000000        0.518235         1    ;  uncertainty k = 0.650449
        23        22        21        39     9      180.000000       24.335930         2    ;  uncertainty k = 0.403779
        23        22        21        39     9        0.000000        1.548245         3    ;  uncertainty k = 0.953165
        23        22        21        39     9      180.000000        1.092166         4    ;  uncertainty k = 0.377302
        23        24        25        41     9        0.000000        0.314928         1    ;  uncertainty k = 0.315515
        23        24        25        41     9      180.000000        5.699468         2    ;  uncertainty k = 0.975196
        23        24        25        41     9        0.000000        1.146584         3    ;  uncertainty k = 0.270923
        23        24        25        41     9      180.000000        0.857597         4    ;  uncertainty k = 0.459903
        24        20        19        38     9        0.000000       -0.020110         1    ;  uncertainty k = 0.552058
        24        20        19        38     9      180.000000        7.540400         2    ;  uncertainty k = 0.762481
        24        20        19        38     9        0.000000        1.344634         3    ;  uncertainty k = 0.335085
        24        20        19        38     9      180.000000        1.075326         4    ;  uncertainty k = 0.499322
        24        20        21        39     9        0.000000        0.126420         1    ;  uncertainty k = 0.442510
        24        20        21        39     9      180.000000        8.054401         2    ;  uncertainty k = 0.926413
        24        20        21        39     9        0.000000        1.381881         3    ;  uncertainty k = 0.459935
        24        20        21        39     9      180.000000        0.310454         4    ;  uncertainty k = 0.234121
        25        17        18        37     9        0.000000       -0.091765         1    ;  uncertainty k = 0.174121
        25        17        18        37     9      180.000000        6.129199         2    ;  uncertainty k = 0.575207
        25        17        18        37     9        0.000000        1.243235         3    ;  uncertainty k = 0.113303
        25        17        18        37     9      180.000000        1.508541         4    ;  uncertainty k = 0.244145
        25        24        23        40     9        0.000000        1.977927         1    ;  uncertainty k = 0.648831
        25        24        23        40     9      180.000000        1.587494         2    ;  uncertainty k = 0.601510
        25        24        23        40     9        0.000000        1.310226         3    ;  uncertainty k = 0.630295
        25        24        23        40     9      180.000000        0.107900         4    ;  uncertainty k = 0.145848
        26         6         5        32     9        0.000000        0.040026         1    ;  uncertainty k = 0.282610
        26         6         5        32     9      180.000000        6.347038         2    ;  uncertainty k = 0.720263
        26         6         5        32     9        0.000000        1.244476         3    ;  uncertainty k = 0.278343
        26         6         5        32     9      180.000000        1.459252         4    ;  uncertainty k = 0.133146
        26         6         7        33     9        0.000000        2.564447         1    ;  uncertainty k = 0.544822
        26         6         7        33     9      180.000000        4.111243         2    ;  uncertainty k = 0.267339
        26         6         7        33     9        0.000000        0.658338         3    ;  uncertainty k = 0.138302
        26         6         7        33     9      180.000000        0.444281         4    ;  uncertainty k = 0.052348
        27         3         4        31     9        0.000000        0.150528         1    ;  uncertainty k = 0.287639
        27         3         4        31     9      180.000000        5.860304         2    ;  uncertainty k = 0.506130
        27         3         4        31     9        0.000000        1.380818         3    ;  uncertainty k = 0.344287
        27         3         4        31     9      180.000000        1.531439         4    ;  uncertainty k = 0.135250
        31         4         5        32     9        0.000000       -0.116158         1    ;  uncertainty k = 0.281777
        31         4         5        32     9      180.000000        7.698111         2    ;  uncertainty k = 0.445066
        31         4         5        32     9        0.000000       -0.375870         3    ;  uncertainty k = 0.287690
        31         4         5        32     9      180.000000        0.268821         4    ;  uncertainty k = 0.171220
        35        13        14        36     9        0.000000       -0.311075         1    ;  uncertainty k = 0.492453
        35        13        14        36     9      180.000000        5.384359         2    ;  uncertainty k = 0.598234
        35        13        14        36     9        0.000000        1.243313         3    ;  uncertainty k = 0.430720
        35        13        14        36     9      180.000000        0.271791         4    ;  uncertainty k = 0.092255
        37        18        19        38     9        0.000000       -0.250847         1    ;  uncertainty k = 0.196331
        37        18        19        38     9      180.000000        8.235112         2    ;  uncertainty k = 0.381562
        37        18        19        38     9        0.000000       -0.155117         3    ;  uncertainty k = 0.220769
        37        18        19        38     9      180.000000        0.305847         4    ;  uncertainty k = 0.262587
        42        26        27        43     9        0.000000       -0.116157         1    ;  uncertainty k = 0.281777
        42        26        27        43     9      180.000000        7.698111         2    ;  uncertainty k = 0.445067
        42        26        27        43     9        0.000000       -0.375870         3    ;  uncertainty k = 0.287689
        42        26        27        43     9      180.000000        0.268822         4    ;  uncertainty k = 0.171220

[ dihedrals ] ; impropers
;       ai        aj        ak        al funct           phase               k        pn
         3         2         4        27     4      180.000000       18.532787         2    ;  uncertainty k = 0.096756
         3         4        27         2     4      180.000000       18.532787         2    ;  uncertainty k = 0.096756
         3        27         2         4     4      180.000000       18.532787         2    ;  uncertainty k = 0.096756
         4         3         5        31     4      180.000000        1.991713         2    ;  uncertainty k = 0.433847
         4         5        31         3     4      180.000000        1.991713         2    ;  uncertainty k = 0.433847
         4        31         3         5     4      180.000000        1.991713         2    ;  uncertainty k = 0.433847
         5         4         6        32     4      180.000000        3.342189         2    ;  uncertainty k = 0.298992
         5         6        32         4     4      180.000000        3.342189         2    ;  uncertainty k = 0.298992
         5        32         4         6     4      180.000000        3.342189         2    ;  uncertainty k = 0.298992
         6         5         7        26     4      180.000000       16.869205         2    ;  uncertainty k = 0.081124
         6         7        26         5     4      180.000000       16.869205         2    ;  uncertainty k = 0.081124
         6        26         5         7     4      180.000000       16.869205         2    ;  uncertainty k = 0.081124
         7         6         8        33     4      180.000000        1.618735         2    ;  uncertainty k = 0.656666
         7         8        33         6     4      180.000000        1.618735         2    ;  uncertainty k = 0.656666
         7        33         6         8     4      180.000000        1.618735         2    ;  uncertainty k = 0.656666
         8         7         9        16     4      180.000000       28.346684         2    ;  uncertainty k = 0.062767
         8         9        16         7     4      180.000000       28.346684         2    ;  uncertainty k = 0.062767
         8        16         7         9     4      180.000000       28.346684         2    ;  uncertainty k = 0.062767
        10         9        11        17     4      180.000000       19.200791         2    ;  uncertainty k = 0.081082
        10        11        17         9     4      180.000000       19.200791         2    ;  uncertainty k = 0.081082
        10        17         9        11     4      180.000000       19.200791         2    ;  uncertainty k = 0.081082
        11        10        12        34     4      180.000000        1.291987         2    ;  uncertainty k = 1.146498
        11        12        34        10     4      180.000000        1.291987         2    ;  uncertainty k = 1.146498
        11        34        10        12     4      180.000000        1.291987         2    ;  uncertainty k = 1.146498
        12        11        13        16     4      180.000000        1.588086         2    ;  uncertainty k = 1.398469
        12        13        16        11     4      180.000000        1.588086         2    ;  uncertainty k = 1.398469
        12        16        11        13     4      180.000000        1.588086         2    ;  uncertainty k = 1.398469
        13        12        14        35     4      180.000000        0.105195         2    ;  uncertainty k = 0.235223
        13        14        35        12     4      180.000000        0.105195         2    ;  uncertainty k = 0.235223
        13        35        12        14     4      180.000000        0.105195         2    ;  uncertainty k = 0.235223
        14        13        15        36     4      180.000000        1.779599         2    ;  uncertainty k = 0.230150
        14        15        36        13     4      180.000000        1.779599         2    ;  uncertainty k = 0.230150
        14        36        13        15     4      180.000000        1.779599         2    ;  uncertainty k = 0.230150
        16         8        12        15     4      180.000000        2.165381         2    ;  uncertainty k = 0.627947
        16        12        15         8     4      180.000000        2.165381         2    ;  uncertainty k = 0.627947
        16        15         8        12     4      180.000000        2.165381         2    ;  uncertainty k = 0.627947
        17        10        18        25     4      180.000000       11.787880         2    ;  uncertainty k = 0.110513
        17        18        25        10     4      180.000000       11.787880         2    ;  uncertainty k = 0.110513
        17        25        10        18     4      180.000000       11.787880         2    ;  uncertainty k = 0.110513
        18        17        19        37     4      180.000000        2.954189         2    ;  uncertainty k = 0.225776
        18        19        37        17     4      180.000000        2.954189         2    ;  uncertainty k = 0.225776
        18        37        17        19     4      180.000000        2.954189         2    ;  uncertainty k = 0.225776
        19        18        20        38     4      180.000000        5.148360         2    ;  uncertainty k = 0.214210
        19        20        38        18     4      180.000000        5.148360         2    ;  uncertainty k = 0.214210
        19        38        18        20     4      180.000000        5.148360         2    ;  uncertainty k = 0.214210
        21        20        22        39     4      180.000000        1.421392         2    ;  uncertainty k = 0.357579
        21        22        39        20     4      180.000000        1.421392         2    ;  uncertainty k = 0.357579
        21        39        20        22     4      180.000000        1.421392         2    ;  uncertainty k = 0.357579
        24        20        23        25     4      180.000000        1.427407         2    ;  uncertainty k = 0.758143
        24        23        25        20     4      180.000000        1.427407         2    ;  uncertainty k = 0.758143
        24        25        20        23     4      180.000000        1.427407         2    ;  uncertainty k = 0.758143
        25        17        24        41     4      180.000000        2.575295         2    ;  uncertainty k = 0.237857
        25        24        41        17     4      180.000000        2.575295         2    ;  uncertainty k = 0.237857
        25        41        17        24     4      180.000000        2.575295         2    ;  uncertainty k = 0.237857
        26         6        27        42     4      180.000000        3.342192         2    ;  uncertainty k = 0.298991
        26        27        42         6     4      180.000000        3.342192         2    ;  uncertainty k = 0.298991
        26        42         6        27     4      180.000000        3.342192         2    ;  uncertainty k = 0.298991
        27         3        26        43     4      180.000000        1.991716         2    ;  uncertainty k = 0.433847
        27        26        43         3     4      180.000000        1.991716         2    ;  uncertainty k = 0.433847
        27        43         3        26     4      180.000000        1.991716         2    ;  uncertainty k = 0.433847

[ pairs ]
;       ai        aj funct
         1         4     1
         1        27     1
         2         5     1
         2        26     1
         2        31     1
         2        43     1
         3         6     1
         3        28     1
         3        29     1
         3        30     1
         3        32     1
         3        42     1
         4         7     1
         4        26     1
         4        43     1
         5         8     1
         5        27     1
         5        33     1
         5        42     1
         6         9     1
         6        16     1
         6        31     1
         6        43     1
         7        10     1
         7        12     1
         7        15     1
         7        27     1
         7        32     1
         7        42     1
         8        11     1
         8        13     1
         8        14     1
         8        17     1
         8        26     1
         9        12     1
         9        15     1
         9        18     1
         9        25     1
         9        33     1
         9        34     1
        10        13     1
        10        16     1
        10        19     1
        10        24     1
        10        37     1
        10        41     1
        11        14     1
        11        15     1
        11        18     1
        11        25     1
        11        35     1
        12        17     1
        12        36     1
        13        34     1
        15        35     1
        16        33     1
        16        34     1
        16        35     1
        16        36     1
        17        20     1
        17        23     1
        17        34     1
        17        38     1
        18        21     1
        18        24     1
        18        41     1
        19        22     1
        19        23     1
        19        25     1
        19        39     1
        20        37     1
        20        40     1
        20        41     1
        21        25     1
        21        38     1
        21        40     1
        22        25     1
        23        39     1
        23        41     1
        24        38     1
        24        39     1
        25        37     1
        25        40     1
        26        32     1
        26        33     1
        27        31     1
        31        32     1
        35        36     1
        37        38     1
        42        43     1
