; ITP file created by ByteFF-joint-25, 2026-02-17 09:40:10.352161

[ atomtypes ]
;name           bonded.type        at.num        mass        charge   ptype           sigma         epsilon
 c0bf                                   6      0.0000       0.00000       A     3.39774e-01     4.50890e-01    ;  uncertainty sigma = 0.000006, epsilon = 0.000514
 o1bf                                   8      0.0000       0.00000       A     3.15641e-01     3.03850e-01    ;  uncertainty sigma = 0.000015, epsilon = 0.000455
 c2bf                                   6      0.0000       0.00000       A     3.31526e-01     4.13474e-01    ;  uncertainty sigma = 0.000006, epsilon = 0.000721
 c3bf                                   6      0.0000       0.00000       A     3.31529e-01     4.13640e-01    ;  uncertainty sigma = 0.000005, epsilon = 0.000792
 c4bf                                   6      0.0000       0.00000       A     3.31525e-01     4.13354e-01    ;  uncertainty sigma = 0.000006, epsilon = 0.000662
 c5bf                                   6      0.0000       0.00000       A     3.31528e-01     4.13588e-01    ;  uncertainty sigma = 0.000010, epsilon = 0.000818
 n6bf                                   7      0.0000       0.00000       A     3.27852e-01     6.46169e-01    ;  uncertainty sigma = 0.000043, epsilon = 0.003219
 c7bf                                   6      0.0000       0.00000       A     3.31526e-01     4.13887e-01    ;  uncertainty sigma = 0.000017, epsilon = 0.001682
 n8bf                                   7      0.0000       0.00000       A     3.38464e-01     3.93282e-01    ;  uncertainty sigma = 0.000032, epsilon = 0.000680
 c9bf                                   6      0.0000       0.00000       A     3.31551e-01     4.13482e-01    ;  uncertainty sigma = 0.000026, epsilon = 0.000675
 c10bf                                  6      0.0000       0.00000       A     3.31561e-01     4.13642e-01    ;  uncertainty sigma = 0.000012, epsilon = 0.001524
 n11bf                                  7      0.0000       0.00000       A     3.20547e-01     8.53303e-01    ;  uncertainty sigma = 0.000017, epsilon = 0.000844
 c12bf                                  6      0.0000       0.00000       A     3.31503e-01     4.12978e-01    ;  uncertainty sigma = 0.000012, epsilon = 0.001136
 c13bf                                  6      0.0000       0.00000       A     3.31531e-01     4.13187e-01    ;  uncertainty sigma = 0.000008, epsilon = 0.000699
 n14bf                                  7      0.0000       0.00000       A     3.38427e-01     3.92895e-01    ;  uncertainty sigma = 0.000039, epsilon = 0.000415
 c15bf                                  6      0.0000       0.00000       A     3.31554e-01     4.12537e-01    ;  uncertainty sigma = 0.000015, epsilon = 0.000432
 c16bf                                  6      0.0000       0.00000       A     3.31492e-01     4.12889e-01    ;  uncertainty sigma = 0.000013, epsilon = 0.000633
 c17bf                                  6      0.0000       0.00000       A     3.31522e-01     4.13436e-01    ;  uncertainty sigma = 0.000007, epsilon = 0.000596
 c18bf                                  6      0.0000       0.00000       A     3.31515e-01     4.13096e-01    ;  uncertainty sigma = 0.000014, epsilon = 0.000837
 c19bf                                  6      0.0000       0.00000       A     3.31518e-01     4.13044e-01    ;  uncertainty sigma = 0.000012, epsilon = 0.000588
 n20bf                                  7      0.0000       0.00000       A     3.38408e-01     3.93855e-01    ;  uncertainty sigma = 0.000020, epsilon = 0.000955
 n21bf                                  7      0.0000       0.00000       A     3.38416e-01     3.93685e-01    ;  uncertainty sigma = 0.000018, epsilon = 0.001274
 n22bf                                  7      0.0000       0.00000       A     3.20603e-01     8.51825e-01    ;  uncertainty sigma = 0.000033, epsilon = 0.002062
 c23bf                                  6      0.0000       0.00000       A     3.31507e-01     4.12738e-01    ;  uncertainty sigma = 0.000013, epsilon = 0.000871
 c24bf                                  6      0.0000       0.00000       A     3.31509e-01     4.13395e-01    ;  uncertainty sigma = 0.000013, epsilon = 0.001114
 c25bf                                  6      0.0000       0.00000       A     3.31516e-01     4.13129e-01    ;  uncertainty sigma = 0.000010, epsilon = 0.000957
 c26bf                                  6      0.0000       0.00000       A     3.31531e-01     4.13728e-01    ;  uncertainty sigma = 0.000008, epsilon = 0.001049
 o27bf                                  8      0.0000       0.00000       A     3.15636e-01     3.03949e-01    ;  uncertainty sigma = 0.000015, epsilon = 0.000670
 c28bf                                  6      0.0000       0.00000       A     3.39774e-01     4.50890e-01    ;  uncertainty sigma = 0.000006, epsilon = 0.000514
 h29bf                                  1      0.0000       0.00000       A     2.42205e-01     8.67538e-02    ;  uncertainty sigma = 0.000015, epsilon = 0.000624
 h30bf                                  1      0.0000       0.00000       A     2.42205e-01     8.67538e-02    ;  uncertainty sigma = 0.000015, epsilon = 0.000624
 h31bf                                  1      0.0000       0.00000       A     2.42205e-01     8.67538e-02    ;  uncertainty sigma = 0.000015, epsilon = 0.000624
 h32bf                                  1      0.0000       0.00000       A     2.62570e-01     6.70700e-02    ;  uncertainty sigma = 0.000012, epsilon = 0.000330
 h33bf                                  1      0.0000       0.00000       A     2.62564e-01     6.70248e-02    ;  uncertainty sigma = 0.000015, epsilon = 0.000426
 h34bf                                  1      0.0000       0.00000       A     1.10708e-01     4.06502e-02    ;  uncertainty sigma = 0.000118, epsilon = 0.000465
 h35bf                                  1      0.0000       0.00000       A     2.53612e-01     6.73648e-02    ;  uncertainty sigma = 0.000081, epsilon = 0.000889
 h36bf                                  1      0.0000       0.00000       A     2.53649e-01     6.68496e-02    ;  uncertainty sigma = 0.000023, epsilon = 0.000657
 h37bf                                  1      0.0000       0.00000       A     2.53645e-01     6.69492e-02    ;  uncertainty sigma = 0.000020, epsilon = 0.000834
 h38bf                                  1      0.0000       0.00000       A     2.62566e-01     6.71264e-02    ;  uncertainty sigma = 0.000013, epsilon = 0.000572
 h39bf                                  1      0.0000       0.00000       A     2.62552e-01     6.70300e-02    ;  uncertainty sigma = 0.000013, epsilon = 0.000889
 h40bf                                  1      0.0000       0.00000       A     1.10582e-01     4.13792e-02    ;  uncertainty sigma = 0.000041, epsilon = 0.000735
 h41bf                                  1      0.0000       0.00000       A     2.62571e-01     6.71673e-02    ;  uncertainty sigma = 0.000010, epsilon = 0.000574
 h42bf                                  1      0.0000       0.00000       A     2.62560e-01     6.71373e-02    ;  uncertainty sigma = 0.000017, epsilon = 0.000539
 h43bf                                  1      0.0000       0.00000       A     2.42205e-01     8.67537e-02    ;  uncertainty sigma = 0.000015, epsilon = 0.000624
 h44bf                                  1      0.0000       0.00000       A     2.42205e-01     8.67538e-02    ;  uncertainty sigma = 0.000015, epsilon = 0.000624
 h45bf                                  1      0.0000       0.00000       A     2.42205e-01     8.67538e-02    ;  uncertainty sigma = 0.000015, epsilon = 0.000624

[ moleculetype ]
;name             nrexcl
 MOL                   3

[ atoms ]
;       nr            type      resi   res      atom      cgnr      charge          mass ; qtot
         1            c0bf         1   UNL        c0         1     0.11960       12.0110 ; qtot    0.120
         2            o1bf         1   UNL        o1         2    -0.32010       15.9990 ; qtot   -0.201
         3            c2bf         1   UNL        c2         3     0.07584       12.0110 ; qtot   -0.125
         4            c3bf         1   UNL        c3         4    -0.15014       12.0110 ; qtot   -0.275
         5            c4bf         1   UNL        c4         5    -0.15106       12.0110 ; qtot   -0.426
         6            c5bf         1   UNL        c5         6     0.16694       12.0110 ; qtot   -0.259
         7            n6bf         1   UNL        n6         7    -0.73903       14.0070 ; qtot   -0.998
         8            c7bf         1   UNL        c7         8     0.75057       12.0110 ; qtot   -0.247
         9            n8bf         1   UNL        n8         9    -0.76973       14.0070 ; qtot   -1.017
        10            c9bf         1   UNL        c9        10     0.47341       12.0110 ; qtot   -0.544
        11           c10bf         1   UNL       c10        11    -0.22208       12.0110 ; qtot   -0.766
        12           n11bf         1   UNL       n11        12     0.05408       14.0070 ; qtot   -0.712
        13           c12bf         1   UNL       c12        13    -0.21243       12.0110 ; qtot   -0.924
        14           c13bf         1   UNL       c13        14     0.01175       12.0110 ; qtot   -0.912
        15           n14bf         1   UNL       n14        15    -0.27543       14.0070 ; qtot   -1.188
        16           c15bf         1   UNL       c15        16    -0.18460       12.0110 ; qtot   -1.372
        17           c16bf         1   UNL       c16        17    -0.08171       12.0110 ; qtot   -1.454
        18           c17bf         1   UNL       c17        18    -0.13687       12.0110 ; qtot   -1.591
        19           c18bf         1   UNL       c18        19    -0.04741       12.0110 ; qtot   -1.638
        20           c19bf         1   UNL       c19        20     0.01615       12.0110 ; qtot   -1.622
        21           n20bf         1   UNL       n20        21    -0.21795       14.0070 ; qtot   -1.840
        22           n21bf         1   UNL       n21        22    -0.15204       14.0070 ; qtot   -1.992
        23           n22bf         1   UNL       n22        23    -0.04425       14.0070 ; qtot   -2.036
        24           c23bf         1   UNL       c23        24    -0.06352       12.0110 ; qtot   -2.100
        25           c24bf         1   UNL       c24        25    -0.11328       12.0110 ; qtot   -2.213
        26           c25bf         1   UNL       c25        26    -0.20840       12.0110 ; qtot   -2.422
        27           c26bf         1   UNL       c26        27     0.11790       12.0110 ; qtot   -2.304
        28           o27bf         1   UNL       o27        28    -0.31927       15.9990 ; qtot   -2.623
        29           c28bf         1   UNL       c28        29     0.11995       12.0110 ; qtot   -2.503
        30           h29bf         1   UNL       h29        30     0.04337        1.0080 ; qtot   -2.460
        31           h30bf         1   UNL       h30        31     0.04337        1.0080 ; qtot   -2.416
        32           h31bf         1   UNL       h31        32     0.04337        1.0080 ; qtot   -2.373
        33           h32bf         1   UNL       h32        33     0.14091        1.0080 ; qtot   -2.232
        34           h33bf         1   UNL       h33        34     0.15302        1.0080 ; qtot   -2.079
        35           h34bf         1   UNL       h34        35     0.46165        1.0080 ; qtot   -1.617
        36           h35bf         1   UNL       h35        36     0.17402        1.0080 ; qtot   -1.443
        37           h36bf         1   UNL       h36        37     0.18619        1.0080 ; qtot   -1.257
        38           h37bf         1   UNL       h37        38     0.17120        1.0080 ; qtot   -1.086
        39           h38bf         1   UNL       h38        39     0.14688        1.0080 ; qtot   -0.939
        40           h39bf         1   UNL       h39        40     0.15767        1.0080 ; qtot   -0.781
        41           h40bf         1   UNL       h40        41     0.33816        1.0080 ; qtot   -0.443
        42           h41bf         1   UNL       h41        42     0.15753        1.0080 ; qtot   -0.286
        43           h42bf         1   UNL       h42        43     0.15565        1.0080 ; qtot   -0.130
        44           h43bf         1   UNL       h43        44     0.04337        1.0080 ; qtot   -0.087
        45           h44bf         1   UNL       h44        45     0.04337        1.0080 ; qtot   -0.043
        46           h45bf         1   UNL       h45        46     0.04338        1.0080 ; qtot    0.000

[ bonds ]
;       ai        aj funct               r               k
         1         2     1        0.142504   247060.424561    ;  uncertainty r = 0.000030, k = 4.357279
         1        30     1        0.109559   311162.501807    ;  uncertainty r = 0.000020, k = 1.272505
         1        31     1        0.109559   311162.501807    ;  uncertainty r = 0.000020, k = 1.272505
         1        32     1        0.109559   311162.501807    ;  uncertainty r = 0.000020, k = 1.272505
         2         3     1        0.136892   321113.062012    ;  uncertainty r = 0.000059, k = 4.532937
         3         4     1        0.139488   349133.425439    ;  uncertainty r = 0.000031, k = 2.724656
         3        27     1        0.140227   349402.969629    ;  uncertainty r = 0.000054, k = 7.584627
         4         5     1        0.139369   369864.655127    ;  uncertainty r = 0.000071, k = 2.574425
         4        33     1        0.108705   336290.634375    ;  uncertainty r = 0.000024, k = 1.905467
         5         6     1        0.139713   352891.517529    ;  uncertainty r = 0.000095, k = 4.859039
         5        34     1        0.108700   336152.248779    ;  uncertainty r = 0.000031, k = 1.798265
         6         7     1        0.141333   346668.455957    ;  uncertainty r = 0.000119, k = 12.315044
         6        26     1        0.140236   355873.307031    ;  uncertainty r = 0.000083, k = 5.100092
         7         8     1        0.137988   330814.533252    ;  uncertainty r = 0.000224, k = 31.605630
         7        35     1        0.102091   426736.870264    ;  uncertainty r = 0.000039, k = 5.302920
         8         9     1        0.132293   443196.890723    ;  uncertainty r = 0.000185, k = 13.473043
         8        16     1        0.143016   286566.945654    ;  uncertainty r = 0.000095, k = 10.976562
         9        10     1        0.137539   259289.788721    ;  uncertainty r = 0.000221, k = 27.333167
        10        11     1        0.136983   380120.690234    ;  uncertainty r = 0.000106, k = 13.129494
        10        17     1        0.147326   265570.793994    ;  uncertainty r = 0.000149, k = 10.344295
        11        12     1        0.137903   324759.863379    ;  uncertainty r = 0.000057, k = 6.440732
        11        36     1        0.108483   340864.892480    ;  uncertainty r = 0.000069, k = 2.329542
        12        13     1        0.137812   342777.341064    ;  uncertainty r = 0.000099, k = 5.087994
        12        16     1        0.139016   307421.213135    ;  uncertainty r = 0.000151, k = 23.940608
        13        14     1        0.138713   413349.321582    ;  uncertainty r = 0.000044, k = 11.515297
        13        37     1        0.108153   341281.121826    ;  uncertainty r = 0.000029, k = 4.725656
        14        15     1        0.136694   264650.921777    ;  uncertainty r = 0.000104, k = 21.676773
        14        38     1        0.108374   336399.652295    ;  uncertainty r = 0.000052, k = 2.763013
        15        16     1        0.133277   447135.785547    ;  uncertainty r = 0.000097, k = 11.841721
        17        18     1        0.142486   328105.071484    ;  uncertainty r = 0.000103, k = 5.350391
        17        25     1        0.139029   355607.925391    ;  uncertainty r = 0.000074, k = 3.613970
        18        19     1        0.138235   371874.323486    ;  uncertainty r = 0.000051, k = 8.166631
        18        39     1        0.108720   335072.029053    ;  uncertainty r = 0.000026, k = 3.372568
        19        20     1        0.140309   366913.433545    ;  uncertainty r = 0.000025, k = 3.001480
        19        40     1        0.108746   335425.156201    ;  uncertainty r = 0.000017, k = 1.388141
        20        21     1        0.139023   296507.674072    ;  uncertainty r = 0.000123, k = 9.221087
        20        24     1        0.141090   411514.224902    ;  uncertainty r = 0.000051, k = 7.171437
        21        22     1        0.129937   456621.953418    ;  uncertainty r = 0.000023, k = 2.410590
        22        23     1        0.136946   246562.170020    ;  uncertainty r = 0.000100, k = 19.141102
        23        24     1        0.137252   328130.200000    ;  uncertainty r = 0.000051, k = 13.292670
        23        41     1        0.101385   418064.493457    ;  uncertainty r = 0.000060, k = 1.960874
        24        25     1        0.139722   362962.970410    ;  uncertainty r = 0.000093, k = 5.071816
        25        42     1        0.108753   334899.449268    ;  uncertainty r = 0.000034, k = 1.634841
        26        27     1        0.139270   345625.520410    ;  uncertainty r = 0.000054, k = 5.224456
        26        43     1        0.108746   339222.268994    ;  uncertainty r = 0.000057, k = 2.203703
        27        28     1        0.136641   322875.224707    ;  uncertainty r = 0.000095, k = 4.764590
        28        29     1        0.142472   247648.314355    ;  uncertainty r = 0.000036, k = 5.188422
        29        44     1        0.109559   311162.501807    ;  uncertainty r = 0.000020, k = 1.272500
        29        45     1        0.109559   311162.501807    ;  uncertainty r = 0.000020, k = 1.272491
        29        46     1        0.109559   311162.501807    ;  uncertainty r = 0.000020, k = 1.272497

[ angles ]
;       ai        aj        ak funct           theta             cth
         1         2         3     1      110.612503      514.276204    ;  uncertainty theta = 0.001142, k = 0.053109
         2         1        30     1      108.817703      445.633093    ;  uncertainty theta = 0.001397, k = 0.017155
         2         1        31     1      108.817703      445.633093    ;  uncertainty theta = 0.001397, k = 0.017155
         2         1        32     1      108.817703      445.633093    ;  uncertainty theta = 0.001397, k = 0.017155
         2         3         4     1      120.713829      429.663653    ;  uncertainty theta = 0.002887, k = 0.102450
         2         3        27     1      116.739212      371.002135    ;  uncertainty theta = 0.004292, k = 0.133275
         3         4         5     1      122.308617      511.833707    ;  uncertainty theta = 0.002874, k = 0.098838
         3         4        33     1      117.399475      269.501128    ;  uncertainty theta = 0.000644, k = 0.068639
         3        27        26     1      122.924828      372.294473    ;  uncertainty theta = 0.004880, k = 0.131595
         3        27        28     1      116.892052      375.388038    ;  uncertainty theta = 0.003912, k = 0.086739
         4         3        27     1      121.473427      368.904773    ;  uncertainty theta = 0.004194, k = 0.139265
         4         5         6     1      119.248634      497.970121    ;  uncertainty theta = 0.001680, k = 0.102369
         4         5        34     1      121.012962      296.103549    ;  uncertainty theta = 0.002653, k = 0.108838
         5         4        33     1      120.002708      276.762860    ;  uncertainty theta = 0.000635, k = 0.063553
         5         6         7     1      120.412048      523.951864    ;  uncertainty theta = 0.002787, k = 0.145671
         5         6        26     1      119.564781      370.288948    ;  uncertainty theta = 0.004616, k = 0.068311
         6         5        34     1      119.526833      271.877771    ;  uncertainty theta = 0.001413, k = 0.081499
         6         7         8     1      116.303787      381.015013    ;  uncertainty theta = 0.002927, k = 0.210540
         6         7        35     1      114.186111      355.760727    ;  uncertainty theta = 0.005751, k = 0.200139
         6        26        27     1      121.379723      503.759991    ;  uncertainty theta = 0.003678, k = 0.097545
         6        26        43     1      119.577965      269.429783    ;  uncertainty theta = 0.003301, k = 0.060634
         7         6        26     1      119.861717      533.495177    ;  uncertainty theta = 0.003869, k = 0.077420
         7         8         9     1      122.095299      743.931110    ;  uncertainty theta = 0.005977, k = 0.187403
         7         8        16     1      118.339066      493.433486    ;  uncertainty theta = 0.006804, k = 0.121645
         8         7        35     1      117.061234      430.294771    ;  uncertainty theta = 0.006370, k = 0.198641
         8         9        10     1      121.081543      436.533806    ;  uncertainty theta = 0.009425, k = 0.261818
         8        16        12     1      111.142784      333.997874    ;  uncertainty theta = 0.012736, k = 0.456018
         8        16        15     1      125.515465      293.448009    ;  uncertainty theta = 0.008643, k = 0.324338
         9         8        16     1      122.405640      559.409789    ;  uncertainty theta = 0.006101, k = 0.247559
         9        10        11     1      124.529945      546.825995    ;  uncertainty theta = 0.003188, k = 0.249818
         9        10        17     1      117.123184      448.044179    ;  uncertainty theta = 0.000990, k = 0.081497
        10        11        12     1      117.545448      533.201245    ;  uncertainty theta = 0.004801, k = 0.198048
        10        11        36     1      124.661926      232.745215    ;  uncertainty theta = 0.008830, k = 0.220531
        10        17        18     1      118.948166      410.908561    ;  uncertainty theta = 0.003019, k = 0.109598
        10        17        25     1      119.020950      397.437417    ;  uncertainty theta = 0.003123, k = 0.216124
        11        10        17     1      121.352074      378.566515    ;  uncertainty theta = 0.004453, k = 0.083232
        11        12        13     1      129.660461      429.070873    ;  uncertainty theta = 0.002332, k = 0.325292
        11        12        16     1      117.456383      429.436979    ;  uncertainty theta = 0.007676, k = 0.177572
        12        11        36     1      117.405563      315.690512    ;  uncertainty theta = 0.003645, k = 0.141950
        12        13        14     1      105.324829      767.668044    ;  uncertainty theta = 0.004981, k = 0.189091
        12        13        37     1      119.539230      282.399762    ;  uncertainty theta = 0.002926, k = 0.163946
        12        16        15     1      114.523727      791.406958    ;  uncertainty theta = 0.003446, k = 0.159720
        13        12        16     1      106.195152      846.636320    ;  uncertainty theta = 0.003800, k = 0.266753
        13        14        15     1      111.223167      865.900238    ;  uncertainty theta = 0.003390, k = 0.157111
        13        14        38     1      125.339600      238.965624    ;  uncertainty theta = 0.004247, k = 0.092338
        14        13        37     1      130.781433      240.351858    ;  uncertainty theta = 0.003259, k = 0.025087
        14        15        16     1      106.065872      820.721453    ;  uncertainty theta = 0.001716, k = 0.145916
        15        14        38     1      119.156937      297.238833    ;  uncertainty theta = 0.004129, k = 0.152925
        17        18        19     1      123.558556      536.104495    ;  uncertainty theta = 0.003189, k = 0.101260
        17        18        39     1      117.578506      270.842624    ;  uncertainty theta = 0.003386, k = 0.042843
        17        25        24     1      116.312439      521.485554    ;  uncertainty theta = 0.004554, k = 0.156735
        17        25        42     1      120.002396      268.175496    ;  uncertainty theta = 0.002268, k = 0.121265
        18        17        25     1      124.169655      440.402518    ;  uncertainty theta = 0.002928, k = 0.102469
        18        19        20     1      117.257248      544.431508    ;  uncertainty theta = 0.002145, k = 0.099881
        18        19        40     1      121.540123      275.472023    ;  uncertainty theta = 0.002990, k = 0.056516
        19        18        39     1      119.338951      296.477476    ;  uncertainty theta = 0.003918, k = 0.030466
        19        20        21     1      128.892990      428.006103    ;  uncertainty theta = 0.001663, k = 0.191816
        19        20        24     1      117.543190      377.182882    ;  uncertainty theta = 0.005502, k = 0.190520
        20        19        40     1      122.182785      288.472455    ;  uncertainty theta = 0.004560, k = 0.144341
        20        21        22     1      109.368118     1006.652294    ;  uncertainty theta = 0.002541, k = 0.157195
        20        24        23     1      103.731689      706.291198    ;  uncertainty theta = 0.001723, k = 0.138564
        20        24        25     1      120.181442      346.493948    ;  uncertainty theta = 0.002952, k = 0.265915
        21        20        24     1      109.253006      827.873823    ;  uncertainty theta = 0.002344, k = 0.106549
        21        22        23     1      110.062416     1192.767003    ;  uncertainty theta = 0.001958, k = 0.101463
        22        23        24     1      107.451149     1001.299333    ;  uncertainty theta = 0.001302, k = 0.138752
        22        23        41     1      110.402115      349.224887    ;  uncertainty theta = 0.008378, k = 0.105665
        23        24        25     1      131.426361      389.044231    ;  uncertainty theta = 0.005695, k = 0.152860
        24        23        41     1      116.823959      277.495775    ;  uncertainty theta = 0.007182, k = 0.119752
        24        25        42     1      122.627525      296.915693    ;  uncertainty theta = 0.002344, k = 0.144766
        26        27        28     1      119.984230      446.391321    ;  uncertainty theta = 0.002825, k = 0.109279
        27        26        43     1      118.198837      267.442262    ;  uncertainty theta = 0.001362, k = 0.058522
        27        28        29     1      110.584335      514.931710    ;  uncertainty theta = 0.000760, k = 0.054259
        28        29        44     1      108.804810      446.467230    ;  uncertainty theta = 0.001256, k = 0.017592
        28        29        45     1      108.804810      446.467230    ;  uncertainty theta = 0.001256, k = 0.017592
        28        29        46     1      108.804810      446.467230    ;  uncertainty theta = 0.001256, k = 0.017592
        30         1        31     1      109.159256      331.008596    ;  uncertainty theta = 0.001734, k = 0.015289
        30         1        32     1      109.159256      331.008596    ;  uncertainty theta = 0.001734, k = 0.015289
        31         1        32     1      109.159256      331.008596    ;  uncertainty theta = 0.001734, k = 0.015289
        44        29        45     1      109.159256      331.008596    ;  uncertainty theta = 0.001734, k = 0.015290
        44        29        46     1      109.159256      331.008596    ;  uncertainty theta = 0.001734, k = 0.015290
        45        29        46     1      109.159256      331.008628    ;  uncertainty theta = 0.001734, k = 0.015290

[ dihedrals ] ; propers for gromacs 4.5 or higher, use funct 9
;       ai        aj        ak        al funct           phase               k        pn
         1         2         3         4     9        0.000000        1.161590         1    ;  uncertainty k = 0.424580
         1         2         3         4     9      180.000000        5.978609         2    ;  uncertainty k = 0.113714
         1         2         3         4     9        0.000000       -0.081692         3    ;  uncertainty k = 0.147719
         1         2         3         4     9      180.000000        0.002725         4    ;  uncertainty k = 0.132587
         1         2         3        27     9        0.000000        0.710048         1    ;  uncertainty k = 0.461814
         1         2         3        27     9      180.000000        5.168557         2    ;  uncertainty k = 0.168705
         1         2         3        27     9        0.000000        1.522737         3    ;  uncertainty k = 0.085019
         1         2         3        27     9      180.000000        0.086569         4    ;  uncertainty k = 0.079161
         2         3         4         5     9        0.000000        0.075453         1    ;  uncertainty k = 0.391184
         2         3         4         5     9      180.000000       11.200366         2    ;  uncertainty k = 0.281957
         2         3         4         5     9        0.000000        1.350673         3    ;  uncertainty k = 0.315697
         2         3         4         5     9      180.000000        1.737822         4    ;  uncertainty k = 0.262819
         2         3         4        33     9        0.000000       -0.165175         1    ;  uncertainty k = 0.217547
         2         3         4        33     9      180.000000        9.159951         2    ;  uncertainty k = 0.396817
         2         3         4        33     9        0.000000        0.851185         3    ;  uncertainty k = 0.126617
         2         3         4        33     9      180.000000        1.218800         4    ;  uncertainty k = 0.309716
         2         3        27        26     9        0.000000        0.515556         1    ;  uncertainty k = 0.299239
         2         3        27        26     9      180.000000        7.954903         2    ;  uncertainty k = 0.736958
         2         3        27        26     9        0.000000        1.164308         3    ;  uncertainty k = 0.363484
         2         3        27        26     9      180.000000        1.614907         4    ;  uncertainty k = 0.248125
         2         3        27        28     9        0.000000       -0.341456         1    ;  uncertainty k = 1.859913
         2         3        27        28     9      180.000000       13.064537         2    ;  uncertainty k = 0.569185
         2         3        27        28     9        0.000000        0.817588         3    ;  uncertainty k = 0.428631
         2         3        27        28     9      180.000000        1.204285         4    ;  uncertainty k = 0.526598
         3         2         1        30     9        0.000000        1.112847         1    ;  uncertainty k = 0.103175
         3         2         1        30     9      180.000000       -2.022644         2    ;  uncertainty k = 0.082864
         3         2         1        30     9        0.000000        1.040477         3    ;  uncertainty k = 0.039004
         3         2         1        30     9      180.000000        0.229250         4    ;  uncertainty k = 0.034227
         3         2         1        31     9        0.000000        1.112847         1    ;  uncertainty k = 0.103175
         3         2         1        31     9      180.000000       -2.022644         2    ;  uncertainty k = 0.082864
         3         2         1        31     9        0.000000        1.040477         3    ;  uncertainty k = 0.039004
         3         2         1        31     9      180.000000        0.229250         4    ;  uncertainty k = 0.034227
         3         2         1        32     9        0.000000        1.112847         1    ;  uncertainty k = 0.103175
         3         2         1        32     9      180.000000       -2.022644         2    ;  uncertainty k = 0.082864
         3         2         1        32     9        0.000000        1.040477         3    ;  uncertainty k = 0.039004
         3         2         1        32     9      180.000000        0.229250         4    ;  uncertainty k = 0.034227
         3         4         5         6     9        0.000000        0.022057         1    ;  uncertainty k = 0.194405
         3         4         5         6     9      180.000000       12.959076         2    ;  uncertainty k = 0.175269
         3         4         5         6     9        0.000000       -0.661284         3    ;  uncertainty k = 0.452963
         3         4         5         6     9      180.000000        0.977500         4    ;  uncertainty k = 0.267395
         3         4         5        34     9        0.000000        0.089133         1    ;  uncertainty k = 0.324049
         3         4         5        34     9      180.000000        7.832723         2    ;  uncertainty k = 0.398222
         3         4         5        34     9        0.000000        1.298747         3    ;  uncertainty k = 0.324375
         3         4         5        34     9      180.000000        1.779745         4    ;  uncertainty k = 0.055930
         3        27        26         6     9        0.000000        0.071802         1    ;  uncertainty k = 0.106893
         3        27        26         6     9      180.000000        8.578020         2    ;  uncertainty k = 0.448413
         3        27        26         6     9        0.000000        0.405195         3    ;  uncertainty k = 0.328173
         3        27        26         6     9      180.000000        1.390162         4    ;  uncertainty k = 0.291061
         3        27        26        43     9        0.000000        0.127329         1    ;  uncertainty k = 0.442115
         3        27        26        43     9      180.000000        6.705908         2    ;  uncertainty k = 0.374607
         3        27        26        43     9        0.000000        1.449705         3    ;  uncertainty k = 0.216502
         3        27        26        43     9      180.000000        1.651952         4    ;  uncertainty k = 0.099448
         3        27        28        29     9        0.000000        0.964833         1    ;  uncertainty k = 0.487894
         3        27        28        29     9      180.000000        5.588064         2    ;  uncertainty k = 0.185698
         3        27        28        29     9        0.000000        1.649424         3    ;  uncertainty k = 0.107622
         3        27        28        29     9      180.000000        0.043020         4    ;  uncertainty k = 0.050223
         4         3        27        26     9        0.000000       -0.246361         1    ;  uncertainty k = 0.323015
         4         3        27        26     9      180.000000        5.364289         2    ;  uncertainty k = 1.281071
         4         3        27        26     9        0.000000        0.277799         3    ;  uncertainty k = 0.286511
         4         3        27        26     9      180.000000        1.297118         4    ;  uncertainty k = 0.309451
         4         3        27        28     9        0.000000        0.651705         1    ;  uncertainty k = 0.176594
         4         3        27        28     9      180.000000        7.590394         2    ;  uncertainty k = 0.603024
         4         3        27        28     9        0.000000        1.174713         3    ;  uncertainty k = 0.330890
         4         3        27        28     9      180.000000        1.724084         4    ;  uncertainty k = 0.232454
         4         5         6         7     9        0.000000        0.058897         1    ;  uncertainty k = 0.517002
         4         5         6         7     9      180.000000        9.907040         2    ;  uncertainty k = 0.506714
         4         5         6         7     9        0.000000        0.979239         3    ;  uncertainty k = 0.327123
         4         5         6         7     9      180.000000        1.580944         4    ;  uncertainty k = 0.224706
         4         5         6        26     9        0.000000       -0.065841         1    ;  uncertainty k = 0.278588
         4         5         6        26     9      180.000000        9.979296         2    ;  uncertainty k = 0.397780
         4         5         6        26     9        0.000000       -0.194578         3    ;  uncertainty k = 0.190668
         4         5         6        26     9      180.000000        1.171069         4    ;  uncertainty k = 0.255361
         5         4         3        27     9        0.000000        0.085734         1    ;  uncertainty k = 0.237541
         5         4         3        27     9      180.000000        8.042168         2    ;  uncertainty k = 0.816838
         5         4         3        27     9        0.000000        0.289471         3    ;  uncertainty k = 0.178601
         5         4         3        27     9      180.000000        1.427392         4    ;  uncertainty k = 0.249188
         5         6         7         8     9        0.000000        1.717569         1    ;  uncertainty k = 0.660151
         5         6         7         8     9      180.000000        5.521741         2    ;  uncertainty k = 0.179949
         5         6         7         8     9        0.000000        0.912155         3    ;  uncertainty k = 0.268355
         5         6         7         8     9      180.000000        0.224590         4    ;  uncertainty k = 0.108908
         5         6         7        35     9        0.000000        2.355176         1    ;  uncertainty k = 0.449212
         5         6         7        35     9      180.000000        4.348203         2    ;  uncertainty k = 0.302695
         5         6         7        35     9        0.000000        0.613845         3    ;  uncertainty k = 0.145998
         5         6         7        35     9      180.000000        0.455801         4    ;  uncertainty k = 0.028343
         5         6        26        27     9        0.000000        0.019455         1    ;  uncertainty k = 0.133757
         5         6        26        27     9      180.000000        8.784468         2    ;  uncertainty k = 0.478984
         5         6        26        27     9        0.000000        0.119276         3    ;  uncertainty k = 0.283810
         5         6        26        27     9      180.000000        1.288078         4    ;  uncertainty k = 0.208847
         5         6        26        43     9        0.000000        0.155297         1    ;  uncertainty k = 0.281422
         5         6        26        43     9      180.000000        6.373831         2    ;  uncertainty k = 0.633801
         5         6        26        43     9        0.000000        1.253627         3    ;  uncertainty k = 0.220579
         5         6        26        43     9      180.000000        1.460767         4    ;  uncertainty k = 0.207379
         6         5         4        33     9        0.000000       -0.099823         1    ;  uncertainty k = 0.241524
         6         5         4        33     9      180.000000        7.800452         2    ;  uncertainty k = 0.321389
         6         5         4        33     9        0.000000        1.212039         3    ;  uncertainty k = 0.364603
         6         5         4        33     9      180.000000        1.643100         4    ;  uncertainty k = 0.155684
         6         7         8         9     9        0.000000        4.372624         1    ;  uncertainty k = 1.281937
         6         7         8         9     9      180.000000       10.787256         2    ;  uncertainty k = 0.224703
         6         7         8         9     9        0.000000        0.688230         3    ;  uncertainty k = 0.311855
         6         7         8         9     9      180.000000       -0.507580         4    ;  uncertainty k = 0.052591
         6         7         8        16     9        0.000000        7.039559         1    ;  uncertainty k = 0.599174
         6         7         8        16     9      180.000000        8.681781         2    ;  uncertainty k = 0.097887
         6         7         8        16     9        0.000000        0.920441         3    ;  uncertainty k = 0.381757
         6         7         8        16     9      180.000000       -0.164553         4    ;  uncertainty k = 0.221364
         6        26        27        28     9        0.000000        0.152072         1    ;  uncertainty k = 0.236865
         6        26        27        28     9      180.000000       11.350413         2    ;  uncertainty k = 0.544002
         6        26        27        28     9        0.000000        1.355669         3    ;  uncertainty k = 0.349766
         6        26        27        28     9      180.000000        1.696486         4    ;  uncertainty k = 0.237430
         7         6         5        34     9        0.000000       -0.291936         1    ;  uncertainty k = 0.233190
         7         6         5        34     9      180.000000        7.944711         2    ;  uncertainty k = 0.164350
         7         6         5        34     9        0.000000        0.918004         3    ;  uncertainty k = 0.228756
         7         6         5        34     9      180.000000        1.083856         4    ;  uncertainty k = 0.164907
         7         6        26        27     9        0.000000        0.148911         1    ;  uncertainty k = 0.574988
         7         6        26        27     9      180.000000        9.899588         2    ;  uncertainty k = 0.247388
         7         6        26        27     9        0.000000        1.000997         3    ;  uncertainty k = 0.351814
         7         6        26        27     9      180.000000        1.610986         4    ;  uncertainty k = 0.137508
         7         6        26        43     9        0.000000       -0.272934         1    ;  uncertainty k = 0.329125
         7         6        26        43     9      180.000000        7.865305         2    ;  uncertainty k = 0.242076
         7         6        26        43     9        0.000000        0.914516         3    ;  uncertainty k = 0.283703
         7         6        26        43     9      180.000000        1.068016         4    ;  uncertainty k = 0.243003
         7         8         9        10     9        0.000000        1.096109         1    ;  uncertainty k = 1.057277
         7         8         9        10     9      180.000000       18.030113         2    ;  uncertainty k = 0.463660
         7         8         9        10     9        0.000000        2.915695         3    ;  uncertainty k = 0.293652
         7         8         9        10     9      180.000000        1.658749         4    ;  uncertainty k = 0.299266
         7         8        16        12     9        0.000000       -0.953522         1    ;  uncertainty k = 0.960772
         7         8        16        12     9      180.000000        5.426483         2    ;  uncertainty k = 0.732995
         7         8        16        12     9        0.000000        0.463830         3    ;  uncertainty k = 0.276198
         7         8        16        12     9      180.000000        0.425035         4    ;  uncertainty k = 0.145521
         7         8        16        15     9        0.000000       -0.723785         1    ;  uncertainty k = 0.708754
         7         8        16        15     9      180.000000        4.584250         2    ;  uncertainty k = 1.077487
         7         8        16        15     9        0.000000        0.569780         3    ;  uncertainty k = 0.418447
         7         8        16        15     9      180.000000        0.322209         4    ;  uncertainty k = 0.225420
         8         7         6        26     9        0.000000        1.597949         1    ;  uncertainty k = 0.980885
         8         7         6        26     9      180.000000        5.574010         2    ;  uncertainty k = 0.231880
         8         7         6        26     9        0.000000        0.917733         3    ;  uncertainty k = 0.237919
         8         7         6        26     9      180.000000        0.218590         4    ;  uncertainty k = 0.147859
         8         9        10        11     9        0.000000        1.017504         1    ;  uncertainty k = 1.516360
         8         9        10        11     9      180.000000        5.410036         2    ;  uncertainty k = 1.406424
         8         9        10        11     9        0.000000        1.183504         3    ;  uncertainty k = 0.850444
         8         9        10        11     9      180.000000        0.501686         4    ;  uncertainty k = 0.531969
         8         9        10        17     9        0.000000        1.033407         1    ;  uncertainty k = 1.197484
         8         9        10        17     9      180.000000        8.777788         2    ;  uncertainty k = 0.894510
         8         9        10        17     9        0.000000        1.597817         3    ;  uncertainty k = 0.630244
         8         9        10        17     9      180.000000        0.388499         4    ;  uncertainty k = 0.330553
         8        16        12        11     9        0.000000       -0.065679         1    ;  uncertainty k = 0.930309
         8        16        12        11     9      180.000000        5.131901         2    ;  uncertainty k = 1.526753
         8        16        12        11     9        0.000000        1.363593         3    ;  uncertainty k = 0.467515
         8        16        12        11     9      180.000000        0.395973         4    ;  uncertainty k = 0.312049
         8        16        12        13     9        0.000000        0.340421         1    ;  uncertainty k = 0.792595
         8        16        12        13     9      180.000000        6.024515         2    ;  uncertainty k = 0.492566
         8        16        12        13     9        0.000000        0.209998         3    ;  uncertainty k = 0.527723
         8        16        12        13     9      180.000000        0.585310         4    ;  uncertainty k = 0.374830
         8        16        15        14     9        0.000000       -0.258736         1    ;  uncertainty k = 0.813751
         8        16        15        14     9      180.000000       16.417004         2    ;  uncertainty k = 0.455553
         8        16        15        14     9        0.000000        0.694004         3    ;  uncertainty k = 0.637623
         8        16        15        14     9      180.000000        1.345365         4    ;  uncertainty k = 0.597909
         9         8         7        35     9        0.000000        8.959278         1    ;  uncertainty k = 0.586750
         9         8         7        35     9      180.000000        9.660200         2    ;  uncertainty k = 0.284454
         9         8         7        35     9        0.000000        1.086794         3    ;  uncertainty k = 0.308766
         9         8         7        35     9      180.000000       -0.062018         4    ;  uncertainty k = 0.151185
         9         8        16        12     9        0.000000       -0.508120         1    ;  uncertainty k = 0.649583
         9         8        16        12     9      180.000000        6.006908         2    ;  uncertainty k = 0.721136
         9         8        16        12     9        0.000000       -0.359701         3    ;  uncertainty k = 0.319120
         9         8        16        12     9      180.000000        0.564109         4    ;  uncertainty k = 0.160688
         9         8        16        15     9        0.000000       -1.431194         1    ;  uncertainty k = 2.218090
         9         8        16        15     9      180.000000        4.468096         2    ;  uncertainty k = 0.589322
         9         8        16        15     9        0.000000        0.454907         3    ;  uncertainty k = 0.408290
         9         8        16        15     9      180.000000        0.386347         4    ;  uncertainty k = 0.295938
         9        10        11        12     9        0.000000        0.021628         1    ;  uncertainty k = 0.553837
         9        10        11        12     9      180.000000       21.308096         2    ;  uncertainty k = 0.618902
         9        10        11        12     9        0.000000        0.542129         3    ;  uncertainty k = 0.330363
         9        10        11        12     9      180.000000        0.532400         4    ;  uncertainty k = 0.522570
         9        10        11        36     9        0.000000        0.413530         1    ;  uncertainty k = 1.053393
         9        10        11        36     9      180.000000       12.778725         2    ;  uncertainty k = 0.373644
         9        10        11        36     9        0.000000        1.633797         3    ;  uncertainty k = 0.611850
         9        10        11        36     9      180.000000        1.088488         4    ;  uncertainty k = 0.439227
         9        10        17        18     9        0.000000       -0.664937         1    ;  uncertainty k = 1.529430
         9        10        17        18     9      180.000000        5.190968         2    ;  uncertainty k = 0.310212
         9        10        17        18     9        0.000000        0.626483         3    ;  uncertainty k = 0.139063
         9        10        17        18     9      180.000000        0.138022         4    ;  uncertainty k = 0.108210
         9        10        17        25     9        0.000000       -0.651934         1    ;  uncertainty k = 1.095255
         9        10        17        25     9      180.000000        4.987793         2    ;  uncertainty k = 0.248324
         9        10        17        25     9        0.000000        0.229955         3    ;  uncertainty k = 0.125415
         9        10        17        25     9      180.000000        0.079873         4    ;  uncertainty k = 0.126807
        10         9         8        16     9        0.000000       -0.097990         1    ;  uncertainty k = 2.188335
        10         9         8        16     9      180.000000       13.736996         2    ;  uncertainty k = 0.596844
        10         9         8        16     9        0.000000        2.511290         3    ;  uncertainty k = 0.854062
        10         9         8        16     9      180.000000        1.344029         4    ;  uncertainty k = 0.393277
        10        11        12        13     9        0.000000        0.387181         1    ;  uncertainty k = 1.514247
        10        11        12        13     9      180.000000        4.670308         2    ;  uncertainty k = 0.661014
        10        11        12        13     9        0.000000        0.721864         3    ;  uncertainty k = 0.341868
        10        11        12        13     9      180.000000        0.327281         4    ;  uncertainty k = 0.086812
        10        11        12        16     9        0.000000       -0.099694         1    ;  uncertainty k = 1.661026
        10        11        12        16     9      180.000000        6.351588         2    ;  uncertainty k = 0.533147
        10        11        12        16     9        0.000000       -0.869395         3    ;  uncertainty k = 0.839908
        10        11        12        16     9      180.000000        0.595359         4    ;  uncertainty k = 0.141779
        10        17        18        19     9        0.000000        0.107699         1    ;  uncertainty k = 0.210224
        10        17        18        19     9      180.000000        7.665958         2    ;  uncertainty k = 0.732804
        10        17        18        19     9        0.000000        1.355361         3    ;  uncertainty k = 0.346435
        10        17        18        19     9      180.000000        1.758969         4    ;  uncertainty k = 0.220589
        10        17        18        39     9        0.000000       -0.137752         1    ;  uncertainty k = 0.319445
        10        17        18        39     9      180.000000        6.685777         2    ;  uncertainty k = 0.408773
        10        17        18        39     9        0.000000        0.656454         3    ;  uncertainty k = 0.213352
        10        17        18        39     9      180.000000        1.042753         4    ;  uncertainty k = 0.237903
        10        17        25        24     9        0.000000        0.049496         1    ;  uncertainty k = 0.428689
        10        17        25        24     9      180.000000       11.729094         2    ;  uncertainty k = 0.458405
        10        17        25        24     9        0.000000        1.475329         3    ;  uncertainty k = 0.288960
        10        17        25        24     9      180.000000        1.532237         4    ;  uncertainty k = 0.290873
        10        17        25        42     9        0.000000       -0.063715         1    ;  uncertainty k = 0.278554
        10        17        25        42     9      180.000000        7.830069         2    ;  uncertainty k = 0.209354
        10        17        25        42     9        0.000000        0.676711         3    ;  uncertainty k = 0.204520
        10        17        25        42     9      180.000000        1.081614         4    ;  uncertainty k = 0.144467
        11        10        17        18     9        0.000000       -0.094549         1    ;  uncertainty k = 0.451717
        11        10        17        18     9      180.000000        3.932791         2    ;  uncertainty k = 0.553630
        11        10        17        18     9        0.000000        0.597555         3    ;  uncertainty k = 0.154675
        11        10        17        18     9      180.000000       -0.305758         4    ;  uncertainty k = 0.170375
        11        10        17        25     9        0.000000        0.030894         1    ;  uncertainty k = 0.370785
        11        10        17        25     9      180.000000        3.810235         2    ;  uncertainty k = 0.457810
        11        10        17        25     9        0.000000        0.906992         3    ;  uncertainty k = 0.178878
        11        10        17        25     9      180.000000       -0.338984         4    ;  uncertainty k = 0.181872
        11        12        13        14     9        0.000000        0.238879         1    ;  uncertainty k = 1.268059
        11        12        13        14     9      180.000000        9.618342         2    ;  uncertainty k = 0.775422
        11        12        13        14     9        0.000000        0.407411         3    ;  uncertainty k = 0.759266
        11        12        13        14     9      180.000000        0.559103         4    ;  uncertainty k = 0.314044
        11        12        13        37     9        0.000000        0.591128         1    ;  uncertainty k = 1.266310
        11        12        13        37     9      180.000000        2.793743         2    ;  uncertainty k = 1.401654
        11        12        13        37     9        0.000000        1.235888         3    ;  uncertainty k = 0.395832
        11        12        13        37     9      180.000000        0.135474         4    ;  uncertainty k = 0.120547
        11        12        16        15     9        0.000000        0.318033         1    ;  uncertainty k = 0.549936
        11        12        16        15     9      180.000000        8.739854         2    ;  uncertainty k = 0.549403
        11        12        16        15     9        0.000000        0.448820         3    ;  uncertainty k = 0.411752
        11        12        16        15     9      180.000000        0.878822         4    ;  uncertainty k = 0.217911
        12        11        10        17     9        0.000000        0.556182         1    ;  uncertainty k = 0.298238
        12        11        10        17     9      180.000000       17.319555         2    ;  uncertainty k = 0.511813
        12        11        10        17     9        0.000000        1.935734         3    ;  uncertainty k = 0.418073
        12        11        10        17     9      180.000000        0.793581         4    ;  uncertainty k = 0.298700
        12        13        14        15     9        0.000000       -0.424259         1    ;  uncertainty k = 0.720471
        12        13        14        15     9      180.000000       21.948844         2    ;  uncertainty k = 0.272817
        12        13        14        15     9        0.000000       -9.453916         3    ;  uncertainty k = 0.408148
        12        13        14        15     9      180.000000        1.578950         4    ;  uncertainty k = 0.654473
        12        13        14        38     9        0.000000        0.427383         1    ;  uncertainty k = 0.828520
        12        13        14        38     9      180.000000       13.870596         2    ;  uncertainty k = 0.182398
        12        13        14        38     9        0.000000        1.815389         3    ;  uncertainty k = 0.320274
        12        13        14        38     9      180.000000        0.903574         4    ;  uncertainty k = 0.223947
        12        16        15        14     9        0.000000       -0.698106         1    ;  uncertainty k = 0.543243
        12        16        15        14     9      180.000000       23.970051         2    ;  uncertainty k = 0.495895
        12        16        15        14     9        0.000000      -11.206153         3    ;  uncertainty k = 1.161985
        12        16        15        14     9      180.000000        1.981051         4    ;  uncertainty k = 0.603215
        13        12        11        36     9        0.000000        1.230264         1    ;  uncertainty k = 1.227408
        13        12        11        36     9      180.000000        2.935755         2    ;  uncertainty k = 1.100422
        13        12        11        36     9        0.000000        1.028872         3    ;  uncertainty k = 0.513157
        13        12        11        36     9      180.000000        0.182735         4    ;  uncertainty k = 0.171564
        13        12        16        15     9        0.000000       -0.600194         1    ;  uncertainty k = 0.427509
        13        12        16        15     9      180.000000       12.032075         2    ;  uncertainty k = 0.540572
        13        12        16        15     9        0.000000       -4.884606         3    ;  uncertainty k = 1.243656
        13        12        16        15     9      180.000000        1.176890         4    ;  uncertainty k = 0.463084
        13        14        15        16     9        0.000000       -0.719371         1    ;  uncertainty k = 0.806440
        13        14        15        16     9      180.000000       16.306391         2    ;  uncertainty k = 0.372137
        13        14        15        16     9        0.000000       -5.546726         3    ;  uncertainty k = 0.784851
        13        14        15        16     9      180.000000        2.138755         4    ;  uncertainty k = 0.319469
        14        13        12        16     9        0.000000        0.425340         1    ;  uncertainty k = 0.911889
        14        13        12        16     9      180.000000       13.121731         2    ;  uncertainty k = 1.266973
        14        13        12        16     9        0.000000      -13.119121         3    ;  uncertainty k = 1.817832
        14        13        12        16     9      180.000000        1.693366         4    ;  uncertainty k = 0.377703
        15        14        13        37     9        0.000000       -0.210816         1    ;  uncertainty k = 0.409318
        15        14        13        37     9      180.000000       14.525460         2    ;  uncertainty k = 0.474526
        15        14        13        37     9        0.000000        1.399987         3    ;  uncertainty k = 0.472591
        15        14        13        37     9      180.000000        0.597840         4    ;  uncertainty k = 0.116226
        16         8         7        35     9        0.000000        5.299478         1    ;  uncertainty k = 1.071663
        16         8         7        35     9      180.000000        6.121003         2    ;  uncertainty k = 0.320629
        16         8         7        35     9        0.000000        1.371092         3    ;  uncertainty k = 0.426496
        16         8         7        35     9      180.000000       -0.017304         4    ;  uncertainty k = 0.216319
        16        12        11        36     9        0.000000        1.226557         1    ;  uncertainty k = 1.441980
        16        12        11        36     9      180.000000        4.293775         2    ;  uncertainty k = 0.542296
        16        12        11        36     9        0.000000        1.116225         3    ;  uncertainty k = 0.349206
        16        12        11        36     9      180.000000        0.197252         4    ;  uncertainty k = 0.128616
        16        12        13        37     9        0.000000        0.337817         1    ;  uncertainty k = 0.998519
        16        12        13        37     9      180.000000        7.392009         2    ;  uncertainty k = 0.385665
        16        12        13        37     9        0.000000        1.061986         3    ;  uncertainty k = 0.365240
        16        12        13        37     9      180.000000        0.171584         4    ;  uncertainty k = 0.281011
        16        15        14        38     9        0.000000       -0.095582         1    ;  uncertainty k = 0.393923
        16        15        14        38     9      180.000000       14.177386         2    ;  uncertainty k = 0.352374
        16        15        14        38     9        0.000000        1.588169         3    ;  uncertainty k = 0.688228
        16        15        14        38     9      180.000000        0.904862         4    ;  uncertainty k = 0.448977
        17        10        11        36     9        0.000000       -0.223367         1    ;  uncertainty k = 0.370019
        17        10        11        36     9      180.000000        9.235110         2    ;  uncertainty k = 0.472606
        17        10        11        36     9        0.000000        1.526673         3    ;  uncertainty k = 0.269792
        17        10        11        36     9      180.000000        0.990861         4    ;  uncertainty k = 0.143271
        17        18        19        20     9        0.000000        0.049411         1    ;  uncertainty k = 0.262553
        17        18        19        20     9      180.000000       16.619828         2    ;  uncertainty k = 0.251698
        17        18        19        20     9        0.000000       -0.079457         3    ;  uncertainty k = 0.514067
        17        18        19        20     9      180.000000        0.817177         4    ;  uncertainty k = 0.327680
        17        18        19        40     9        0.000000       -0.015034         1    ;  uncertainty k = 0.269575
        17        18        19        40     9      180.000000        8.982148         2    ;  uncertainty k = 0.335333
        17        18        19        40     9        0.000000        1.484165         3    ;  uncertainty k = 0.293494
        17        18        19        40     9      180.000000        1.938000         4    ;  uncertainty k = 0.213735
        17        25        24        20     9        0.000000       -0.286357         1    ;  uncertainty k = 0.450845
        17        25        24        20     9      180.000000       12.484341         2    ;  uncertainty k = 0.103049
        17        25        24        20     9        0.000000       -1.612660         3    ;  uncertainty k = 0.640813
        17        25        24        20     9      180.000000        0.765270         4    ;  uncertainty k = 0.200051
        17        25        24        23     9        0.000000        0.263968         1    ;  uncertainty k = 0.300486
        17        25        24        23     9      180.000000        9.994826         2    ;  uncertainty k = 0.722427
        17        25        24        23     9        0.000000        0.826420         3    ;  uncertainty k = 0.196465
        17        25        24        23     9      180.000000        1.226969         4    ;  uncertainty k = 0.354744
        18        17        25        24     9        0.000000        0.051392         1    ;  uncertainty k = 0.235885
        18        17        25        24     9      180.000000       13.767161         2    ;  uncertainty k = 0.225416
        18        17        25        24     9        0.000000        0.037756         3    ;  uncertainty k = 0.262330
        18        17        25        24     9      180.000000        0.932030         4    ;  uncertainty k = 0.279374
        18        17        25        42     9        0.000000        0.256950         1    ;  uncertainty k = 0.161232
        18        17        25        42     9      180.000000        7.925236         2    ;  uncertainty k = 0.538117
        18        17        25        42     9        0.000000        1.540183         3    ;  uncertainty k = 0.116520
        18        17        25        42     9      180.000000        1.693536         4    ;  uncertainty k = 0.246076
        18        19        20        21     9        0.000000        0.315711         1    ;  uncertainty k = 0.381141
        18        19        20        21     9      180.000000        9.429389         2    ;  uncertainty k = 0.473667
        18        19        20        21     9        0.000000        0.507205         3    ;  uncertainty k = 0.440881
        18        19        20        21     9      180.000000        1.181581         4    ;  uncertainty k = 0.235468
        18        19        20        24     9        0.000000       -0.136962         1    ;  uncertainty k = 0.166710
        18        19        20        24     9      180.000000       12.148611         2    ;  uncertainty k = 0.190575
        18        19        20        24     9        0.000000       -1.652519         3    ;  uncertainty k = 0.346086
        18        19        20        24     9      180.000000        0.730140         4    ;  uncertainty k = 0.164037
        19        18        17        25     9        0.000000        0.010226         1    ;  uncertainty k = 0.287725
        19        18        17        25     9      180.000000        8.386041         2    ;  uncertainty k = 0.516965
        19        18        17        25     9        0.000000       -0.024459         3    ;  uncertainty k = 0.450535
        19        18        17        25     9      180.000000        1.128805         4    ;  uncertainty k = 0.269475
        19        20        21        22     9        0.000000        0.663207         1    ;  uncertainty k = 0.928696
        19        20        21        22     9      180.000000       13.297270         2    ;  uncertainty k = 0.956665
        19        20        21        22     9        0.000000        0.315911         3    ;  uncertainty k = 0.705906
        19        20        21        22     9      180.000000        1.397369         4    ;  uncertainty k = 0.286285
        19        20        24        23     9        0.000000       -0.431389         1    ;  uncertainty k = 0.577769
        19        20        24        23     9      180.000000        7.780006         2    ;  uncertainty k = 0.142967
        19        20        24        23     9        0.000000       -0.245458         3    ;  uncertainty k = 0.384750
        19        20        24        23     9      180.000000        1.196817         4    ;  uncertainty k = 0.412826
        19        20        24        25     9        0.000000       -0.682277         1    ;  uncertainty k = 0.877533
        19        20        24        25     9      180.000000        6.814539         2    ;  uncertainty k = 0.704997
        19        20        24        25     9        0.000000        0.035366         3    ;  uncertainty k = 0.476988
        19        20        24        25     9      180.000000        1.009306         4    ;  uncertainty k = 0.380945
        20        19        18        39     9        0.000000        0.076710         1    ;  uncertainty k = 0.127978
        20        19        18        39     9      180.000000       11.855665         2    ;  uncertainty k = 0.218967
        20        19        18        39     9        0.000000        1.518707         3    ;  uncertainty k = 0.327969
        20        19        18        39     9      180.000000        1.667077         4    ;  uncertainty k = 0.221093
        20        21        22        23     9        0.000000       -1.137872         1    ;  uncertainty k = 1.607070
        20        21        22        23     9      180.000000       34.165285         2    ;  uncertainty k = 0.739308
        20        21        22        23     9        0.000000       -7.071497         3    ;  uncertainty k = 3.119745
        20        21        22        23     9      180.000000        2.241661         4    ;  uncertainty k = 0.300907
        20        24        23        22     9        0.000000        0.356453         1    ;  uncertainty k = 0.736299
        20        24        23        22     9      180.000000       17.052177         2    ;  uncertainty k = 1.191986
        20        24        23        22     9        0.000000      -10.255073         3    ;  uncertainty k = 1.672673
        20        24        23        22     9      180.000000        0.942827         4    ;  uncertainty k = 0.635224
        20        24        23        41     9        0.000000        4.474834         1    ;  uncertainty k = 2.839573
        20        24        23        41     9      180.000000        6.991307         2    ;  uncertainty k = 1.067350
        20        24        23        41     9        0.000000        1.241523         3    ;  uncertainty k = 0.276853
        20        24        23        41     9      180.000000        0.144706         4    ;  uncertainty k = 0.282507
        20        24        25        42     9        0.000000       -0.181395         1    ;  uncertainty k = 0.533997
        20        24        25        42     9      180.000000        6.854824         2    ;  uncertainty k = 1.157953
        20        24        25        42     9        0.000000        1.163865         3    ;  uncertainty k = 0.252031
        20        24        25        42     9      180.000000        1.074469         4    ;  uncertainty k = 0.389545
        21        20        19        40     9        0.000000       -0.079677         1    ;  uncertainty k = 0.607383
        21        20        19        40     9      180.000000        5.432210         2    ;  uncertainty k = 0.831521
        21        20        19        40     9        0.000000        0.915287         3    ;  uncertainty k = 0.379915
        21        20        19        40     9      180.000000        0.767605         4    ;  uncertainty k = 0.350663
        21        20        24        23     9        0.000000       -0.458430         1    ;  uncertainty k = 0.784219
        21        20        24        23     9      180.000000       13.600250         2    ;  uncertainty k = 0.929189
        21        20        24        23     9        0.000000       -5.626650         3    ;  uncertainty k = 1.752464
        21        20        24        23     9      180.000000        1.947763         4    ;  uncertainty k = 0.833234
        21        20        24        25     9        0.000000       -0.028978         1    ;  uncertainty k = 0.838131
        21        20        24        25     9      180.000000        8.238548         2    ;  uncertainty k = 0.526024
        21        20        24        25     9        0.000000       -0.582836         3    ;  uncertainty k = 0.490321
        21        20        24        25     9      180.000000        1.542865         4    ;  uncertainty k = 0.463579
        21        22        23        24     9        0.000000       -0.106289         1    ;  uncertainty k = 0.451059
        21        22        23        24     9      180.000000       21.182462         2    ;  uncertainty k = 0.151588
        21        22        23        24     9        0.000000       -6.314536         3    ;  uncertainty k = 1.358817
        21        22        23        24     9      180.000000        1.291068         4    ;  uncertainty k = 0.425353
        21        22        23        41     9        0.000000        3.198871         1    ;  uncertainty k = 1.087760
        21        22        23        41     9      180.000000       19.007957         2    ;  uncertainty k = 0.186049
        21        22        23        41     9        0.000000        1.885013         3    ;  uncertainty k = 1.081001
        21        22        23        41     9      180.000000       -0.721532         4    ;  uncertainty k = 0.298481
        22        21        20        24     9        0.000000       -0.257168         1    ;  uncertainty k = 0.626188
        22        21        20        24     9      180.000000       17.423545         2    ;  uncertainty k = 0.708922
        22        21        20        24     9        0.000000       -9.357908         3    ;  uncertainty k = 1.631698
        22        21        20        24     9      180.000000        2.165875         4    ;  uncertainty k = 0.501266
        22        23        24        25     9        0.000000        0.730192         1    ;  uncertainty k = 1.060404
        22        23        24        25     9      180.000000        6.431917         2    ;  uncertainty k = 0.640830
        22        23        24        25     9        0.000000        0.397809         3    ;  uncertainty k = 0.843637
        22        23        24        25     9      180.000000        0.480546         4    ;  uncertainty k = 0.396987
        23        24        25        42     9        0.000000        0.300420         1    ;  uncertainty k = 0.360209
        23        24        25        42     9      180.000000        5.632298         2    ;  uncertainty k = 1.053444
        23        24        25        42     9        0.000000        1.125144         3    ;  uncertainty k = 0.250382
        23        24        25        42     9      180.000000        0.788461         4    ;  uncertainty k = 0.434139
        24        20        19        40     9        0.000000       -0.082509         1    ;  uncertainty k = 0.520529
        24        20        19        40     9      180.000000        6.614074         2    ;  uncertainty k = 0.817489
        24        20        19        40     9        0.000000        1.156965         3    ;  uncertainty k = 0.154410
        24        20        19        40     9      180.000000        1.046621         4    ;  uncertainty k = 0.415535
        25        17        18        39     9        0.000000       -0.112420         1    ;  uncertainty k = 0.202875
        25        17        18        39     9      180.000000        6.055696         2    ;  uncertainty k = 0.620421
        25        17        18        39     9        0.000000        1.199951         3    ;  uncertainty k = 0.105711
        25        17        18        39     9      180.000000        1.498814         4    ;  uncertainty k = 0.250986
        25        24        23        41     9        0.000000        2.216815         1    ;  uncertainty k = 0.199798
        25        24        23        41     9      180.000000        1.600170         2    ;  uncertainty k = 0.739876
        25        24        23        41     9        0.000000        1.251251         3    ;  uncertainty k = 0.718172
        25        24        23        41     9      180.000000        0.131466         4    ;  uncertainty k = 0.169570
        26         6         5        34     9        0.000000        0.060116         1    ;  uncertainty k = 0.285327
        26         6         5        34     9      180.000000        6.705137         2    ;  uncertainty k = 0.811645
        26         6         5        34     9        0.000000        1.254749         3    ;  uncertainty k = 0.282861
        26         6         5        34     9      180.000000        1.489480         4    ;  uncertainty k = 0.123486
        26         6         7        35     9        0.000000        3.766903         1    ;  uncertainty k = 0.282406
        26         6         7        35     9      180.000000        4.224135         2    ;  uncertainty k = 0.219472
        26         6         7        35     9        0.000000        0.731781         3    ;  uncertainty k = 0.239894
        26         6         7        35     9      180.000000        0.435986         4    ;  uncertainty k = 0.107235
        26        27        28        29     9        0.000000        1.341409         1    ;  uncertainty k = 0.791973
        26        27        28        29     9      180.000000        6.361826         2    ;  uncertainty k = 0.220151
        26        27        28        29     9        0.000000       -0.225719         3    ;  uncertainty k = 0.095998
        26        27        28        29     9      180.000000        0.006631         4    ;  uncertainty k = 0.110606
        27         3         4        33     9        0.000000       -0.032441         1    ;  uncertainty k = 0.368382
        27         3         4        33     9      180.000000        5.959632         2    ;  uncertainty k = 0.432853
        27         3         4        33     9        0.000000        1.321132         3    ;  uncertainty k = 0.261791
        27         3         4        33     9      180.000000        1.598351         4    ;  uncertainty k = 0.068542
        27        28        29        44     9        0.000000        1.110243         1    ;  uncertainty k = 0.221947
        27        28        29        44     9      180.000000       -2.083404         2    ;  uncertainty k = 0.117430
        27        28        29        44     9        0.000000        1.033193         3    ;  uncertainty k = 0.049823
        27        28        29        44     9      180.000000        0.223294         4    ;  uncertainty k = 0.039928
        27        28        29        45     9        0.000000        1.110243         1    ;  uncertainty k = 0.221947
        27        28        29        45     9      180.000000       -2.083404         2    ;  uncertainty k = 0.117430
        27        28        29        45     9        0.000000        1.033193         3    ;  uncertainty k = 0.049823
        27        28        29        45     9      180.000000        0.223294         4    ;  uncertainty k = 0.039928
        27        28        29        46     9        0.000000        1.110243         1    ;  uncertainty k = 0.221947
        27        28        29        46     9      180.000000       -2.083404         2    ;  uncertainty k = 0.117430
        27        28        29        46     9        0.000000        1.033193         3    ;  uncertainty k = 0.049823
        27        28        29        46     9      180.000000        0.223294         4    ;  uncertainty k = 0.039928
        28        27        26        43     9        0.000000       -0.013362         1    ;  uncertainty k = 0.227812
        28        27        26        43     9      180.000000        9.629865         2    ;  uncertainty k = 0.341224
        28        27        26        43     9        0.000000        0.885574         3    ;  uncertainty k = 0.134168
        28        27        26        43     9      180.000000        1.294493         4    ;  uncertainty k = 0.314813
        33         4         5        34     9        0.000000       -0.108356         1    ;  uncertainty k = 0.187628
        33         4         5        34     9      180.000000        7.451232         2    ;  uncertainty k = 0.478631
        33         4         5        34     9        0.000000       -0.297348         3    ;  uncertainty k = 0.298879
        33         4         5        34     9      180.000000        0.257401         4    ;  uncertainty k = 0.173209
        37        13        14        38     9        0.000000       -0.311075         1    ;  uncertainty k = 0.492453
        37        13        14        38     9      180.000000        5.384359         2    ;  uncertainty k = 0.598234
        37        13        14        38     9        0.000000        1.243313         3    ;  uncertainty k = 0.430720
        37        13        14        38     9      180.000000        0.271791         4    ;  uncertainty k = 0.092255
        39        18        19        40     9        0.000000       -0.303436         1    ;  uncertainty k = 0.316905
        39        18        19        40     9      180.000000        8.214750         2    ;  uncertainty k = 0.369839
        39        18        19        40     9        0.000000       -0.091477         3    ;  uncertainty k = 0.240125
        39        18        19        40     9      180.000000        0.373979         4    ;  uncertainty k = 0.258292

[ dihedrals ] ; impropers
;       ai        aj        ak        al funct           phase               k        pn
         3         2         4        27     4      180.000000       15.206029         2    ;  uncertainty k = 0.074967
         3         4        27         2     4      180.000000       15.206029         2    ;  uncertainty k = 0.074967
         3        27         2         4     4      180.000000       15.206029         2    ;  uncertainty k = 0.074967
         4         3         5        33     4      180.000000        2.008335         2    ;  uncertainty k = 0.230964
         4         5        33         3     4      180.000000        2.008335         2    ;  uncertainty k = 0.230964
         4        33         3         5     4      180.000000        2.008335         2    ;  uncertainty k = 0.230964
         5         4         6        34     4      180.000000        2.607477         2    ;  uncertainty k = 0.379217
         5         6        34         4     4      180.000000        2.607477         2    ;  uncertainty k = 0.379217
         5        34         4         6     4      180.000000        2.607477         2    ;  uncertainty k = 0.379217
         6         5         7        26     4      180.000000       17.507517         2    ;  uncertainty k = 0.057196
         6         7        26         5     4      180.000000       17.507517         2    ;  uncertainty k = 0.057196
         6        26         5         7     4      180.000000       17.507517         2    ;  uncertainty k = 0.057196
         7         6         8        35     4      180.000000        1.622505         2    ;  uncertainty k = 0.666333
         7         8        35         6     4      180.000000        1.622505         2    ;  uncertainty k = 0.666333
         7        35         6         8     4      180.000000        1.622505         2    ;  uncertainty k = 0.666333
         8         7         9        16     4      180.000000       28.362349         2    ;  uncertainty k = 0.062990
         8         9        16         7     4      180.000000       28.362349         2    ;  uncertainty k = 0.062990
         8        16         7         9     4      180.000000       28.362349         2    ;  uncertainty k = 0.062990
        10         9        11        17     4      180.000000       19.213395         2    ;  uncertainty k = 0.081029
        10        11        17         9     4      180.000000       19.213395         2    ;  uncertainty k = 0.081029
        10        17         9        11     4      180.000000       19.213395         2    ;  uncertainty k = 0.081029
        11        10        12        36     4      180.000000        1.291987         2    ;  uncertainty k = 1.146498
        11        12        36        10     4      180.000000        1.291987         2    ;  uncertainty k = 1.146498
        11        36        10        12     4      180.000000        1.291987         2    ;  uncertainty k = 1.146498
        12        11        13        16     4      180.000000        1.588086         2    ;  uncertainty k = 1.398469
        12        13        16        11     4      180.000000        1.588086         2    ;  uncertainty k = 1.398469
        12        16        11        13     4      180.000000        1.588086         2    ;  uncertainty k = 1.398469
        13        12        14        37     4      180.000000        0.105195         2    ;  uncertainty k = 0.235223
        13        14        37        12     4      180.000000        0.105195         2    ;  uncertainty k = 0.235223
        13        37        12        14     4      180.000000        0.105195         2    ;  uncertainty k = 0.235223
        14        13        15        38     4      180.000000        1.779599         2    ;  uncertainty k = 0.230150
        14        15        38        13     4      180.000000        1.779599         2    ;  uncertainty k = 0.230150
        14        38        13        15     4      180.000000        1.779599         2    ;  uncertainty k = 0.230150
        16         8        12        15     4      180.000000        2.165379         2    ;  uncertainty k = 0.627946
        16        12        15         8     4      180.000000        2.165379         2    ;  uncertainty k = 0.627946
        16        15         8        12     4      180.000000        2.165379         2    ;  uncertainty k = 0.627946
        17        10        18        25     4      180.000000       12.067851         2    ;  uncertainty k = 0.090047
        17        18        25        10     4      180.000000       12.067851         2    ;  uncertainty k = 0.090047
        17        25        10        18     4      180.000000       12.067851         2    ;  uncertainty k = 0.090047
        18        17        19        39     4      180.000000        3.544279         2    ;  uncertainty k = 0.158010
        18        19        39        17     4      180.000000        3.544279         2    ;  uncertainty k = 0.158010
        18        39        17        19     4      180.000000        3.544279         2    ;  uncertainty k = 0.158010
        19        18        20        40     4      180.000000        4.795521         2    ;  uncertainty k = 0.178826
        19        20        40        18     4      180.000000        4.795521         2    ;  uncertainty k = 0.178826
        19        40        18        20     4      180.000000        4.795521         2    ;  uncertainty k = 0.178826
        20        19        21        24     4      180.000000        0.229145         2    ;  uncertainty k = 0.512383
        20        21        24        19     4      180.000000        0.229145         2    ;  uncertainty k = 0.512383
        20        24        19        21     4      180.000000        0.229145         2    ;  uncertainty k = 0.512383
        24        20        23        25     4      180.000000        0.345259         2    ;  uncertainty k = 0.772022
        24        23        25        20     4      180.000000        0.345259         2    ;  uncertainty k = 0.772022
        24        25        20        23     4      180.000000        0.345259         2    ;  uncertainty k = 0.772022
        25        17        24        42     4      180.000000        2.855818         2    ;  uncertainty k = 0.138348
        25        24        42        17     4      180.000000        2.855818         2    ;  uncertainty k = 0.138348
        25        42        17        24     4      180.000000        2.855818         2    ;  uncertainty k = 0.138348
        26         6        27        43     4      180.000000        1.689048         2    ;  uncertainty k = 0.529654
        26        27        43         6     4      180.000000        1.689048         2    ;  uncertainty k = 0.529654
        26        43         6        27     4      180.000000        1.689048         2    ;  uncertainty k = 0.529654
        27         3        26        28     4      180.000000       16.672261         2    ;  uncertainty k = 0.075717
        27        26        28         3     4      180.000000       16.672261         2    ;  uncertainty k = 0.075717
        27        28         3        26     4      180.000000       16.672261         2    ;  uncertainty k = 0.075717

[ pairs ]
;       ai        aj funct
         1         4     1
         1        27     1
         2         5     1
         2        26     1
         2        28     1
         2        33     1
         3         6     1
         3        29     1
         3        30     1
         3        31     1
         3        32     1
         3        34     1
         3        43     1
         4         7     1
         4        26     1
         4        28     1
         5         8     1
         5        27     1
         5        35     1
         5        43     1
         6         9     1
         6        16     1
         6        28     1
         6        33     1
         7        10     1
         7        12     1
         7        15     1
         7        27     1
         7        34     1
         7        43     1
         8        11     1
         8        13     1
         8        14     1
         8        17     1
         8        26     1
         9        12     1
         9        15     1
         9        18     1
         9        25     1
         9        35     1
         9        36     1
        10        13     1
        10        16     1
        10        19     1
        10        24     1
        10        39     1
        10        42     1
        11        14     1
        11        15     1
        11        18     1
        11        25     1
        11        37     1
        12        17     1
        12        38     1
        13        36     1
        15        37     1
        16        35     1
        16        36     1
        16        37     1
        16        38     1
        17        20     1
        17        23     1
        17        36     1
        17        40     1
        18        21     1
        18        24     1
        18        42     1
        19        22     1
        19        23     1
        19        25     1
        20        39     1
        20        41     1
        20        42     1
        21        25     1
        21        40     1
        21        41     1
        22        25     1
        23        42     1
        24        40     1
        25        39     1
        25        41     1
        26        29     1
        26        34     1
        26        35     1
        27        33     1
        27        44     1
        27        45     1
        27        46     1
        28        43     1
        33        34     1
        37        38     1
        39        40     1
