; ITP file created by ByteFF-joint-25, 2026-02-17 09:38:19.644124

[ atomtypes ]
;name           bonded.type        at.num        mass        charge   ptype           sigma         epsilon
 c0bf                                   6      0.0000       0.00000       A     3.39774e-01     4.50890e-01    ;  uncertainty sigma = 0.000006, epsilon = 0.000514
 o1bf                                   8      0.0000       0.00000       A     3.15641e-01     3.03850e-01    ;  uncertainty sigma = 0.000015, epsilon = 0.000455
 c2bf                                   6      0.0000       0.00000       A     3.31526e-01     4.13474e-01    ;  uncertainty sigma = 0.000006, epsilon = 0.000721
 c3bf                                   6      0.0000       0.00000       A     3.31529e-01     4.13640e-01    ;  uncertainty sigma = 0.000005, epsilon = 0.000792
 c4bf                                   6      0.0000       0.00000       A     3.31525e-01     4.13354e-01    ;  uncertainty sigma = 0.000006, epsilon = 0.000662
 c5bf                                   6      0.0000       0.00000       A     3.31528e-01     4.13588e-01    ;  uncertainty sigma = 0.000010, epsilon = 0.000818
 n6bf                                   7      0.0000       0.00000       A     3.27852e-01     6.46169e-01    ;  uncertainty sigma = 0.000043, epsilon = 0.003219
 c7bf                                   6      0.0000       0.00000       A     3.31526e-01     4.13887e-01    ;  uncertainty sigma = 0.000017, epsilon = 0.001682
 n8bf                                   7      0.0000       0.00000       A     3.38466e-01     3.93319e-01    ;  uncertainty sigma = 0.000031, epsilon = 0.000671
 c9bf                                   6      0.0000       0.00000       A     3.31556e-01     4.13456e-01    ;  uncertainty sigma = 0.000023, epsilon = 0.000743
 c10bf                                  6      0.0000       0.00000       A     3.31559e-01     4.13603e-01    ;  uncertainty sigma = 0.000013, epsilon = 0.001559
 n11bf                                  7      0.0000       0.00000       A     3.20547e-01     8.53303e-01    ;  uncertainty sigma = 0.000017, epsilon = 0.000844
 c12bf                                  6      0.0000       0.00000       A     3.31503e-01     4.12978e-01    ;  uncertainty sigma = 0.000012, epsilon = 0.001136
 c13bf                                  6      0.0000       0.00000       A     3.31531e-01     4.13187e-01    ;  uncertainty sigma = 0.000008, epsilon = 0.000699
 n14bf                                  7      0.0000       0.00000       A     3.38427e-01     3.92895e-01    ;  uncertainty sigma = 0.000039, epsilon = 0.000415
 c15bf                                  6      0.0000       0.00000       A     3.31554e-01     4.12537e-01    ;  uncertainty sigma = 0.000015, epsilon = 0.000432
 c16bf                                  6      0.0000       0.00000       A     3.31508e-01     4.13228e-01    ;  uncertainty sigma = 0.000016, epsilon = 0.000937
 c17bf                                  6      0.0000       0.00000       A     3.31525e-01     4.13230e-01    ;  uncertainty sigma = 0.000007, epsilon = 0.000576
 c18bf                                  6      0.0000       0.00000       A     3.31519e-01     4.13156e-01    ;  uncertainty sigma = 0.000003, epsilon = 0.000505
 c19bf                                  6      0.0000       0.00000       A     3.31514e-01     4.13202e-01    ;  uncertainty sigma = 0.000011, epsilon = 0.000838
 c20bf                                  6      0.0000       0.00000       A     3.39777e-01     4.51074e-01    ;  uncertainty sigma = 0.000006, epsilon = 0.000494
 c21bf                                  6      0.0000       0.00000       A     3.31501e-01     4.13062e-01    ;  uncertainty sigma = 0.000014, epsilon = 0.000953
 c22bf                                  6      0.0000       0.00000       A     3.31521e-01     4.13184e-01    ;  uncertainty sigma = 0.000014, epsilon = 0.000900
 c23bf                                  6      0.0000       0.00000       A     3.31543e-01     4.13271e-01    ;  uncertainty sigma = 0.000027, epsilon = 0.001012
 o24bf                                  8      0.0000       0.00000       A     3.04808e-01     6.12420e-01    ;  uncertainty sigma = 0.000019, epsilon = 0.001913
 n25bf                                  7      0.0000       0.00000       A     3.36029e-01     3.53843e-01    ;  uncertainty sigma = 0.000043, epsilon = 0.001432
 c26bf                                  6      0.0000       0.00000       A     3.31516e-01     4.13129e-01    ;  uncertainty sigma = 0.000010, epsilon = 0.000957
 c27bf                                  6      0.0000       0.00000       A     3.31531e-01     4.13728e-01    ;  uncertainty sigma = 0.000008, epsilon = 0.001049
 o28bf                                  8      0.0000       0.00000       A     3.15636e-01     3.03949e-01    ;  uncertainty sigma = 0.000015, epsilon = 0.000670
 c29bf                                  6      0.0000       0.00000       A     3.39774e-01     4.50890e-01    ;  uncertainty sigma = 0.000006, epsilon = 0.000514
 h30bf                                  1      0.0000       0.00000       A     2.42205e-01     8.67538e-02    ;  uncertainty sigma = 0.000015, epsilon = 0.000624
 h31bf                                  1      0.0000       0.00000       A     2.42205e-01     8.67538e-02    ;  uncertainty sigma = 0.000015, epsilon = 0.000624
 h32bf                                  1      0.0000       0.00000       A     2.42205e-01     8.67538e-02    ;  uncertainty sigma = 0.000015, epsilon = 0.000624
 h33bf                                  1      0.0000       0.00000       A     2.62570e-01     6.70700e-02    ;  uncertainty sigma = 0.000012, epsilon = 0.000330
 h34bf                                  1      0.0000       0.00000       A     2.62564e-01     6.70248e-02    ;  uncertainty sigma = 0.000015, epsilon = 0.000426
 h35bf                                  1      0.0000       0.00000       A     1.10708e-01     4.06502e-02    ;  uncertainty sigma = 0.000118, epsilon = 0.000465
 h36bf                                  1      0.0000       0.00000       A     2.53612e-01     6.73649e-02    ;  uncertainty sigma = 0.000081, epsilon = 0.000889
 h37bf                                  1      0.0000       0.00000       A     2.53649e-01     6.68496e-02    ;  uncertainty sigma = 0.000023, epsilon = 0.000657
 h38bf                                  1      0.0000       0.00000       A     2.53645e-01     6.69492e-02    ;  uncertainty sigma = 0.000020, epsilon = 0.000834
 h39bf                                  1      0.0000       0.00000       A     2.62565e-01     6.70447e-02    ;  uncertainty sigma = 0.000011, epsilon = 0.000506
 h40bf                                  1      0.0000       0.00000       A     2.62562e-01     6.70715e-02    ;  uncertainty sigma = 0.000009, epsilon = 0.000396
 h41bf                                  1      0.0000       0.00000       A     2.60030e-01     8.67018e-02    ;  uncertainty sigma = 0.000007, epsilon = 0.000472
 h42bf                                  1      0.0000       0.00000       A     2.60030e-01     8.67018e-02    ;  uncertainty sigma = 0.000007, epsilon = 0.000472
 h43bf                                  1      0.0000       0.00000       A     2.60030e-01     8.67018e-02    ;  uncertainty sigma = 0.000007, epsilon = 0.000472
 h44bf                                  1      0.0000       0.00000       A     2.62576e-01     6.74075e-02    ;  uncertainty sigma = 0.000013, epsilon = 0.000894
 h45bf                                  1      0.0000       0.00000       A     1.10644e-01     4.14126e-02    ;  uncertainty sigma = 0.000051, epsilon = 0.000340
 h46bf                                  1      0.0000       0.00000       A     1.10644e-01     4.14126e-02    ;  uncertainty sigma = 0.000051, epsilon = 0.000340
 h47bf                                  1      0.0000       0.00000       A     2.62560e-01     6.71373e-02    ;  uncertainty sigma = 0.000017, epsilon = 0.000539
 h48bf                                  1      0.0000       0.00000       A     2.42205e-01     8.67538e-02    ;  uncertainty sigma = 0.000015, epsilon = 0.000624
 h49bf                                  1      0.0000       0.00000       A     2.42205e-01     8.67538e-02    ;  uncertainty sigma = 0.000015, epsilon = 0.000624
 h50bf                                  1      0.0000       0.00000       A     2.42205e-01     8.67538e-02    ;  uncertainty sigma = 0.000015, epsilon = 0.000624

[ moleculetype ]
;name             nrexcl
 MOL                   3

[ atoms ]
;       nr            type      resi   res      atom      cgnr      charge          mass ; qtot
         1            c0bf         1   UNL        c0         1     0.11960       12.0110 ; qtot    0.120
         2            o1bf         1   UNL        o1         2    -0.32010       15.9990 ; qtot   -0.201
         3            c2bf         1   UNL        c2         3     0.07584       12.0110 ; qtot   -0.125
         4            c3bf         1   UNL        c3         4    -0.15014       12.0110 ; qtot   -0.275
         5            c4bf         1   UNL        c4         5    -0.15106       12.0110 ; qtot   -0.426
         6            c5bf         1   UNL        c5         6     0.16694       12.0110 ; qtot   -0.259
         7            n6bf         1   UNL        n6         7    -0.73903       14.0070 ; qtot   -0.998
         8            c7bf         1   UNL        c7         8     0.75065       12.0110 ; qtot   -0.247
         9            n8bf         1   UNL        n8         9    -0.76815       14.0070 ; qtot   -1.015
        10            c9bf         1   UNL        c9        10     0.47497       12.0110 ; qtot   -0.540
        11           c10bf         1   UNL       c10        11    -0.21980       12.0110 ; qtot   -0.760
        12           n11bf         1   UNL       n11        12     0.05302       14.0070 ; qtot   -0.707
        13           c12bf         1   UNL       c12        13    -0.21243       12.0110 ; qtot   -0.920
        14           c13bf         1   UNL       c13        14     0.01175       12.0110 ; qtot   -0.908
        15           n14bf         1   UNL       n14        15    -0.27543       14.0070 ; qtot   -1.183
        16           c15bf         1   UNL       c15        16    -0.18460       12.0110 ; qtot   -1.368
        17           c16bf         1   UNL       c16        17    -0.12868       12.0110 ; qtot   -1.497
        18           c17bf         1   UNL       c17        18    -0.08981       12.0110 ; qtot   -1.586
        19           c18bf         1   UNL       c18        19    -0.14732       12.0110 ; qtot   -1.734
        20           c19bf         1   UNL       c19        20    -0.01923       12.0110 ; qtot   -1.753
        21           c20bf         1   UNL       c20        21    -0.05307       12.0110 ; qtot   -1.806
        22           c21bf         1   UNL       c21        22    -0.15628       12.0110 ; qtot   -1.962
        23           c22bf         1   UNL       c22        23    -0.06955       12.0110 ; qtot   -2.032
        24           c23bf         1   UNL       c23        24     0.66976       12.0110 ; qtot   -1.362
        25           o24bf         1   UNL       o24        25    -0.59248       15.9990 ; qtot   -1.955
        26           n25bf         1   UNL       n25        26    -0.66047       14.0070 ; qtot   -2.615
        27           c26bf         1   UNL       c26        27    -0.20840       12.0110 ; qtot   -2.824
        28           c27bf         1   UNL       c27        28     0.11790       12.0110 ; qtot   -2.706
        29           o28bf         1   UNL       o28        29    -0.31927       15.9990 ; qtot   -3.025
        30           c29bf         1   UNL       c29        30     0.11995       12.0110 ; qtot   -2.905
        31           h30bf         1   UNL       h30        31     0.04337        1.0080 ; qtot   -2.862
        32           h31bf         1   UNL       h31        32     0.04337        1.0080 ; qtot   -2.818
        33           h32bf         1   UNL       h32        33     0.04337        1.0080 ; qtot   -2.775
        34           h33bf         1   UNL       h33        34     0.14091        1.0080 ; qtot   -2.634
        35           h34bf         1   UNL       h34        35     0.15302        1.0080 ; qtot   -2.481
        36           h35bf         1   UNL       h35        36     0.46165        1.0080 ; qtot   -2.019
        37           h36bf         1   UNL       h36        37     0.17424        1.0080 ; qtot   -1.845
        38           h37bf         1   UNL       h37        38     0.18619        1.0080 ; qtot   -1.659
        39           h38bf         1   UNL       h38        39     0.17120        1.0080 ; qtot   -1.488
        40           h39bf         1   UNL       h39        40     0.14168        1.0080 ; qtot   -1.346
        41           h40bf         1   UNL       h40        41     0.13601        1.0080 ; qtot   -1.210
        42           h41bf         1   UNL       h41        42     0.05057        1.0080 ; qtot   -1.159
        43           h42bf         1   UNL       h42        43     0.05057        1.0080 ; qtot   -1.109
        44           h43bf         1   UNL       h43        44     0.05057        1.0080 ; qtot   -1.058
        45           h44bf         1   UNL       h44        45     0.15391        1.0080 ; qtot   -0.904
        46           h45bf         1   UNL       h45        46     0.30928        1.0080 ; qtot   -0.595
        47           h46bf         1   UNL       h46        47     0.30928        1.0080 ; qtot   -0.286
        48           h47bf         1   UNL       h47        48     0.15565        1.0080 ; qtot   -0.130
        49           h48bf         1   UNL       h48        49     0.04337        1.0080 ; qtot   -0.087
        50           h49bf         1   UNL       h49        50     0.04337        1.0080 ; qtot   -0.043
        51           h50bf         1   UNL       h50        51     0.04334        1.0080 ; qtot    0.000

[ bonds ]
;       ai        aj funct               r               k
         1         2     1        0.142504   247060.424561    ;  uncertainty r = 0.000030, k = 4.357279
         1        31     1        0.109559   311162.501807    ;  uncertainty r = 0.000020, k = 1.272505
         1        32     1        0.109559   311162.501807    ;  uncertainty r = 0.000020, k = 1.272505
         1        33     1        0.109559   311162.501807    ;  uncertainty r = 0.000020, k = 1.272505
         2         3     1        0.136892   321113.062012    ;  uncertainty r = 0.000059, k = 4.532937
         3         4     1        0.139488   349133.425439    ;  uncertainty r = 0.000031, k = 2.724656
         3        28     1        0.140227   349402.969629    ;  uncertainty r = 0.000054, k = 7.584627
         4         5     1        0.139369   369864.655127    ;  uncertainty r = 0.000071, k = 2.574425
         4        34     1        0.108705   336290.634375    ;  uncertainty r = 0.000024, k = 1.905467
         5         6     1        0.139713   352891.517529    ;  uncertainty r = 0.000095, k = 4.859039
         5        35     1        0.108700   336152.248779    ;  uncertainty r = 0.000031, k = 1.798265
         6         7     1        0.141333   346668.455957    ;  uncertainty r = 0.000119, k = 12.315044
         6        27     1        0.140236   355873.307031    ;  uncertainty r = 0.000083, k = 5.100092
         7         8     1        0.137988   330814.533252    ;  uncertainty r = 0.000224, k = 31.605630
         7        36     1        0.102091   426736.870264    ;  uncertainty r = 0.000039, k = 5.302920
         8         9     1        0.132294   443005.770996    ;  uncertainty r = 0.000186, k = 13.577353
         8        16     1        0.143016   286566.945654    ;  uncertainty r = 0.000095, k = 10.976562
         9        10     1        0.137509   259598.736670    ;  uncertainty r = 0.000250, k = 25.283716
        10        11     1        0.136955   381436.030127    ;  uncertainty r = 0.000105, k = 11.906471
        10        17     1        0.147174   263587.454395    ;  uncertainty r = 0.000136, k = 10.506998
        11        12     1        0.137882   325401.789697    ;  uncertainty r = 0.000063, k = 6.041351
        11        37     1        0.108486   340798.827979    ;  uncertainty r = 0.000072, k = 2.317242
        12        13     1        0.137812   342777.341064    ;  uncertainty r = 0.000099, k = 5.087994
        12        16     1        0.139016   307421.213135    ;  uncertainty r = 0.000151, k = 23.940608
        13        14     1        0.138713   413349.321582    ;  uncertainty r = 0.000044, k = 11.515297
        13        38     1        0.108153   341281.147363    ;  uncertainty r = 0.000029, k = 4.725641
        14        15     1        0.136694   264650.947314    ;  uncertainty r = 0.000104, k = 21.676776
        14        39     1        0.108374   336399.652295    ;  uncertainty r = 0.000052, k = 2.763004
        15        16     1        0.133277   447135.785547    ;  uncertainty r = 0.000097, k = 11.841721
        17        18     1        0.139878   349503.815674    ;  uncertainty r = 0.000043, k = 3.204261
        17        23     1        0.139524   341575.845605    ;  uncertainty r = 0.000025, k = 2.027085
        18        19     1        0.139257   369532.110889    ;  uncertainty r = 0.000052, k = 2.431225
        18        40     1        0.108723   333798.953076    ;  uncertainty r = 0.000017, k = 1.070966
        19        20     1        0.140148   349598.992480    ;  uncertainty r = 0.000044, k = 2.145624
        19        41     1        0.108830   333682.912451    ;  uncertainty r = 0.000011, k = 1.313016
        20        21     1        0.151306   234033.715234    ;  uncertainty r = 0.000044, k = 4.833556
        20        22     1        0.141144   332241.904443    ;  uncertainty r = 0.000109, k = 9.448414
        21        42     1        0.109433   309604.814746    ;  uncertainty r = 0.000006, k = 1.463451
        21        43     1        0.109433   309604.814746    ;  uncertainty r = 0.000006, k = 1.463451
        21        44     1        0.109433   309604.814746    ;  uncertainty r = 0.000006, k = 1.463451
        22        23     1        0.139809   347124.089062    ;  uncertainty r = 0.000103, k = 6.876068
        22        24     1        0.149757   237897.914014    ;  uncertainty r = 0.000119, k = 8.674882
        23        45     1        0.108681   333097.014551    ;  uncertainty r = 0.000020, k = 1.592418
        24        25     1        0.123702   904167.711719    ;  uncertainty r = 0.000052, k = 5.769386
        24        26     1        0.139051   488779.711621    ;  uncertainty r = 0.000106, k = 11.595202
        26        46     1        0.101651   429928.472656    ;  uncertainty r = 0.000045, k = 2.540826
        26        47     1        0.101651   429928.472656    ;  uncertainty r = 0.000045, k = 2.540826
        27        28     1        0.139270   345625.520410    ;  uncertainty r = 0.000054, k = 5.224456
        27        48     1        0.108746   339222.268994    ;  uncertainty r = 0.000057, k = 2.203703
        28        29     1        0.136641   322875.224707    ;  uncertainty r = 0.000095, k = 4.764590
        29        30     1        0.142472   247648.314355    ;  uncertainty r = 0.000036, k = 5.188422
        30        49     1        0.109559   311162.501807    ;  uncertainty r = 0.000020, k = 1.272500
        30        50     1        0.109559   311162.501807    ;  uncertainty r = 0.000020, k = 1.272491
        30        51     1        0.109559   311162.501807    ;  uncertainty r = 0.000020, k = 1.272497

[ angles ]
;       ai        aj        ak funct           theta             cth
         1         2         3     1      110.612503      514.276204    ;  uncertainty theta = 0.001142, k = 0.053109
         2         1        31     1      108.817703      445.633093    ;  uncertainty theta = 0.001397, k = 0.017155
         2         1        32     1      108.817703      445.633093    ;  uncertainty theta = 0.001397, k = 0.017155
         2         1        33     1      108.817703      445.633093    ;  uncertainty theta = 0.001397, k = 0.017155
         2         3         4     1      120.713829      429.663653    ;  uncertainty theta = 0.002887, k = 0.102450
         2         3        28     1      116.739212      371.002135    ;  uncertainty theta = 0.004292, k = 0.133275
         3         4         5     1      122.308617      511.833707    ;  uncertainty theta = 0.002874, k = 0.098838
         3         4        34     1      117.399475      269.501128    ;  uncertainty theta = 0.000644, k = 0.068639
         3        28        27     1      122.924828      372.294473    ;  uncertainty theta = 0.004880, k = 0.131595
         3        28        29     1      116.892052      375.388038    ;  uncertainty theta = 0.003912, k = 0.086739
         4         3        28     1      121.473427      368.904773    ;  uncertainty theta = 0.004194, k = 0.139265
         4         5         6     1      119.248634      497.970121    ;  uncertainty theta = 0.001680, k = 0.102369
         4         5        35     1      121.012962      296.103549    ;  uncertainty theta = 0.002653, k = 0.108838
         5         4        34     1      120.002708      276.762860    ;  uncertainty theta = 0.000635, k = 0.063553
         5         6         7     1      120.412048      523.951864    ;  uncertainty theta = 0.002787, k = 0.145671
         5         6        27     1      119.564781      370.288948    ;  uncertainty theta = 0.004616, k = 0.068311
         6         5        35     1      119.526833      271.877771    ;  uncertainty theta = 0.001413, k = 0.081499
         6         7         8     1      116.303787      381.015013    ;  uncertainty theta = 0.002927, k = 0.210540
         6         7        36     1      114.186111      355.760727    ;  uncertainty theta = 0.005751, k = 0.200139
         6        27        28     1      121.379723      503.759991    ;  uncertainty theta = 0.003678, k = 0.097545
         6        27        48     1      119.577965      269.429783    ;  uncertainty theta = 0.003301, k = 0.060634
         7         6        27     1      119.861717      533.495177    ;  uncertainty theta = 0.003869, k = 0.077420
         7         8         9     1      122.084122      743.704340    ;  uncertainty theta = 0.005979, k = 0.187139
         7         8        16     1      118.339066      493.433486    ;  uncertainty theta = 0.006804, k = 0.121645
         8         7        36     1      117.061234      430.294771    ;  uncertainty theta = 0.006370, k = 0.198641
         8         9        10     1      121.092026      437.385564    ;  uncertainty theta = 0.009289, k = 0.255263
         8        16        12     1      111.142784      333.997874    ;  uncertainty theta = 0.012736, k = 0.456017
         8        16        15     1      125.515465      293.447945    ;  uncertainty theta = 0.008643, k = 0.324339
         9         8        16     1      122.397110      559.508873    ;  uncertainty theta = 0.006110, k = 0.249098
         9        10        11     1      124.543556      546.714781    ;  uncertainty theta = 0.002872, k = 0.247730
         9        10        17     1      116.938477      454.380861    ;  uncertainty theta = 0.001908, k = 0.127593
        10        11        12     1      117.529312      532.909931    ;  uncertainty theta = 0.004092, k = 0.198409
        10        11        37     1      124.634445      233.175387    ;  uncertainty theta = 0.008734, k = 0.228842
        10        17        18     1      120.181320      402.303928    ;  uncertainty theta = 0.002156, k = 0.143522
        10        17        23     1      119.495010      399.564945    ;  uncertainty theta = 0.001790, k = 0.146661
        11        10        17     1      121.001114      375.899930    ;  uncertainty theta = 0.004906, k = 0.079781
        11        12        13     1      129.664673      428.594510    ;  uncertainty theta = 0.002270, k = 0.326701
        11        12        16     1      117.420059      429.560738    ;  uncertainty theta = 0.007263, k = 0.178528
        12        11        37     1      117.417358      315.021791    ;  uncertainty theta = 0.003619, k = 0.132845
        12        13        14     1      105.324829      767.668044    ;  uncertainty theta = 0.004981, k = 0.189091
        12        13        38     1      119.539230      282.399762    ;  uncertainty theta = 0.002926, k = 0.163945
        12        16        15     1      114.523727      791.406958    ;  uncertainty theta = 0.003446, k = 0.159720
        13        12        16     1      106.195152      846.636320    ;  uncertainty theta = 0.003800, k = 0.266753
        13        14        15     1      111.223167      865.900238    ;  uncertainty theta = 0.003390, k = 0.157111
        13        14        39     1      125.339584      238.965640    ;  uncertainty theta = 0.004247, k = 0.092338
        14        13        38     1      130.781433      240.351826    ;  uncertainty theta = 0.003258, k = 0.025086
        14        15        16     1      106.065872      820.721453    ;  uncertainty theta = 0.001716, k = 0.145916
        15        14        39     1      119.156937      297.238833    ;  uncertainty theta = 0.004129, k = 0.152925
        17        18        19     1      120.183762      524.408787    ;  uncertainty theta = 0.001629, k = 0.066749
        17        18        40     1      118.706276      270.364250    ;  uncertainty theta = 0.001706, k = 0.083341
        17        23        22     1      123.618530      506.952991    ;  uncertainty theta = 0.002077, k = 0.147975
        17        23        45     1      118.507668      267.668233    ;  uncertainty theta = 0.003531, k = 0.055334
        18        17        23     1      120.179848      429.775569    ;  uncertainty theta = 0.003334, k = 0.167157
        18        19        20     1      123.106430      518.245661    ;  uncertainty theta = 0.002336, k = 0.110299
        18        19        41     1      119.880028      285.297521    ;  uncertainty theta = 0.000859, k = 0.063466
        19        18        40     1      120.238419      290.039763    ;  uncertainty theta = 0.001612, k = 0.029623
        19        20        21     1      120.142258      429.548991    ;  uncertainty theta = 0.003510, k = 0.122402
        19        20        22     1      121.058762      462.196462    ;  uncertainty theta = 0.003094, k = 0.120176
        20        19        41     1      118.281082      270.851945    ;  uncertainty theta = 0.001935, k = 0.046522
        20        21        42     1      109.874344      398.032304    ;  uncertainty theta = 0.000376, k = 0.033992
        20        21        43     1      109.874344      398.032304    ;  uncertainty theta = 0.000376, k = 0.033992
        20        21        44     1      109.874344      398.032304    ;  uncertainty theta = 0.000376, k = 0.033992
        20        22        23     1      125.080307      468.174827    ;  uncertainty theta = 0.002317, k = 0.158169
        20        22        24     1      117.973610      375.269706    ;  uncertainty theta = 0.003104, k = 0.183507
        21        20        22     1      119.149513      415.353678    ;  uncertainty theta = 0.004070, k = 0.092316
        22        23        45     1      118.436478      264.292643    ;  uncertainty theta = 0.004951, k = 0.123330
        22        24        25     1      124.315025      492.693420    ;  uncertainty theta = 0.004219, k = 0.028446
        22        24        26     1      114.899048      448.666135    ;  uncertainty theta = 0.006659, k = 0.131716
        23        22        24     1      116.607933      398.719061    ;  uncertainty theta = 0.002548, k = 0.193273
        24        26        46     1      116.590210      311.892889    ;  uncertainty theta = 0.002130, k = 0.055849
        24        26        47     1      116.590210      311.892889    ;  uncertainty theta = 0.002130, k = 0.055849
        25        24        26     1      126.744888      887.154583    ;  uncertainty theta = 0.003152, k = 0.103048
        27        28        29     1      119.984230      446.391321    ;  uncertainty theta = 0.002825, k = 0.109279
        28        27        48     1      118.198837      267.442262    ;  uncertainty theta = 0.001362, k = 0.058522
        28        29        30     1      110.584335      514.931710    ;  uncertainty theta = 0.000760, k = 0.054259
        29        30        49     1      108.804810      446.467230    ;  uncertainty theta = 0.001256, k = 0.017592
        29        30        50     1      108.804810      446.467230    ;  uncertainty theta = 0.001256, k = 0.017592
        29        30        51     1      108.804810      446.467230    ;  uncertainty theta = 0.001256, k = 0.017592
        31         1        32     1      109.159256      331.008596    ;  uncertainty theta = 0.001734, k = 0.015289
        31         1        33     1      109.159256      331.008596    ;  uncertainty theta = 0.001734, k = 0.015289
        32         1        33     1      109.159256      331.008596    ;  uncertainty theta = 0.001734, k = 0.015289
        42        21        43     1      106.685890      316.218109    ;  uncertainty theta = 0.001398, k = 0.032587
        42        21        44     1      106.685890      316.218109    ;  uncertainty theta = 0.001398, k = 0.032587
        43        21        44     1      106.685890      316.218109    ;  uncertainty theta = 0.001398, k = 0.032587
        46        26        47     1      109.663452      266.762719    ;  uncertainty theta = 0.002649, k = 0.074028
        49        30        50     1      109.159256      331.008596    ;  uncertainty theta = 0.001734, k = 0.015290
        49        30        51     1      109.159256      331.008596    ;  uncertainty theta = 0.001734, k = 0.015290
        50        30        51     1      109.159256      331.008596    ;  uncertainty theta = 0.001734, k = 0.015290

[ dihedrals ] ; propers for gromacs 4.5 or higher, use funct 9
;       ai        aj        ak        al funct           phase               k        pn
         1         2         3         4     9        0.000000        1.161590         1    ;  uncertainty k = 0.424580
         1         2         3         4     9      180.000000        5.978609         2    ;  uncertainty k = 0.113714
         1         2         3         4     9        0.000000       -0.081692         3    ;  uncertainty k = 0.147719
         1         2         3         4     9      180.000000        0.002725         4    ;  uncertainty k = 0.132587
         1         2         3        28     9        0.000000        0.710048         1    ;  uncertainty k = 0.461814
         1         2         3        28     9      180.000000        5.168557         2    ;  uncertainty k = 0.168705
         1         2         3        28     9        0.000000        1.522737         3    ;  uncertainty k = 0.085019
         1         2         3        28     9      180.000000        0.086569         4    ;  uncertainty k = 0.079161
         2         3         4         5     9        0.000000        0.075453         1    ;  uncertainty k = 0.391184
         2         3         4         5     9      180.000000       11.200366         2    ;  uncertainty k = 0.281957
         2         3         4         5     9        0.000000        1.350673         3    ;  uncertainty k = 0.315697
         2         3         4         5     9      180.000000        1.737822         4    ;  uncertainty k = 0.262819
         2         3         4        34     9        0.000000       -0.165175         1    ;  uncertainty k = 0.217547
         2         3         4        34     9      180.000000        9.159951         2    ;  uncertainty k = 0.396817
         2         3         4        34     9        0.000000        0.851185         3    ;  uncertainty k = 0.126617
         2         3         4        34     9      180.000000        1.218800         4    ;  uncertainty k = 0.309716
         2         3        28        27     9        0.000000        0.515556         1    ;  uncertainty k = 0.299239
         2         3        28        27     9      180.000000        7.954903         2    ;  uncertainty k = 0.736958
         2         3        28        27     9        0.000000        1.164308         3    ;  uncertainty k = 0.363484
         2         3        28        27     9      180.000000        1.614907         4    ;  uncertainty k = 0.248125
         2         3        28        29     9        0.000000       -0.341456         1    ;  uncertainty k = 1.859913
         2         3        28        29     9      180.000000       13.064537         2    ;  uncertainty k = 0.569185
         2         3        28        29     9        0.000000        0.817588         3    ;  uncertainty k = 0.428631
         2         3        28        29     9      180.000000        1.204285         4    ;  uncertainty k = 0.526598
         3         2         1        31     9        0.000000        1.112847         1    ;  uncertainty k = 0.103175
         3         2         1        31     9      180.000000       -2.022644         2    ;  uncertainty k = 0.082864
         3         2         1        31     9        0.000000        1.040477         3    ;  uncertainty k = 0.039004
         3         2         1        31     9      180.000000        0.229250         4    ;  uncertainty k = 0.034227
         3         2         1        32     9        0.000000        1.112847         1    ;  uncertainty k = 0.103175
         3         2         1        32     9      180.000000       -2.022644         2    ;  uncertainty k = 0.082864
         3         2         1        32     9        0.000000        1.040477         3    ;  uncertainty k = 0.039004
         3         2         1        32     9      180.000000        0.229250         4    ;  uncertainty k = 0.034227
         3         2         1        33     9        0.000000        1.112847         1    ;  uncertainty k = 0.103175
         3         2         1        33     9      180.000000       -2.022644         2    ;  uncertainty k = 0.082864
         3         2         1        33     9        0.000000        1.040477         3    ;  uncertainty k = 0.039004
         3         2         1        33     9      180.000000        0.229250         4    ;  uncertainty k = 0.034227
         3         4         5         6     9        0.000000        0.022057         1    ;  uncertainty k = 0.194405
         3         4         5         6     9      180.000000       12.959076         2    ;  uncertainty k = 0.175269
         3         4         5         6     9        0.000000       -0.661284         3    ;  uncertainty k = 0.452963
         3         4         5         6     9      180.000000        0.977500         4    ;  uncertainty k = 0.267395
         3         4         5        35     9        0.000000        0.089133         1    ;  uncertainty k = 0.324049
         3         4         5        35     9      180.000000        7.832723         2    ;  uncertainty k = 0.398222
         3         4         5        35     9        0.000000        1.298747         3    ;  uncertainty k = 0.324375
         3         4         5        35     9      180.000000        1.779745         4    ;  uncertainty k = 0.055930
         3        28        27         6     9        0.000000        0.071802         1    ;  uncertainty k = 0.106893
         3        28        27         6     9      180.000000        8.578020         2    ;  uncertainty k = 0.448413
         3        28        27         6     9        0.000000        0.405195         3    ;  uncertainty k = 0.328173
         3        28        27         6     9      180.000000        1.390162         4    ;  uncertainty k = 0.291061
         3        28        27        48     9        0.000000        0.127329         1    ;  uncertainty k = 0.442115
         3        28        27        48     9      180.000000        6.705908         2    ;  uncertainty k = 0.374607
         3        28        27        48     9        0.000000        1.449705         3    ;  uncertainty k = 0.216502
         3        28        27        48     9      180.000000        1.651952         4    ;  uncertainty k = 0.099448
         3        28        29        30     9        0.000000        0.964833         1    ;  uncertainty k = 0.487894
         3        28        29        30     9      180.000000        5.588064         2    ;  uncertainty k = 0.185698
         3        28        29        30     9        0.000000        1.649424         3    ;  uncertainty k = 0.107622
         3        28        29        30     9      180.000000        0.043020         4    ;  uncertainty k = 0.050223
         4         3        28        27     9        0.000000       -0.246361         1    ;  uncertainty k = 0.323015
         4         3        28        27     9      180.000000        5.364289         2    ;  uncertainty k = 1.281071
         4         3        28        27     9        0.000000        0.277799         3    ;  uncertainty k = 0.286511
         4         3        28        27     9      180.000000        1.297118         4    ;  uncertainty k = 0.309451
         4         3        28        29     9        0.000000        0.651705         1    ;  uncertainty k = 0.176594
         4         3        28        29     9      180.000000        7.590394         2    ;  uncertainty k = 0.603024
         4         3        28        29     9        0.000000        1.174713         3    ;  uncertainty k = 0.330890
         4         3        28        29     9      180.000000        1.724084         4    ;  uncertainty k = 0.232454
         4         5         6         7     9        0.000000        0.058897         1    ;  uncertainty k = 0.517002
         4         5         6         7     9      180.000000        9.907040         2    ;  uncertainty k = 0.506714
         4         5         6         7     9        0.000000        0.979239         3    ;  uncertainty k = 0.327123
         4         5         6         7     9      180.000000        1.580944         4    ;  uncertainty k = 0.224706
         4         5         6        27     9        0.000000       -0.065841         1    ;  uncertainty k = 0.278588
         4         5         6        27     9      180.000000        9.979296         2    ;  uncertainty k = 0.397780
         4         5         6        27     9        0.000000       -0.194578         3    ;  uncertainty k = 0.190668
         4         5         6        27     9      180.000000        1.171069         4    ;  uncertainty k = 0.255361
         5         4         3        28     9        0.000000        0.085734         1    ;  uncertainty k = 0.237541
         5         4         3        28     9      180.000000        8.042168         2    ;  uncertainty k = 0.816838
         5         4         3        28     9        0.000000        0.289471         3    ;  uncertainty k = 0.178601
         5         4         3        28     9      180.000000        1.427392         4    ;  uncertainty k = 0.249188
         5         6         7         8     9        0.000000        1.717569         1    ;  uncertainty k = 0.660151
         5         6         7         8     9      180.000000        5.521741         2    ;  uncertainty k = 0.179949
         5         6         7         8     9        0.000000        0.912155         3    ;  uncertainty k = 0.268355
         5         6         7         8     9      180.000000        0.224590         4    ;  uncertainty k = 0.108908
         5         6         7        36     9        0.000000        2.355176         1    ;  uncertainty k = 0.449212
         5         6         7        36     9      180.000000        4.348203         2    ;  uncertainty k = 0.302695
         5         6         7        36     9        0.000000        0.613845         3    ;  uncertainty k = 0.145998
         5         6         7        36     9      180.000000        0.455801         4    ;  uncertainty k = 0.028343
         5         6        27        28     9        0.000000        0.019455         1    ;  uncertainty k = 0.133757
         5         6        27        28     9      180.000000        8.784468         2    ;  uncertainty k = 0.478984
         5         6        27        28     9        0.000000        0.119276         3    ;  uncertainty k = 0.283810
         5         6        27        28     9      180.000000        1.288078         4    ;  uncertainty k = 0.208847
         5         6        27        48     9        0.000000        0.155297         1    ;  uncertainty k = 0.281422
         5         6        27        48     9      180.000000        6.373831         2    ;  uncertainty k = 0.633801
         5         6        27        48     9        0.000000        1.253627         3    ;  uncertainty k = 0.220579
         5         6        27        48     9      180.000000        1.460767         4    ;  uncertainty k = 0.207379
         6         5         4        34     9        0.000000       -0.099823         1    ;  uncertainty k = 0.241524
         6         5         4        34     9      180.000000        7.800452         2    ;  uncertainty k = 0.321389
         6         5         4        34     9        0.000000        1.212039         3    ;  uncertainty k = 0.364603
         6         5         4        34     9      180.000000        1.643100         4    ;  uncertainty k = 0.155684
         6         7         8         9     9        0.000000        4.371472         1    ;  uncertainty k = 1.288133
         6         7         8         9     9      180.000000       10.778641         2    ;  uncertainty k = 0.228702
         6         7         8         9     9        0.000000        0.680673         3    ;  uncertainty k = 0.311323
         6         7         8         9     9      180.000000       -0.507606         4    ;  uncertainty k = 0.056382
         6         7         8        16     9        0.000000        7.039559         1    ;  uncertainty k = 0.599174
         6         7         8        16     9      180.000000        8.681781         2    ;  uncertainty k = 0.097887
         6         7         8        16     9        0.000000        0.920441         3    ;  uncertainty k = 0.381757
         6         7         8        16     9      180.000000       -0.164553         4    ;  uncertainty k = 0.221364
         6        27        28        29     9        0.000000        0.152072         1    ;  uncertainty k = 0.236865
         6        27        28        29     9      180.000000       11.350413         2    ;  uncertainty k = 0.544002
         6        27        28        29     9        0.000000        1.355669         3    ;  uncertainty k = 0.349766
         6        27        28        29     9      180.000000        1.696486         4    ;  uncertainty k = 0.237430
         7         6         5        35     9        0.000000       -0.291936         1    ;  uncertainty k = 0.233190
         7         6         5        35     9      180.000000        7.944711         2    ;  uncertainty k = 0.164350
         7         6         5        35     9        0.000000        0.918004         3    ;  uncertainty k = 0.228756
         7         6         5        35     9      180.000000        1.083856         4    ;  uncertainty k = 0.164907
         7         6        27        28     9        0.000000        0.148911         1    ;  uncertainty k = 0.574988
         7         6        27        28     9      180.000000        9.899588         2    ;  uncertainty k = 0.247388
         7         6        27        28     9        0.000000        1.000997         3    ;  uncertainty k = 0.351814
         7         6        27        28     9      180.000000        1.610986         4    ;  uncertainty k = 0.137508
         7         6        27        48     9        0.000000       -0.272934         1    ;  uncertainty k = 0.329125
         7         6        27        48     9      180.000000        7.865305         2    ;  uncertainty k = 0.242076
         7         6        27        48     9        0.000000        0.914516         3    ;  uncertainty k = 0.283703
         7         6        27        48     9      180.000000        1.068016         4    ;  uncertainty k = 0.243003
         7         8         9        10     9        0.000000        1.093749         1    ;  uncertainty k = 1.036215
         7         8         9        10     9      180.000000       17.904277         2    ;  uncertainty k = 0.458529
         7         8         9        10     9        0.000000        2.916476         3    ;  uncertainty k = 0.276349
         7         8         9        10     9      180.000000        1.662492         4    ;  uncertainty k = 0.298464
         7         8        16        12     9        0.000000       -0.953522         1    ;  uncertainty k = 0.960772
         7         8        16        12     9      180.000000        5.426483         2    ;  uncertainty k = 0.732995
         7         8        16        12     9        0.000000        0.463830         3    ;  uncertainty k = 0.276198
         7         8        16        12     9      180.000000        0.425035         4    ;  uncertainty k = 0.145521
         7         8        16        15     9        0.000000       -0.723785         1    ;  uncertainty k = 0.708754
         7         8        16        15     9      180.000000        4.584250         2    ;  uncertainty k = 1.077487
         7         8        16        15     9        0.000000        0.569780         3    ;  uncertainty k = 0.418447
         7         8        16        15     9      180.000000        0.322209         4    ;  uncertainty k = 0.225420
         8         7         6        27     9        0.000000        1.597949         1    ;  uncertainty k = 0.980885
         8         7         6        27     9      180.000000        5.574010         2    ;  uncertainty k = 0.231880
         8         7         6        27     9        0.000000        0.917733         3    ;  uncertainty k = 0.237919
         8         7         6        27     9      180.000000        0.218590         4    ;  uncertainty k = 0.147859
         8         9        10        11     9        0.000000        0.939473         1    ;  uncertainty k = 1.501292
         8         9        10        11     9      180.000000        5.478745         2    ;  uncertainty k = 1.436527
         8         9        10        11     9        0.000000        1.155133         3    ;  uncertainty k = 0.833321
         8         9        10        11     9      180.000000        0.505236         4    ;  uncertainty k = 0.531950
         8         9        10        17     9        0.000000        0.807292         1    ;  uncertainty k = 1.361307
         8         9        10        17     9      180.000000        9.017593         2    ;  uncertainty k = 0.777621
         8         9        10        17     9        0.000000        1.560914         3    ;  uncertainty k = 0.551531
         8         9        10        17     9      180.000000        0.428558         4    ;  uncertainty k = 0.311249
         8        16        12        11     9        0.000000       -0.074403         1    ;  uncertainty k = 0.950775
         8        16        12        11     9      180.000000        5.131695         2    ;  uncertainty k = 1.540544
         8        16        12        11     9        0.000000        1.364864         3    ;  uncertainty k = 0.461387
         8        16        12        11     9      180.000000        0.396564         4    ;  uncertainty k = 0.312989
         8        16        12        13     9        0.000000        0.340421         1    ;  uncertainty k = 0.792595
         8        16        12        13     9      180.000000        6.024515         2    ;  uncertainty k = 0.492566
         8        16        12        13     9        0.000000        0.209998         3    ;  uncertainty k = 0.527723
         8        16        12        13     9      180.000000        0.585310         4    ;  uncertainty k = 0.374830
         8        16        15        14     9        0.000000       -0.258736         1    ;  uncertainty k = 0.813751
         8        16        15        14     9      180.000000       16.417004         2    ;  uncertainty k = 0.455553
         8        16        15        14     9        0.000000        0.694004         3    ;  uncertainty k = 0.637623
         8        16        15        14     9      180.000000        1.345365         4    ;  uncertainty k = 0.597909
         9         8         7        36     9        0.000000        8.922955         1    ;  uncertainty k = 0.590684
         9         8         7        36     9      180.000000        9.664259         2    ;  uncertainty k = 0.294391
         9         8         7        36     9        0.000000        1.087484         3    ;  uncertainty k = 0.311608
         9         8         7        36     9      180.000000       -0.057210         4    ;  uncertainty k = 0.149117
         9         8        16        12     9        0.000000       -0.501338         1    ;  uncertainty k = 0.640960
         9         8        16        12     9      180.000000        6.017651         2    ;  uncertainty k = 0.720253
         9         8        16        12     9        0.000000       -0.364995         3    ;  uncertainty k = 0.314830
         9         8        16        12     9      180.000000        0.566313         4    ;  uncertainty k = 0.158573
         9         8        16        15     9        0.000000       -1.422782         1    ;  uncertainty k = 2.244569
         9         8        16        15     9      180.000000        4.485013         2    ;  uncertainty k = 0.589709
         9         8        16        15     9        0.000000        0.451575         3    ;  uncertainty k = 0.408180
         9         8        16        15     9      180.000000        0.387928         4    ;  uncertainty k = 0.297232
         9        10        11        12     9        0.000000        0.000363         1    ;  uncertainty k = 0.567485
         9        10        11        12     9      180.000000       21.321779         2    ;  uncertainty k = 0.622601
         9        10        11        12     9        0.000000        0.535648         3    ;  uncertainty k = 0.315066
         9        10        11        12     9      180.000000        0.534100         4    ;  uncertainty k = 0.517790
         9        10        11        37     9        0.000000        0.400301         1    ;  uncertainty k = 0.999409
         9        10        11        37     9      180.000000       12.773519         2    ;  uncertainty k = 0.371019
         9        10        11        37     9        0.000000        1.630574         3    ;  uncertainty k = 0.622599
         9        10        11        37     9      180.000000        1.089831         4    ;  uncertainty k = 0.430456
         9        10        17        18     9        0.000000       -0.895881         1    ;  uncertainty k = 1.546905
         9        10        17        18     9      180.000000        4.811331         2    ;  uncertainty k = 0.122720
         9        10        17        18     9        0.000000        0.393169         3    ;  uncertainty k = 0.188006
         9        10        17        18     9      180.000000        0.093769         4    ;  uncertainty k = 0.119412
         9        10        17        23     9        0.000000       -0.332890         1    ;  uncertainty k = 1.382819
         9        10        17        23     9      180.000000        4.815444         2    ;  uncertainty k = 0.211209
         9        10        17        23     9        0.000000        0.329528         3    ;  uncertainty k = 0.163191
         9        10        17        23     9      180.000000        0.066604         4    ;  uncertainty k = 0.132514
        10         9         8        16     9        0.000000       -0.079278         1    ;  uncertainty k = 2.218226
        10         9         8        16     9      180.000000       13.592964         2    ;  uncertainty k = 0.610320
        10         9         8        16     9        0.000000        2.514815         3    ;  uncertainty k = 0.854000
        10         9         8        16     9      180.000000        1.355385         4    ;  uncertainty k = 0.396240
        10        11        12        13     9        0.000000        0.426659         1    ;  uncertainty k = 1.499796
        10        11        12        13     9      180.000000        4.652439         2    ;  uncertainty k = 0.599161
        10        11        12        13     9        0.000000        0.715391         3    ;  uncertainty k = 0.332561
        10        11        12        13     9      180.000000        0.335558         4    ;  uncertainty k = 0.092544
        10        11        12        16     9        0.000000       -0.092029         1    ;  uncertainty k = 1.657469
        10        11        12        16     9      180.000000        6.297307         2    ;  uncertainty k = 0.496588
        10        11        12        16     9        0.000000       -0.827331         3    ;  uncertainty k = 0.837728
        10        11        12        16     9      180.000000        0.591428         4    ;  uncertainty k = 0.145931
        10        17        18        19     9        0.000000        0.045570         1    ;  uncertainty k = 0.180976
        10        17        18        19     9      180.000000        8.936043         2    ;  uncertainty k = 0.537916
        10        17        18        19     9        0.000000        1.189964         3    ;  uncertainty k = 0.273329
        10        17        18        19     9      180.000000        1.715759         4    ;  uncertainty k = 0.217502
        10        17        18        40     9        0.000000       -0.036304         1    ;  uncertainty k = 0.129980
        10        17        18        40     9      180.000000        6.966420         2    ;  uncertainty k = 0.357941
        10        17        18        40     9        0.000000        0.671698         3    ;  uncertainty k = 0.273830
        10        17        18        40     9      180.000000        1.117040         4    ;  uncertainty k = 0.168962
        10        17        23        22     9        0.000000        0.018228         1    ;  uncertainty k = 0.262805
        10        17        23        22     9      180.000000        8.109392         2    ;  uncertainty k = 0.488291
        10        17        23        22     9        0.000000        1.134461         3    ;  uncertainty k = 0.201167
        10        17        23        22     9      180.000000        1.749443         4    ;  uncertainty k = 0.131435
        10        17        23        45     9        0.000000        0.004426         1    ;  uncertainty k = 0.251862
        10        17        23        45     9      180.000000        7.096745         2    ;  uncertainty k = 0.205817
        10        17        23        45     9        0.000000        0.744993         3    ;  uncertainty k = 0.234695
        10        17        23        45     9      180.000000        1.280790         4    ;  uncertainty k = 0.155083
        11        10        17        18     9        0.000000       -0.038292         1    ;  uncertainty k = 0.350756
        11        10        17        18     9      180.000000        3.746303         2    ;  uncertainty k = 0.341961
        11        10        17        18     9        0.000000        0.753572         3    ;  uncertainty k = 0.198841
        11        10        17        18     9      180.000000       -0.340090         4    ;  uncertainty k = 0.127971
        11        10        17        23     9        0.000000       -0.131806         1    ;  uncertainty k = 0.414835
        11        10        17        23     9      180.000000        3.732313         2    ;  uncertainty k = 0.312269
        11        10        17        23     9        0.000000        0.889442         3    ;  uncertainty k = 0.200509
        11        10        17        23     9      180.000000       -0.317557         4    ;  uncertainty k = 0.139095
        11        12        13        14     9        0.000000        0.230793         1    ;  uncertainty k = 1.269739
        11        12        13        14     9      180.000000        9.569834         2    ;  uncertainty k = 0.766860
        11        12        13        14     9        0.000000        0.431848         3    ;  uncertainty k = 0.749472
        11        12        13        14     9      180.000000        0.562970         4    ;  uncertainty k = 0.317996
        11        12        13        38     9        0.000000        0.582736         1    ;  uncertainty k = 1.282917
        11        12        13        38     9      180.000000        2.797133         2    ;  uncertainty k = 1.416069
        11        12        13        38     9        0.000000        1.235338         3    ;  uncertainty k = 0.396603
        11        12        13        38     9      180.000000        0.134009         4    ;  uncertainty k = 0.120872
        11        12        16        15     9        0.000000        0.339778         1    ;  uncertainty k = 0.557633
        11        12        16        15     9      180.000000        8.702718         2    ;  uncertainty k = 0.552036
        11        12        16        15     9        0.000000        0.461034         3    ;  uncertainty k = 0.395644
        11        12        16        15     9      180.000000        0.883729         4    ;  uncertainty k = 0.214014
        12        11        10        17     9        0.000000        0.596799         1    ;  uncertainty k = 0.282975
        12        11        10        17     9      180.000000       17.766215         2    ;  uncertainty k = 0.396070
        12        11        10        17     9        0.000000        1.853157         3    ;  uncertainty k = 0.441842
        12        11        10        17     9      180.000000        0.746943         4    ;  uncertainty k = 0.224259
        12        13        14        15     9        0.000000       -0.424259         1    ;  uncertainty k = 0.720471
        12        13        14        15     9      180.000000       21.948844         2    ;  uncertainty k = 0.272817
        12        13        14        15     9        0.000000       -9.453916         3    ;  uncertainty k = 0.408148
        12        13        14        15     9      180.000000        1.578950         4    ;  uncertainty k = 0.654473
        12        13        14        39     9        0.000000        0.427385         1    ;  uncertainty k = 0.828520
        12        13        14        39     9      180.000000       13.870598         2    ;  uncertainty k = 0.182398
        12        13        14        39     9        0.000000        1.815389         3    ;  uncertainty k = 0.320275
        12        13        14        39     9      180.000000        0.903574         4    ;  uncertainty k = 0.223948
        12        16        15        14     9        0.000000       -0.698106         1    ;  uncertainty k = 0.543243
        12        16        15        14     9      180.000000       23.970051         2    ;  uncertainty k = 0.495895
        12        16        15        14     9        0.000000      -11.206153         3    ;  uncertainty k = 1.161985
        12        16        15        14     9      180.000000        1.981051         4    ;  uncertainty k = 0.603215
        13        12        11        37     9        0.000000        1.227127         1    ;  uncertainty k = 1.232866
        13        12        11        37     9      180.000000        2.938476         2    ;  uncertainty k = 1.102518
        13        12        11        37     9        0.000000        1.033215         3    ;  uncertainty k = 0.512498
        13        12        11        37     9      180.000000        0.184974         4    ;  uncertainty k = 0.169272
        13        12        16        15     9        0.000000       -0.600194         1    ;  uncertainty k = 0.427509
        13        12        16        15     9      180.000000       12.032075         2    ;  uncertainty k = 0.540572
        13        12        16        15     9        0.000000       -4.884606         3    ;  uncertainty k = 1.243656
        13        12        16        15     9      180.000000        1.176890         4    ;  uncertainty k = 0.463084
        13        14        15        16     9        0.000000       -0.719371         1    ;  uncertainty k = 0.806440
        13        14        15        16     9      180.000000       16.306391         2    ;  uncertainty k = 0.372137
        13        14        15        16     9        0.000000       -5.546726         3    ;  uncertainty k = 0.784851
        13        14        15        16     9      180.000000        2.138755         4    ;  uncertainty k = 0.319469
        14        13        12        16     9        0.000000        0.425340         1    ;  uncertainty k = 0.911889
        14        13        12        16     9      180.000000       13.121731         2    ;  uncertainty k = 1.266973
        14        13        12        16     9        0.000000      -13.119121         3    ;  uncertainty k = 1.817832
        14        13        12        16     9      180.000000        1.693366         4    ;  uncertainty k = 0.377703
        15        14        13        38     9        0.000000       -0.210816         1    ;  uncertainty k = 0.409317
        15        14        13        38     9      180.000000       14.525462         2    ;  uncertainty k = 0.474526
        15        14        13        38     9        0.000000        1.399988         3    ;  uncertainty k = 0.472591
        15        14        13        38     9      180.000000        0.597840         4    ;  uncertainty k = 0.116226
        16         8         7        36     9        0.000000        5.299478         1    ;  uncertainty k = 1.071663
        16         8         7        36     9      180.000000        6.121003         2    ;  uncertainty k = 0.320629
        16         8         7        36     9        0.000000        1.371092         3    ;  uncertainty k = 0.426496
        16         8         7        36     9      180.000000       -0.017304         4    ;  uncertainty k = 0.216319
        16        12        11        37     9        0.000000        1.224013         1    ;  uncertainty k = 1.441620
        16        12        11        37     9      180.000000        4.285564         2    ;  uncertainty k = 0.541130
        16        12        11        37     9        0.000000        1.126046         3    ;  uncertainty k = 0.359170
        16        12        11        37     9      180.000000        0.200397         4    ;  uncertainty k = 0.127762
        16        12        13        38     9        0.000000        0.337817         1    ;  uncertainty k = 0.998522
        16        12        13        38     9      180.000000        7.392009         2    ;  uncertainty k = 0.385665
        16        12        13        38     9        0.000000        1.061986         3    ;  uncertainty k = 0.365239
        16        12        13        38     9      180.000000        0.171583         4    ;  uncertainty k = 0.281010
        16        15        14        39     9        0.000000       -0.095585         1    ;  uncertainty k = 0.393922
        16        15        14        39     9      180.000000       14.177386         2    ;  uncertainty k = 0.352374
        16        15        14        39     9        0.000000        1.588169         3    ;  uncertainty k = 0.688227
        16        15        14        39     9      180.000000        0.904862         4    ;  uncertainty k = 0.448977
        17        10        11        37     9        0.000000       -0.219838         1    ;  uncertainty k = 0.378230
        17        10        11        37     9      180.000000        9.471704         2    ;  uncertainty k = 0.512157
        17        10        11        37     9        0.000000        1.503530         3    ;  uncertainty k = 0.321541
        17        10        11        37     9      180.000000        1.004537         4    ;  uncertainty k = 0.137000
        17        18        19        20     9        0.000000        0.033775         1    ;  uncertainty k = 0.344865
        17        18        19        20     9      180.000000       12.801354         2    ;  uncertainty k = 0.337513
        17        18        19        20     9        0.000000       -0.669931         3    ;  uncertainty k = 0.320322
        17        18        19        20     9      180.000000        0.839524         4    ;  uncertainty k = 0.303181
        17        18        19        41     9        0.000000        0.086521         1    ;  uncertainty k = 0.179933
        17        18        19        41     9      180.000000        8.270658         2    ;  uncertainty k = 0.414653
        17        18        19        41     9        0.000000        1.359475         3    ;  uncertainty k = 0.226959
        17        18        19        41     9      180.000000        1.872194         4    ;  uncertainty k = 0.177875
        17        23        22        20     9        0.000000        0.120764         1    ;  uncertainty k = 0.162978
        17        23        22        20     9      180.000000        9.598339         2    ;  uncertainty k = 0.381620
        17        23        22        20     9        0.000000        0.296343         3    ;  uncertainty k = 0.227937
        17        23        22        20     9      180.000000        1.257895         4    ;  uncertainty k = 0.311399
        17        23        22        24     9        0.000000        0.489031         1    ;  uncertainty k = 0.262956
        17        23        22        24     9      180.000000        9.171107         2    ;  uncertainty k = 0.918250
        17        23        22        24     9        0.000000        1.604579         3    ;  uncertainty k = 0.261610
        17        23        22        24     9      180.000000        1.892784         4    ;  uncertainty k = 0.357997
        18        17        23        22     9        0.000000        0.170759         1    ;  uncertainty k = 0.241729
        18        17        23        22     9      180.000000        9.518753         2    ;  uncertainty k = 0.411733
        18        17        23        22     9        0.000000       -0.144393         3    ;  uncertainty k = 0.235458
        18        17        23        22     9      180.000000        1.147317         4    ;  uncertainty k = 0.229952
        18        17        23        45     9        0.000000        0.102706         1    ;  uncertainty k = 0.134139
        18        17        23        45     9      180.000000        7.229610         2    ;  uncertainty k = 0.510048
        18        17        23        45     9        0.000000        1.279768         3    ;  uncertainty k = 0.145264
        18        17        23        45     9      180.000000        1.638852         4    ;  uncertainty k = 0.271896
        18        19        20        21     9        0.000000        0.043211         1    ;  uncertainty k = 0.312811
        18        19        20        21     9      180.000000        9.814687         2    ;  uncertainty k = 0.439117
        18        19        20        21     9        0.000000        1.338645         3    ;  uncertainty k = 0.194466
        18        19        20        21     9      180.000000        1.810463         4    ;  uncertainty k = 0.264344
        18        19        20        22     9        0.000000        0.055576         1    ;  uncertainty k = 0.244429
        18        19        20        22     9      180.000000        9.553995         2    ;  uncertainty k = 0.516164
        18        19        20        22     9        0.000000        0.119461         3    ;  uncertainty k = 0.349137
        18        19        20        22     9      180.000000        1.216133         4    ;  uncertainty k = 0.347231
        19        18        17        23     9        0.000000       -0.001370         1    ;  uncertainty k = 0.212921
        19        18        17        23     9      180.000000       10.672301         2    ;  uncertainty k = 0.245867
        19        18        17        23     9        0.000000       -0.649155         3    ;  uncertainty k = 0.180733
        19        18        17        23     9      180.000000        0.972084         4    ;  uncertainty k = 0.174750
        19        20        21        42     9        0.000000       -0.214909         1    ;  uncertainty k = 0.216120
        19        20        21        42     9      180.000000        1.858164         2    ;  uncertainty k = 0.190609
        19        20        21        42     9        0.000000        0.424168         3    ;  uncertainty k = 0.069092
        19        20        21        42     9      180.000000        0.258736         4    ;  uncertainty k = 0.032081
        19        20        21        43     9        0.000000       -0.214909         1    ;  uncertainty k = 0.216120
        19        20        21        43     9      180.000000        1.858164         2    ;  uncertainty k = 0.190609
        19        20        21        43     9        0.000000        0.424168         3    ;  uncertainty k = 0.069092
        19        20        21        43     9      180.000000        0.258736         4    ;  uncertainty k = 0.032081
        19        20        21        44     9        0.000000       -0.214909         1    ;  uncertainty k = 0.216120
        19        20        21        44     9      180.000000        1.858164         2    ;  uncertainty k = 0.190609
        19        20        21        44     9        0.000000        0.424168         3    ;  uncertainty k = 0.069092
        19        20        21        44     9      180.000000        0.258736         4    ;  uncertainty k = 0.032081
        19        20        22        23     9        0.000000       -0.348455         1    ;  uncertainty k = 0.175224
        19        20        22        23     9      180.000000        7.952691         2    ;  uncertainty k = 0.344773
        19        20        22        23     9        0.000000       -0.142317         3    ;  uncertainty k = 0.108606
        19        20        22        23     9      180.000000        1.136296         4    ;  uncertainty k = 0.229074
        19        20        22        24     9        0.000000        0.471134         1    ;  uncertainty k = 0.417706
        19        20        22        24     9      180.000000        7.512977         2    ;  uncertainty k = 0.794003
        19        20        22        24     9        0.000000        1.654116         3    ;  uncertainty k = 0.281062
        19        20        22        24     9      180.000000        1.787811         4    ;  uncertainty k = 0.249598
        20        19        18        40     9        0.000000        0.076121         1    ;  uncertainty k = 0.181826
        20        19        18        40     9      180.000000        6.965001         2    ;  uncertainty k = 0.345541
        20        19        18        40     9        0.000000        1.432709         3    ;  uncertainty k = 0.217974
        20        19        18        40     9      180.000000        1.864620         4    ;  uncertainty k = 0.119594
        20        22        23        45     9        0.000000        0.173727         1    ;  uncertainty k = 0.281253
        20        22        23        45     9      180.000000        7.443368         2    ;  uncertainty k = 0.393136
        20        22        23        45     9        0.000000        1.355344         3    ;  uncertainty k = 0.295686
        20        22        23        45     9      180.000000        1.729707         4    ;  uncertainty k = 0.171201
        20        22        24        25     9        0.000000       -1.110312         1    ;  uncertainty k = 0.212820
        20        22        24        25     9      180.000000        4.326695         2    ;  uncertainty k = 0.408582
        20        22        24        25     9        0.000000        0.471817         3    ;  uncertainty k = 0.174994
        20        22        24        25     9      180.000000        0.204128         4    ;  uncertainty k = 0.118823
        20        22        24        26     9        0.000000        0.596248         1    ;  uncertainty k = 0.453743
        20        22        24        26     9      180.000000        2.536840         2    ;  uncertainty k = 0.349416
        20        22        24        26     9        0.000000        0.151504         3    ;  uncertainty k = 0.126497
        20        22        24        26     9      180.000000        0.054013         4    ;  uncertainty k = 0.098184
        21        20        19        41     9        0.000000       -0.305529         1    ;  uncertainty k = 0.445514
        21        20        19        41     9      180.000000        8.745670         2    ;  uncertainty k = 0.245273
        21        20        19        41     9        0.000000        0.451313         3    ;  uncertainty k = 0.190021
        21        20        19        41     9      180.000000        1.055000         4    ;  uncertainty k = 0.139241
        21        20        22        23     9        0.000000        0.095977         1    ;  uncertainty k = 0.378377
        21        20        22        23     9      180.000000        7.494821         2    ;  uncertainty k = 0.533288
        21        20        22        23     9        0.000000        1.181902         3    ;  uncertainty k = 0.187796
        21        20        22        23     9      180.000000        1.772277         4    ;  uncertainty k = 0.271638
        21        20        22        24     9        0.000000       -0.167822         1    ;  uncertainty k = 0.602921
        21        20        22        24     9      180.000000        9.897134         2    ;  uncertainty k = 0.389061
        21        20        22        24     9        0.000000        1.279848         3    ;  uncertainty k = 0.304172
        21        20        22        24     9      180.000000        1.401297         4    ;  uncertainty k = 0.266580
        22        20        19        41     9        0.000000       -0.096670         1    ;  uncertainty k = 0.477511
        22        20        19        41     9      180.000000        7.239859         2    ;  uncertainty k = 0.392623
        22        20        19        41     9        0.000000        1.496421         3    ;  uncertainty k = 0.158350
        22        20        19        41     9      180.000000        1.676449         4    ;  uncertainty k = 0.123022
        22        20        21        42     9        0.000000        0.433560         1    ;  uncertainty k = 0.229968
        22        20        21        42     9      180.000000        2.148674         2    ;  uncertainty k = 0.233098
        22        20        21        42     9        0.000000        0.244249         3    ;  uncertainty k = 0.114776
        22        20        21        42     9      180.000000        0.315083         4    ;  uncertainty k = 0.092447
        22        20        21        43     9        0.000000        0.433560         1    ;  uncertainty k = 0.229968
        22        20        21        43     9      180.000000        2.148674         2    ;  uncertainty k = 0.233098
        22        20        21        43     9        0.000000        0.244249         3    ;  uncertainty k = 0.114776
        22        20        21        43     9      180.000000        0.315083         4    ;  uncertainty k = 0.092447
        22        20        21        44     9        0.000000        0.433560         1    ;  uncertainty k = 0.229968
        22        20        21        44     9      180.000000        2.148674         2    ;  uncertainty k = 0.233098
        22        20        21        44     9        0.000000        0.244249         3    ;  uncertainty k = 0.114776
        22        20        21        44     9      180.000000        0.315083         4    ;  uncertainty k = 0.092447
        22        24        26        46     9        0.000000        2.400501         1    ;  uncertainty k = 1.021593
        22        24        26        46     9      180.000000        7.885507         2    ;  uncertainty k = 0.422150
        22        24        26        46     9        0.000000        2.856107         3    ;  uncertainty k = 0.452695
        22        24        26        46     9      180.000000       -0.345649         4    ;  uncertainty k = 0.329336
        22        24        26        47     9        0.000000        2.400501         1    ;  uncertainty k = 1.021593
        22        24        26        47     9      180.000000        7.885507         2    ;  uncertainty k = 0.422150
        22        24        26        47     9        0.000000        2.856107         3    ;  uncertainty k = 0.452695
        22        24        26        47     9      180.000000       -0.345649         4    ;  uncertainty k = 0.329336
        23        17        18        40     9        0.000000        0.158996         1    ;  uncertainty k = 0.112714
        23        17        18        40     9      180.000000        6.786861         2    ;  uncertainty k = 0.491416
        23        17        18        40     9        0.000000        1.293247         3    ;  uncertainty k = 0.234634
        23        17        18        40     9      180.000000        1.639502         4    ;  uncertainty k = 0.249274
        23        22        24        25     9        0.000000       -0.102270         1    ;  uncertainty k = 0.584950
        23        22        24        25     9      180.000000        4.001097         2    ;  uncertainty k = 0.276720
        23        22        24        25     9        0.000000        0.527791         3    ;  uncertainty k = 0.170893
        23        22        24        25     9      180.000000        0.115657         4    ;  uncertainty k = 0.053877
        23        22        24        26     9        0.000000       -0.485215         1    ;  uncertainty k = 1.131288
        23        22        24        26     9      180.000000        3.011802         2    ;  uncertainty k = 0.255436
        23        22        24        26     9        0.000000        0.397796         3    ;  uncertainty k = 0.267896
        23        22        24        26     9      180.000000       -0.090961         4    ;  uncertainty k = 0.065543
        24        22        23        45     9        0.000000       -0.030743         1    ;  uncertainty k = 0.580216
        24        22        23        45     9      180.000000        8.419056         2    ;  uncertainty k = 0.750507
        24        22        23        45     9        0.000000        1.188511         3    ;  uncertainty k = 0.218028
        24        22        23        45     9      180.000000        1.365042         4    ;  uncertainty k = 0.415177
        25        24        26        46     9        0.000000        4.462360         1    ;  uncertainty k = 1.054725
        25        24        26        46     9      180.000000       11.348496         2    ;  uncertainty k = 0.233708
        25        24        26        46     9        0.000000        1.912793         3    ;  uncertainty k = 0.148837
        25        24        26        46     9      180.000000        0.265719         4    ;  uncertainty k = 0.365829
        25        24        26        47     9        0.000000        4.462360         1    ;  uncertainty k = 1.054725
        25        24        26        47     9      180.000000       11.348496         2    ;  uncertainty k = 0.233708
        25        24        26        47     9        0.000000        1.912793         3    ;  uncertainty k = 0.148837
        25        24        26        47     9      180.000000        0.265719         4    ;  uncertainty k = 0.365829
        27         6         5        35     9        0.000000        0.060116         1    ;  uncertainty k = 0.285327
        27         6         5        35     9      180.000000        6.705137         2    ;  uncertainty k = 0.811645
        27         6         5        35     9        0.000000        1.254749         3    ;  uncertainty k = 0.282861
        27         6         5        35     9      180.000000        1.489480         4    ;  uncertainty k = 0.123486
        27         6         7        36     9        0.000000        3.766903         1    ;  uncertainty k = 0.282406
        27         6         7        36     9      180.000000        4.224135         2    ;  uncertainty k = 0.219472
        27         6         7        36     9        0.000000        0.731781         3    ;  uncertainty k = 0.239894
        27         6         7        36     9      180.000000        0.435986         4    ;  uncertainty k = 0.107235
        27        28        29        30     9        0.000000        1.341409         1    ;  uncertainty k = 0.791973
        27        28        29        30     9      180.000000        6.361826         2    ;  uncertainty k = 0.220151
        27        28        29        30     9        0.000000       -0.225719         3    ;  uncertainty k = 0.095998
        27        28        29        30     9      180.000000        0.006631         4    ;  uncertainty k = 0.110606
        28         3         4        34     9        0.000000       -0.032441         1    ;  uncertainty k = 0.368382
        28         3         4        34     9      180.000000        5.959632         2    ;  uncertainty k = 0.432853
        28         3         4        34     9        0.000000        1.321132         3    ;  uncertainty k = 0.261791
        28         3         4        34     9      180.000000        1.598351         4    ;  uncertainty k = 0.068542
        28        29        30        49     9        0.000000        1.110243         1    ;  uncertainty k = 0.221947
        28        29        30        49     9      180.000000       -2.083404         2    ;  uncertainty k = 0.117430
        28        29        30        49     9        0.000000        1.033193         3    ;  uncertainty k = 0.049823
        28        29        30        49     9      180.000000        0.223294         4    ;  uncertainty k = 0.039928
        28        29        30        50     9        0.000000        1.110243         1    ;  uncertainty k = 0.221947
        28        29        30        50     9      180.000000       -2.083404         2    ;  uncertainty k = 0.117430
        28        29        30        50     9        0.000000        1.033193         3    ;  uncertainty k = 0.049823
        28        29        30        50     9      180.000000        0.223294         4    ;  uncertainty k = 0.039928
        28        29        30        51     9        0.000000        1.110243         1    ;  uncertainty k = 0.221947
        28        29        30        51     9      180.000000       -2.083404         2    ;  uncertainty k = 0.117430
        28        29        30        51     9        0.000000        1.033193         3    ;  uncertainty k = 0.049823
        28        29        30        51     9      180.000000        0.223294         4    ;  uncertainty k = 0.039928
        29        28        27        48     9        0.000000       -0.013362         1    ;  uncertainty k = 0.227812
        29        28        27        48     9      180.000000        9.629865         2    ;  uncertainty k = 0.341224
        29        28        27        48     9        0.000000        0.885574         3    ;  uncertainty k = 0.134168
        29        28        27        48     9      180.000000        1.294493         4    ;  uncertainty k = 0.314813
        34         4         5        35     9        0.000000       -0.108356         1    ;  uncertainty k = 0.187628
        34         4         5        35     9      180.000000        7.451232         2    ;  uncertainty k = 0.478631
        34         4         5        35     9        0.000000       -0.297348         3    ;  uncertainty k = 0.298879
        34         4         5        35     9      180.000000        0.257401         4    ;  uncertainty k = 0.173209
        38        13        14        39     9        0.000000       -0.311075         1    ;  uncertainty k = 0.492452
        38        13        14        39     9      180.000000        5.384358         2    ;  uncertainty k = 0.598235
        38        13        14        39     9        0.000000        1.243313         3    ;  uncertainty k = 0.430720
        38        13        14        39     9      180.000000        0.271791         4    ;  uncertainty k = 0.092256
        40        18        19        41     9        0.000000       -0.167233         1    ;  uncertainty k = 0.274228
        40        18        19        41     9      180.000000        8.096808         2    ;  uncertainty k = 0.370643
        40        18        19        41     9        0.000000       -0.479682         3    ;  uncertainty k = 0.231892
        40        18        19        41     9      180.000000        0.234877         4    ;  uncertainty k = 0.186492

[ dihedrals ] ; impropers
;       ai        aj        ak        al funct           phase               k        pn
         3         2         4        28     4      180.000000       15.206029         2    ;  uncertainty k = 0.074967
         3         4        28         2     4      180.000000       15.206029         2    ;  uncertainty k = 0.074967
         3        28         2         4     4      180.000000       15.206029         2    ;  uncertainty k = 0.074967
         4         3         5        34     4      180.000000        2.008335         2    ;  uncertainty k = 0.230964
         4         5        34         3     4      180.000000        2.008335         2    ;  uncertainty k = 0.230964
         4        34         3         5     4      180.000000        2.008335         2    ;  uncertainty k = 0.230964
         5         4         6        35     4      180.000000        2.607477         2    ;  uncertainty k = 0.379217
         5         6        35         4     4      180.000000        2.607477         2    ;  uncertainty k = 0.379217
         5        35         4         6     4      180.000000        2.607477         2    ;  uncertainty k = 0.379217
         6         5         7        27     4      180.000000       17.507517         2    ;  uncertainty k = 0.057196
         6         7        27         5     4      180.000000       17.507517         2    ;  uncertainty k = 0.057196
         6        27         5         7     4      180.000000       17.507517         2    ;  uncertainty k = 0.057196
         7         6         8        36     4      180.000000        1.622505         2    ;  uncertainty k = 0.666333
         7         8        36         6     4      180.000000        1.622505         2    ;  uncertainty k = 0.666333
         7        36         6         8     4      180.000000        1.622505         2    ;  uncertainty k = 0.666333
         8         7         9        16     4      180.000000       28.356151         2    ;  uncertainty k = 0.063061
         8         9        16         7     4      180.000000       28.356151         2    ;  uncertainty k = 0.063061
         8        16         7         9     4      180.000000       28.356151         2    ;  uncertainty k = 0.063061
        10         9        11        17     4      180.000000       19.396890         2    ;  uncertainty k = 0.082315
        10        11        17         9     4      180.000000       19.396890         2    ;  uncertainty k = 0.082315
        10        17         9        11     4      180.000000       19.396890         2    ;  uncertainty k = 0.082315
        11        10        12        37     4      180.000000        1.395890         2    ;  uncertainty k = 1.170220
        11        12        37        10     4      180.000000        1.395890         2    ;  uncertainty k = 1.170220
        11        37        10        12     4      180.000000        1.395890         2    ;  uncertainty k = 1.170220
        12        11        13        16     4      180.000000        1.589327         2    ;  uncertainty k = 1.390534
        12        13        16        11     4      180.000000        1.589327         2    ;  uncertainty k = 1.390534
        12        16        11        13     4      180.000000        1.589327         2    ;  uncertainty k = 1.390534
        13        12        14        38     4      180.000000        0.105195         2    ;  uncertainty k = 0.235223
        13        14        38        12     4      180.000000        0.105195         2    ;  uncertainty k = 0.235223
        13        38        12        14     4      180.000000        0.105195         2    ;  uncertainty k = 0.235223
        14        13        15        39     4      180.000000        1.779602         2    ;  uncertainty k = 0.230154
        14        15        39        13     4      180.000000        1.779602         2    ;  uncertainty k = 0.230154
        14        39        13        15     4      180.000000        1.779602         2    ;  uncertainty k = 0.230154
        16         8        12        15     4      180.000000        2.165381         2    ;  uncertainty k = 0.627947
        16        12        15         8     4      180.000000        2.165381         2    ;  uncertainty k = 0.627947
        16        15         8        12     4      180.000000        2.165381         2    ;  uncertainty k = 0.627947
        17        10        18        23     4      180.000000       10.505342         2    ;  uncertainty k = 0.179266
        17        18        23        10     4      180.000000       10.505342         2    ;  uncertainty k = 0.179266
        17        23        10        18     4      180.000000       10.505342         2    ;  uncertainty k = 0.179266
        18        17        19        40     4      180.000000        4.245505         2    ;  uncertainty k = 0.142599
        18        19        40        17     4      180.000000        4.245505         2    ;  uncertainty k = 0.142599
        18        40        17        19     4      180.000000        4.245505         2    ;  uncertainty k = 0.142599
        19        18        20        41     4      180.000000        2.569065         2    ;  uncertainty k = 0.245179
        19        20        41        18     4      180.000000        2.569065         2    ;  uncertainty k = 0.245179
        19        41        18        20     4      180.000000        2.569065         2    ;  uncertainty k = 0.245179
        20        19        21        22     4      180.000000       17.690958         2    ;  uncertainty k = 0.085128
        20        21        22        19     4      180.000000       17.690958         2    ;  uncertainty k = 0.085128
        20        22        19        21     4      180.000000       17.690958         2    ;  uncertainty k = 0.085128
        22        20        23        24     4      180.000000        9.020583         2    ;  uncertainty k = 0.256666
        22        23        24        20     4      180.000000        9.020583         2    ;  uncertainty k = 0.256666
        22        24        20        23     4      180.000000        9.020583         2    ;  uncertainty k = 0.256666
        23        17        22        45     4      180.000000        4.379775         2    ;  uncertainty k = 0.316576
        23        22        45        17     4      180.000000        4.379775         2    ;  uncertainty k = 0.316576
        23        45        17        22     4      180.000000        4.379775         2    ;  uncertainty k = 0.316576
        24        22        25        26     4      180.000000       55.687407         2    ;  uncertainty k = 0.039130
        24        25        26        22     4      180.000000       55.687407         2    ;  uncertainty k = 0.039130
        24        26        22        25     4      180.000000       55.687407         2    ;  uncertainty k = 0.039130
        27         6        28        48     4      180.000000        1.689049         2    ;  uncertainty k = 0.529654
        27        28        48         6     4      180.000000        1.689049         2    ;  uncertainty k = 0.529654
        27        48         6        28     4      180.000000        1.689049         2    ;  uncertainty k = 0.529654
        28         3        27        29     4      180.000000       16.672261         2    ;  uncertainty k = 0.075717
        28        27        29         3     4      180.000000       16.672261         2    ;  uncertainty k = 0.075717
        28        29         3        27     4      180.000000       16.672261         2    ;  uncertainty k = 0.075717

[ pairs ]
;       ai        aj funct
         1         4     1
         1        28     1
         2         5     1
         2        27     1
         2        29     1
         2        34     1
         3         6     1
         3        30     1
         3        31     1
         3        32     1
         3        33     1
         3        35     1
         3        48     1
         4         7     1
         4        27     1
         4        29     1
         5         8     1
         5        28     1
         5        36     1
         5        48     1
         6         9     1
         6        16     1
         6        29     1
         6        34     1
         7        10     1
         7        12     1
         7        15     1
         7        28     1
         7        35     1
         7        48     1
         8        11     1
         8        13     1
         8        14     1
         8        17     1
         8        27     1
         9        12     1
         9        15     1
         9        18     1
         9        23     1
         9        36     1
         9        37     1
        10        13     1
        10        16     1
        10        19     1
        10        22     1
        10        40     1
        10        45     1
        11        14     1
        11        15     1
        11        18     1
        11        23     1
        11        38     1
        12        17     1
        12        39     1
        13        37     1
        15        38     1
        16        36     1
        16        37     1
        16        38     1
        16        39     1
        17        20     1
        17        24     1
        17        37     1
        17        41     1
        18        21     1
        18        22     1
        18        45     1
        19        23     1
        19        24     1
        19        42     1
        19        43     1
        19        44     1
        20        25     1
        20        26     1
        20        40     1
        20        45     1
        21        23     1
        21        24     1
        21        41     1
        22        41     1
        22        42     1
        22        43     1
        22        44     1
        22        46     1
        22        47     1
        23        25     1
        23        26     1
        23        40     1
        24        45     1
        25        46     1
        25        47     1
        27        30     1
        27        35     1
        27        36     1
        28        34     1
        28        49     1
        28        50     1
        28        51     1
        29        48     1
        34        35     1
        38        39     1
        40        41     1
