; ITP file created by ByteFF-joint-25, 2026-02-17 09:33:44.794763

[ atomtypes ]
;name           bonded.type        at.num        mass        charge   ptype           sigma         epsilon
 c0bf                                   6      0.0000       0.00000       A     3.31549e-01     4.13390e-01    ;  uncertainty sigma = 0.000035, epsilon = 0.000966
 c1bf                                   6      0.0000       0.00000       A     3.31564e-01     4.13135e-01    ;  uncertainty sigma = 0.000005, epsilon = 0.000387
 c2bf                                   6      0.0000       0.00000       A     3.31525e-01     4.13295e-01    ;  uncertainty sigma = 0.000005, epsilon = 0.000577
 c3bf                                   6      0.0000       0.00000       A     3.31520e-01     4.12649e-01    ;  uncertainty sigma = 0.000010, epsilon = 0.000842
 c4bf                                   6      0.0000       0.00000       A     3.31499e-01     4.12254e-01    ;  uncertainty sigma = 0.000028, epsilon = 0.000802
 c5bf                                   6      0.0000       0.00000       A     3.31522e-01     4.13552e-01    ;  uncertainty sigma = 0.000009, epsilon = 0.000904
 c6bf                                   6      0.0000       0.00000       A     3.31525e-01     4.13403e-01    ;  uncertainty sigma = 0.000005, epsilon = 0.000549
 c7bf                                   6      0.0000       0.00000       A     3.31564e-01     4.13135e-01    ;  uncertainty sigma = 0.000005, epsilon = 0.000387
 c8bf                                   6      0.0000       0.00000       A     3.31519e-01     4.13371e-01    ;  uncertainty sigma = 0.000005, epsilon = 0.000643
 c9bf                                   6      0.0000       0.00000       A     3.31525e-01     4.13295e-01    ;  uncertainty sigma = 0.000005, epsilon = 0.000577
 cl10bf                                17      0.0000       0.00000       A     3.46613e-01     1.10356e+00    ;  uncertainty sigma = 0.000025, epsilon = 0.001519
 o11bf                                  8      0.0000       0.00000       A     3.04792e-01     6.12550e-01    ;  uncertainty sigma = 0.000022, epsilon = 0.001345
 n12bf                                  7      0.0000       0.00000       A     3.27027e-01     4.91624e-01    ;  uncertainty sigma = 0.000027, epsilon = 0.002173
 n13bf                                  7      0.0000       0.00000       A     3.38414e-01     3.92353e-01    ;  uncertainty sigma = 0.000014, epsilon = 0.000887
 c14bf                                  6      0.0000       0.00000       A     3.31543e-01     4.12378e-01    ;  uncertainty sigma = 0.000017, epsilon = 0.000471
 c15bf                                  6      0.0000       0.00000       A     3.31527e-01     4.13270e-01    ;  uncertainty sigma = 0.000022, epsilon = 0.001274
 n16bf                                  7      0.0000       0.00000       A     3.27032e-01     4.90934e-01    ;  uncertainty sigma = 0.000024, epsilon = 0.001544
 c17bf                                  6      0.0000       0.00000       A     3.31531e-01     4.13224e-01    ;  uncertainty sigma = 0.000008, epsilon = 0.001200
 o18bf                                  8      0.0000       0.00000       A     3.04816e-01     6.12039e-01    ;  uncertainty sigma = 0.000012, epsilon = 0.000950
 c19bf                                  6      0.0000       0.00000       A     3.39769e-01     4.50795e-01    ;  uncertainty sigma = 0.000008, epsilon = 0.000526
 cl20bf                                17      0.0000       0.00000       A     3.46613e-01     1.10356e+00    ;  uncertainty sigma = 0.000025, epsilon = 0.001519
 h21bf                                  1      0.0000       0.00000       A     2.62565e-01     6.70619e-02    ;  uncertainty sigma = 0.000008, epsilon = 0.000556
 h22bf                                  1      0.0000       0.00000       A     2.62534e-01     6.69704e-02    ;  uncertainty sigma = 0.000020, epsilon = 0.000545
 h23bf                                  1      0.0000       0.00000       A     2.53656e-01     6.70482e-02    ;  uncertainty sigma = 0.000017, epsilon = 0.000573
 h24bf                                  1      0.0000       0.00000       A     2.62568e-01     6.69546e-02    ;  uncertainty sigma = 0.000006, epsilon = 0.000527
 h25bf                                  1      0.0000       0.00000       A     2.62565e-01     6.70619e-02    ;  uncertainty sigma = 0.000008, epsilon = 0.000556
 h26bf                                  1      0.0000       0.00000       A     1.10697e-01     4.15615e-02    ;  uncertainty sigma = 0.000094, epsilon = 0.000787
 h27bf                                  1      0.0000       0.00000       A     2.62531e-01     6.69228e-02    ;  uncertainty sigma = 0.000026, epsilon = 0.000688
 h28bf                                  1      0.0000       0.00000       A     1.10651e-01     4.15822e-02    ;  uncertainty sigma = 0.000106, epsilon = 0.001271
 h29bf                                  1      0.0000       0.00000       A     2.60030e-01     8.66767e-02    ;  uncertainty sigma = 0.000008, epsilon = 0.000510
 h30bf                                  1      0.0000       0.00000       A     2.60030e-01     8.66767e-02    ;  uncertainty sigma = 0.000008, epsilon = 0.000510
 h31bf                                  1      0.0000       0.00000       A     2.60030e-01     8.66767e-02    ;  uncertainty sigma = 0.000008, epsilon = 0.000510

[ moleculetype ]
;name             nrexcl
 MOL                   3

[ atoms ]
;       nr            type      resi   res      atom      cgnr      charge          mass ; qtot
         1            c0bf         1   UNL        c0         1    -0.13673       12.0110 ; qtot   -0.137
         2            c1bf         1   UNL        c1         2     0.06477       12.0110 ; qtot   -0.072
         3            c2bf         1   UNL        c2         3    -0.12372       12.0110 ; qtot   -0.196
         4            c3bf         1   UNL        c3         4     0.13648       12.0110 ; qtot   -0.059
         5            c4bf         1   UNL        c4         5     0.70160       12.0110 ; qtot    0.642
         6            c5bf         1   UNL        c5         6    -0.31812       12.0110 ; qtot    0.324
         7            c6bf         1   UNL        c6         7     0.45431       12.0110 ; qtot    0.779
         8            c7bf         1   UNL        c7         8     0.06477       12.0110 ; qtot    0.843
         9            c8bf         1   UNL        c8         9    -0.09581       12.0110 ; qtot    0.748
        10            c9bf         1   UNL        c9        10    -0.12372       12.0110 ; qtot    0.624
        11          cl10bf         1   UNL      cl10        11    -0.09667       35.4530 ; qtot    0.527
        12           o11bf         1   UNL       o11        12    -0.55036       15.9990 ; qtot   -0.023
        13           n12bf         1   UNL       n12        13    -0.46533       14.0070 ; qtot   -0.489
        14           n13bf         1   UNL       n13        14    -0.72469       14.0070 ; qtot   -1.213
        15           c14bf         1   UNL       c14        15     0.56034       12.0110 ; qtot   -0.653
        16           c15bf         1   UNL       c15        16    -0.31042       12.0110 ; qtot   -0.963
        17           n16bf         1   UNL       n16        17    -0.57473       14.0070 ; qtot   -1.538
        18           c17bf         1   UNL       c17        18     0.67530       12.0110 ; qtot   -0.863
        19           o18bf         1   UNL       o18        19    -0.56405       15.9990 ; qtot   -1.427
        20           c19bf         1   UNL       c19        20    -0.17716       12.0110 ; qtot   -1.604
        21          cl20bf         1   UNL      cl20        21    -0.09667       35.4530 ; qtot   -1.701
        22           h21bf         1   UNL       h21        22     0.15894        1.0080 ; qtot   -1.542
        23           h22bf         1   UNL       h22        23     0.16313        1.0080 ; qtot   -1.379
        24           h23bf         1   UNL       h23        24     0.01919        1.0080 ; qtot   -1.359
        25           h24bf         1   UNL       h24        25     0.14278        1.0080 ; qtot   -1.217
        26           h25bf         1   UNL       h25        26     0.15894        1.0080 ; qtot   -1.058
        27           h26bf         1   UNL       h26        27     0.33920        1.0080 ; qtot   -0.718
        28           h27bf         1   UNL       h27        28     0.18077        1.0080 ; qtot   -0.538
        29           h28bf         1   UNL       h28        29     0.33074        1.0080 ; qtot   -0.207
        30           h29bf         1   UNL       h29        30     0.06897        1.0080 ; qtot   -0.138
        31           h30bf         1   UNL       h30        31     0.06897        1.0080 ; qtot   -0.069
        32           h31bf         1   UNL       h31        32     0.06898        1.0080 ; qtot   -0.000

[ bonds ]
;       ai        aj funct               r               k
         1         2     1        0.139920   314205.988965    ;  uncertainty r = 0.000059, k = 10.355889
         1         5     1        0.151314   265032.676025    ;  uncertainty r = 0.000141, k = 25.452716
         1         8     1        0.139920   314205.988965    ;  uncertainty r = 0.000059, k = 10.355889
         2         3     1        0.139442   359146.551563    ;  uncertainty r = 0.000054, k = 3.481137
         2        11     1        0.175360   192488.234717    ;  uncertainty r = 0.000074, k = 4.279805
         3         9     1        0.139292   379946.297314    ;  uncertainty r = 0.000031, k = 1.315137
         3        22     1        0.108683   334938.061377    ;  uncertainty r = 0.000015, k = 0.960770
         4         6     1        0.140570   376090.806689    ;  uncertainty r = 0.000061, k = 6.523252
         4        13     1        0.140706   335244.481152    ;  uncertainty r = 0.000185, k = 14.115330
         4        16     1        0.139888   380122.937500    ;  uncertainty r = 0.000080, k = 3.904899
         5        12     1        0.122846   748673.427441    ;  uncertainty r = 0.000143, k = 20.391507
         5        13     1        0.137342   285190.010254    ;  uncertainty r = 0.000166, k = 14.492660
         6         7     1        0.139660   375491.680566    ;  uncertainty r = 0.000079, k = 13.453144
         6        23     1        0.108729   340462.427637    ;  uncertainty r = 0.000049, k = 2.577688
         7        14     1        0.133994   391612.466064    ;  uncertainty r = 0.000075, k = 9.938255
         7        24     1        0.108903   331910.688135    ;  uncertainty r = 0.000036, k = 1.905640
         8        10     1        0.139442   359146.551563    ;  uncertainty r = 0.000054, k = 3.481137
         8        21     1        0.175360   192488.234717    ;  uncertainty r = 0.000074, k = 4.279805
         9        10     1        0.139292   379946.297314    ;  uncertainty r = 0.000031, k = 1.315137
         9        25     1        0.108720   333853.628027    ;  uncertainty r = 0.000011, k = 1.678519
        10        26     1        0.108683   334938.061377    ;  uncertainty r = 0.000015, k = 0.960770
        13        27     1        0.101831   422627.387549    ;  uncertainty r = 0.000095, k = 5.435166
        14        15     1        0.134808   455592.297168    ;  uncertainty r = 0.000103, k = 10.796279
        15        16     1        0.140420   360949.394873    ;  uncertainty r = 0.000158, k = 19.728698
        15        17     1        0.141220   455751.904102    ;  uncertainty r = 0.000103, k = 5.390873
        16        28     1        0.108728   342650.115186    ;  uncertainty r = 0.000071, k = 4.514926
        17        18     1        0.138738   384347.592578    ;  uncertainty r = 0.000120, k = 34.627744
        17        29     1        0.101849   475160.771191    ;  uncertainty r = 0.000046, k = 5.606573
        18        19     1        0.122762   762092.820898    ;  uncertainty r = 0.000092, k = 8.543124
        18        20     1        0.151740   214549.002930    ;  uncertainty r = 0.000112, k = 6.260640
        20        30     1        0.109448   318710.505225    ;  uncertainty r = 0.000020, k = 2.782666
        20        31     1        0.109448   318710.505225    ;  uncertainty r = 0.000020, k = 2.782666
        20        32     1        0.109448   318710.530762    ;  uncertainty r = 0.000020, k = 2.782653

[ angles ]
;       ai        aj        ak funct           theta             cth
         1         2         3     1      124.614235      359.881075    ;  uncertainty theta = 0.007318, k = 0.141141
         1         2        11     1      117.122276      401.475760    ;  uncertainty theta = 0.004274, k = 0.169678
         1         5        12     1      122.451149      457.836639    ;  uncertainty theta = 0.012324, k = 0.396747
         1         5        13     1      112.777939      397.551185    ;  uncertainty theta = 0.004296, k = 0.197514
         1         8        10     1      124.614235      359.881075    ;  uncertainty theta = 0.007318, k = 0.141141
         1         8        21     1      117.122276      401.475760    ;  uncertainty theta = 0.004274, k = 0.169678
         2         1         5     1      120.701454      353.629431    ;  uncertainty theta = 0.013311, k = 0.275393
         2         1         8     1      120.699013      430.079652    ;  uncertainty theta = 0.009492, k = 0.209916
         2         3         9     1      118.495155      498.161267    ;  uncertainty theta = 0.004039, k = 0.062916
         2         3        22     1      120.521286      283.386643    ;  uncertainty theta = 0.002118, k = 0.065156
         3         2        11     1      119.919701      462.386458    ;  uncertainty theta = 0.001017, k = 0.162558
         3         9        10     1      119.368362      506.538875    ;  uncertainty theta = 0.002463, k = 0.055814
         3         9        25     1      119.878922      281.614496    ;  uncertainty theta = 0.001408, k = 0.030814
         4         6         7     1      115.739685      478.573602    ;  uncertainty theta = 0.004925, k = 0.048676
         4         6        23     1      120.342453      269.550669    ;  uncertainty theta = 0.001665, k = 0.097098
         4        13         5     1      117.316322      446.625912    ;  uncertainty theta = 0.002594, k = 0.143032
         4        13        27     1      113.569641      313.594043    ;  uncertainty theta = 0.004804, k = 0.335936
         4        16        15     1      114.623024      483.988905    ;  uncertainty theta = 0.009973, k = 0.183417
         4        16        28     1      120.939209      271.450854    ;  uncertainty theta = 0.003524, k = 0.170658
         5         1         8     1      120.701454      353.629431    ;  uncertainty theta = 0.013311, k = 0.275393
         5        13        27     1      116.863647      359.759902    ;  uncertainty theta = 0.004202, k = 0.178017
         6         4        13     1      120.717148      522.791043    ;  uncertainty theta = 0.004408, k = 0.164372
         6         4        16     1      117.416847      392.902218    ;  uncertainty theta = 0.006627, k = 0.175333
         6         7        14     1      123.543961      696.121300    ;  uncertainty theta = 0.003420, k = 0.078262
         6         7        24     1      120.074997      274.168737    ;  uncertainty theta = 0.001842, k = 0.112779
         7         6        23     1      122.550827      311.952454    ;  uncertainty theta = 0.002566, k = 0.162360
         7        14        15     1      113.180885      422.080249    ;  uncertainty theta = 0.009066, k = 0.231855
         8        10         9     1      118.495155      498.161267    ;  uncertainty theta = 0.004039, k = 0.062916
         8        10        26     1      120.521286      283.386643    ;  uncertainty theta = 0.002118, k = 0.065156
         9         3        22     1      121.431229      283.380802    ;  uncertainty theta = 0.000813, k = 0.055588
         9        10        26     1      121.431229      283.380802    ;  uncertainty theta = 0.000813, k = 0.055588
        10         8        21     1      119.919701      462.386458    ;  uncertainty theta = 0.001017, k = 0.162558
        10         9        25     1      119.878922      281.614496    ;  uncertainty theta = 0.001408, k = 0.030814
        12         5        13     1      122.021950      773.152841    ;  uncertainty theta = 0.004688, k = 0.191943
        13         4        16     1      120.305321      521.084110    ;  uncertainty theta = 0.005936, k = 0.131730
        14         7        24     1      115.960632      320.554885    ;  uncertainty theta = 0.002673, k = 0.119768
        14        15        16     1      123.012695      544.141088    ;  uncertainty theta = 0.009625, k = 0.215912
        14        15        17     1      120.125587      729.749842    ;  uncertainty theta = 0.004350, k = 0.074140
        15        16        28     1      121.722427      277.622471    ;  uncertainty theta = 0.005455, k = 0.130482
        15        17        18     1      120.814041      450.365662    ;  uncertainty theta = 0.003627, k = 0.282622
        15        17        29     1      116.538498      332.434014    ;  uncertainty theta = 0.002108, k = 0.185846
        16        15        17     1      121.278358      559.102067    ;  uncertainty theta = 0.007145, k = 0.284821
        17        18        19     1      121.920853      708.939588    ;  uncertainty theta = 0.003964, k = 0.133097
        17        18        20     1      113.454269      535.093449    ;  uncertainty theta = 0.003362, k = 0.094310
        18        17        29     1      115.872253      265.957295    ;  uncertainty theta = 0.003326, k = 0.388635
        18        20        30     1      108.173378      366.791800    ;  uncertainty theta = 0.001975, k = 0.014866
        18        20        31     1      108.173378      366.791800    ;  uncertainty theta = 0.001975, k = 0.014866
        18        20        32     1      108.173378      366.791800    ;  uncertainty theta = 0.001975, k = 0.014866
        19        18        20     1      124.943565      541.417172    ;  uncertainty theta = 0.001328, k = 0.064503
        30        20        31     1      106.881912      312.312144    ;  uncertainty theta = 0.000722, k = 0.021887
        30        20        32     1      106.881912      312.312144    ;  uncertainty theta = 0.000722, k = 0.021887
        31        20        32     1      106.881912      312.312144    ;  uncertainty theta = 0.000722, k = 0.021887

[ dihedrals ] ; propers for gromacs 4.5 or higher, use funct 9
;       ai        aj        ak        al funct           phase               k        pn
         1         2         3         9     9        0.000000        0.129562         1    ;  uncertainty k = 0.258537
         1         2         3         9     9      180.000000        9.006461         2    ;  uncertainty k = 0.178121
         1         2         3         9     9        0.000000        0.010291         3    ;  uncertainty k = 0.509158
         1         2         3         9     9      180.000000        1.179148         4    ;  uncertainty k = 0.340357
         1         2         3        22     9        0.000000        0.017749         1    ;  uncertainty k = 0.506174
         1         2         3        22     9      180.000000        5.847178         2    ;  uncertainty k = 0.808481
         1         2         3        22     9        0.000000        1.301869         3    ;  uncertainty k = 0.271599
         1         2         3        22     9      180.000000        1.572515         4    ;  uncertainty k = 0.163634
         1         5        13         4     9        0.000000        4.012883         1    ;  uncertainty k = 0.741994
         1         5        13         4     9      180.000000       10.050056         2    ;  uncertainty k = 0.176781
         1         5        13         4     9        0.000000        1.524529         3    ;  uncertainty k = 0.439697
         1         5        13         4     9      180.000000       -1.034114         4    ;  uncertainty k = 0.394406
         1         5        13        27     9        0.000000        0.286201         1    ;  uncertainty k = 0.970625
         1         5        13        27     9      180.000000        4.591571         2    ;  uncertainty k = 0.675511
         1         5        13        27     9        0.000000        1.269715         3    ;  uncertainty k = 0.289099
         1         5        13        27     9      180.000000        0.225446         4    ;  uncertainty k = 0.265035
         1         8        10         9     9        0.000000        0.129562         1    ;  uncertainty k = 0.258537
         1         8        10         9     9      180.000000        9.006461         2    ;  uncertainty k = 0.178121
         1         8        10         9     9        0.000000        0.010291         3    ;  uncertainty k = 0.509158
         1         8        10         9     9      180.000000        1.179148         4    ;  uncertainty k = 0.340357
         1         8        10        26     9        0.000000        0.017749         1    ;  uncertainty k = 0.506174
         1         8        10        26     9      180.000000        5.847178         2    ;  uncertainty k = 0.808481
         1         8        10        26     9        0.000000        1.301869         3    ;  uncertainty k = 0.271599
         1         8        10        26     9      180.000000        1.572515         4    ;  uncertainty k = 0.163634
         2         1         5        12     9        0.000000       -0.938458         1    ;  uncertainty k = 0.721948
         2         1         5        12     9      180.000000        3.726943         2    ;  uncertainty k = 0.367149
         2         1         5        12     9        0.000000        0.533107         3    ;  uncertainty k = 0.173933
         2         1         5        12     9      180.000000        0.129066         4    ;  uncertainty k = 0.152302
         2         1         5        13     9        0.000000        1.636802         1    ;  uncertainty k = 0.717500
         2         1         5        13     9      180.000000        0.794893         2    ;  uncertainty k = 0.489697
         2         1         5        13     9        0.000000        0.486371         3    ;  uncertainty k = 0.368442
         2         1         5        13     9      180.000000       -0.111126         4    ;  uncertainty k = 0.129000
         2         1         8        10     9        0.000000        0.157030         1    ;  uncertainty k = 0.251028
         2         1         8        10     9      180.000000        6.621005         2    ;  uncertainty k = 0.890169
         2         1         8        10     9        0.000000        0.446154         3    ;  uncertainty k = 0.192247
         2         1         8        10     9      180.000000        1.346016         4    ;  uncertainty k = 0.373704
         2         1         8        21     9        0.000000        0.044095         1    ;  uncertainty k = 0.788675
         2         1         8        21     9      180.000000        8.268702         2    ;  uncertainty k = 0.180496
         2         1         8        21     9        0.000000        1.453925         3    ;  uncertainty k = 0.378329
         2         1         8        21     9      180.000000        1.534665         4    ;  uncertainty k = 0.225736
         2         3         9        10     9        0.000000        0.056957         1    ;  uncertainty k = 0.125369
         2         3         9        10     9      180.000000       14.284910         2    ;  uncertainty k = 0.214373
         2         3         9        10     9        0.000000       -1.022656         3    ;  uncertainty k = 0.417280
         2         3         9        10     9      180.000000        0.771729         4    ;  uncertainty k = 0.212175
         2         3         9        25     9        0.000000        0.083384         1    ;  uncertainty k = 0.200417
         2         3         9        25     9      180.000000        7.197642         2    ;  uncertainty k = 0.253695
         2         3         9        25     9        0.000000        1.438769         3    ;  uncertainty k = 0.264288
         2         3         9        25     9      180.000000        1.864824         4    ;  uncertainty k = 0.166987
         3         2         1         5     9        0.000000        0.540121         1    ;  uncertainty k = 0.659361
         3         2         1         5     9      180.000000        6.952584         2    ;  uncertainty k = 0.900726
         3         2         1         5     9        0.000000        1.504339         3    ;  uncertainty k = 0.227715
         3         2         1         5     9      180.000000        1.691626         4    ;  uncertainty k = 0.279736
         3         2         1         8     9        0.000000        0.157030         1    ;  uncertainty k = 0.251028
         3         2         1         8     9      180.000000        6.621005         2    ;  uncertainty k = 0.890169
         3         2         1         8     9        0.000000        0.446154         3    ;  uncertainty k = 0.192247
         3         2         1         8     9      180.000000        1.346016         4    ;  uncertainty k = 0.373704
         3         9        10         8     9        0.000000        0.056957         1    ;  uncertainty k = 0.125369
         3         9        10         8     9      180.000000       14.284910         2    ;  uncertainty k = 0.214373
         3         9        10         8     9        0.000000       -1.022656         3    ;  uncertainty k = 0.417280
         3         9        10         8     9      180.000000        0.771729         4    ;  uncertainty k = 0.212175
         3         9        10        26     9        0.000000        0.071341         1    ;  uncertainty k = 0.156537
         3         9        10        26     9      180.000000        7.824333         2    ;  uncertainty k = 0.388735
         3         9        10        26     9        0.000000        1.476015         3    ;  uncertainty k = 0.262591
         3         9        10        26     9      180.000000        1.800034         4    ;  uncertainty k = 0.168947
         4         6         7        14     9        0.000000       -0.195407         1    ;  uncertainty k = 0.224371
         4         6         7        14     9      180.000000       15.656345         2    ;  uncertainty k = 0.436682
         4         6         7        14     9        0.000000       -1.161745         3    ;  uncertainty k = 0.312648
         4         6         7        14     9      180.000000        0.795456         4    ;  uncertainty k = 0.157453
         4         6         7        24     9        0.000000       -0.488021         1    ;  uncertainty k = 0.352061
         4         6         7        24     9      180.000000        6.981430         2    ;  uncertainty k = 0.581321
         4         6         7        24     9        0.000000        1.147582         3    ;  uncertainty k = 0.230024
         4         6         7        24     9      180.000000        1.407164         4    ;  uncertainty k = 0.046480
         4        13         5        12     9        0.000000        3.184547         1    ;  uncertainty k = 1.295174
         4        13         5        12     9      180.000000       13.546940         2    ;  uncertainty k = 0.231063
         4        13         5        12     9        0.000000        0.722658         3    ;  uncertainty k = 0.182961
         4        13         5        12     9      180.000000       -0.666531         4    ;  uncertainty k = 0.131850
         4        16        15        14     9        0.000000       -0.464065         1    ;  uncertainty k = 0.252995
         4        16        15        14     9      180.000000       10.275201         2    ;  uncertainty k = 0.473691
         4        16        15        14     9        0.000000       -0.452152         3    ;  uncertainty k = 0.678752
         4        16        15        14     9      180.000000        0.994486         4    ;  uncertainty k = 0.090868
         4        16        15        17     9        0.000000       -0.024840         1    ;  uncertainty k = 0.589944
         4        16        15        17     9      180.000000        8.591847         2    ;  uncertainty k = 0.578717
         4        16        15        17     9        0.000000        0.895322         3    ;  uncertainty k = 0.417513
         4        16        15        17     9      180.000000        1.224458         4    ;  uncertainty k = 0.508854
         5         1         2        11     9        0.000000        0.293529         1    ;  uncertainty k = 1.201193
         5         1         2        11     9      180.000000        8.809351         2    ;  uncertainty k = 0.492509
         5         1         2        11     9        0.000000        1.507479         3    ;  uncertainty k = 0.181959
         5         1         2        11     9      180.000000        1.331521         4    ;  uncertainty k = 0.158721
         5         1         8        10     9        0.000000        0.540121         1    ;  uncertainty k = 0.659361
         5         1         8        10     9      180.000000        6.952584         2    ;  uncertainty k = 0.900726
         5         1         8        10     9        0.000000        1.504339         3    ;  uncertainty k = 0.227715
         5         1         8        10     9      180.000000        1.691626         4    ;  uncertainty k = 0.279736
         5         1         8        21     9        0.000000        0.293529         1    ;  uncertainty k = 1.201193
         5         1         8        21     9      180.000000        8.809351         2    ;  uncertainty k = 0.492509
         5         1         8        21     9        0.000000        1.507479         3    ;  uncertainty k = 0.181959
         5         1         8        21     9      180.000000        1.331521         4    ;  uncertainty k = 0.158721
         5        13         4         6     9        0.000000        0.671405         1    ;  uncertainty k = 0.779653
         5        13         4         6     9      180.000000        5.171684         2    ;  uncertainty k = 0.343054
         5        13         4         6     9        0.000000        0.900418         3    ;  uncertainty k = 0.162472
         5        13         4         6     9      180.000000        0.037683         4    ;  uncertainty k = 0.022188
         5        13         4        16     9        0.000000        0.711827         1    ;  uncertainty k = 0.532347
         5        13         4        16     9      180.000000        5.530463         2    ;  uncertainty k = 0.448142
         5        13         4        16     9        0.000000        0.877052         3    ;  uncertainty k = 0.137757
         5        13         4        16     9      180.000000        0.010492         4    ;  uncertainty k = 0.127906
         6         4        13        27     9        0.000000        1.029279         1    ;  uncertainty k = 1.463602
         6         4        13        27     9      180.000000        5.196719         2    ;  uncertainty k = 0.208685
         6         4        13        27     9        0.000000        0.851853         3    ;  uncertainty k = 0.351032
         6         4        13        27     9      180.000000        0.326889         4    ;  uncertainty k = 0.129780
         6         4        16        15     9        0.000000       -0.034556         1    ;  uncertainty k = 0.322308
         6         4        16        15     9      180.000000       10.295187         2    ;  uncertainty k = 0.397647
         6         4        16        15     9        0.000000       -0.323404         3    ;  uncertainty k = 0.115017
         6         4        16        15     9      180.000000        1.131555         4    ;  uncertainty k = 0.286394
         6         4        16        28     9        0.000000        0.495810         1    ;  uncertainty k = 0.512648
         6         4        16        28     9      180.000000        7.789312         2    ;  uncertainty k = 0.437403
         6         4        16        28     9        0.000000        1.413160         3    ;  uncertainty k = 0.268514
         6         4        16        28     9      180.000000        1.568179         4    ;  uncertainty k = 0.220540
         6         7        14        15     9        0.000000       -0.434704         1    ;  uncertainty k = 0.287978
         6         7        14        15     9      180.000000       14.487160         2    ;  uncertainty k = 0.431664
         6         7        14        15     9        0.000000        0.736427         3    ;  uncertainty k = 0.441930
         6         7        14        15     9      180.000000        1.323151         4    ;  uncertainty k = 0.257487
         7         6         4        13     9        0.000000       -0.156685         1    ;  uncertainty k = 0.327783
         7         6         4        13     9      180.000000       10.573743         2    ;  uncertainty k = 0.368407
         7         6         4        13     9        0.000000        0.699890         3    ;  uncertainty k = 0.295405
         7         6         4        13     9      180.000000        1.371703         4    ;  uncertainty k = 0.342554
         7         6         4        16     9        0.000000       -0.285179         1    ;  uncertainty k = 0.405985
         7         6         4        16     9      180.000000       10.375539         2    ;  uncertainty k = 0.252930
         7         6         4        16     9        0.000000       -0.505381         3    ;  uncertainty k = 0.471184
         7         6         4        16     9      180.000000        1.111552         4    ;  uncertainty k = 0.116415
         7        14        15        16     9        0.000000       -0.528728         1    ;  uncertainty k = 0.659068
         7        14        15        16     9      180.000000       11.784025         2    ;  uncertainty k = 0.791341
         7        14        15        16     9        0.000000        0.973487         3    ;  uncertainty k = 0.639523
         7        14        15        16     9      180.000000        1.364657         4    ;  uncertainty k = 0.292479
         7        14        15        17     9        0.000000       -0.276097         1    ;  uncertainty k = 1.277631
         7        14        15        17     9      180.000000       15.735387         2    ;  uncertainty k = 0.233807
         7        14        15        17     9        0.000000        1.981191         3    ;  uncertainty k = 0.327948
         7        14        15        17     9      180.000000        1.727551         4    ;  uncertainty k = 0.422360
         8         1         2        11     9        0.000000        0.044095         1    ;  uncertainty k = 0.788675
         8         1         2        11     9      180.000000        8.268702         2    ;  uncertainty k = 0.180496
         8         1         2        11     9        0.000000        1.453925         3    ;  uncertainty k = 0.378329
         8         1         2        11     9      180.000000        1.534665         4    ;  uncertainty k = 0.225736
         8         1         5        12     9        0.000000       -0.938458         1    ;  uncertainty k = 0.721948
         8         1         5        12     9      180.000000        3.726943         2    ;  uncertainty k = 0.367149
         8         1         5        12     9        0.000000        0.533107         3    ;  uncertainty k = 0.173933
         8         1         5        12     9      180.000000        0.129066         4    ;  uncertainty k = 0.152302
         8         1         5        13     9        0.000000        1.636802         1    ;  uncertainty k = 0.717500
         8         1         5        13     9      180.000000        0.794893         2    ;  uncertainty k = 0.489697
         8         1         5        13     9        0.000000        0.486371         3    ;  uncertainty k = 0.368442
         8         1         5        13     9      180.000000       -0.111126         4    ;  uncertainty k = 0.129000
         8        10         9        25     9        0.000000        0.083384         1    ;  uncertainty k = 0.200417
         8        10         9        25     9      180.000000        7.197642         2    ;  uncertainty k = 0.253695
         8        10         9        25     9        0.000000        1.438769         3    ;  uncertainty k = 0.264288
         8        10         9        25     9      180.000000        1.864824         4    ;  uncertainty k = 0.166987
         9         3         2        11     9        0.000000       -0.125974         1    ;  uncertainty k = 0.141879
         9         3         2        11     9      180.000000        9.826857         2    ;  uncertainty k = 0.423980
         9         3         2        11     9        0.000000        1.360528         3    ;  uncertainty k = 0.293318
         9         3         2        11     9      180.000000        1.645146         4    ;  uncertainty k = 0.120261
         9        10         8        21     9        0.000000       -0.125974         1    ;  uncertainty k = 0.141879
         9        10         8        21     9      180.000000        9.826857         2    ;  uncertainty k = 0.423980
         9        10         8        21     9        0.000000        1.360528         3    ;  uncertainty k = 0.293318
         9        10         8        21     9      180.000000        1.645146         4    ;  uncertainty k = 0.120261
        10         9         3        22     9        0.000000        0.071341         1    ;  uncertainty k = 0.156537
        10         9         3        22     9      180.000000        7.824333         2    ;  uncertainty k = 0.388735
        10         9         3        22     9        0.000000        1.476015         3    ;  uncertainty k = 0.262591
        10         9         3        22     9      180.000000        1.800034         4    ;  uncertainty k = 0.168947
        11         2         3        22     9        0.000000       -0.203688         1    ;  uncertainty k = 0.537167
        11         2         3        22     9      180.000000        7.741258         2    ;  uncertainty k = 0.413148
        11         2         3        22     9        0.000000        0.589378         3    ;  uncertainty k = 0.256365
        11         2         3        22     9      180.000000        1.098417         4    ;  uncertainty k = 0.232050
        12         5        13        27     9        0.000000        2.754751         1    ;  uncertainty k = 1.678083
        12         5        13        27     9      180.000000       15.343140         2    ;  uncertainty k = 0.287199
        12         5        13        27     9        0.000000        1.862099         3    ;  uncertainty k = 0.346350
        12         5        13        27     9      180.000000       -0.086397         4    ;  uncertainty k = 0.341591
        13         4         6        23     9        0.000000       -0.319544         1    ;  uncertainty k = 0.345314
        13         4         6        23     9      180.000000        8.037585         2    ;  uncertainty k = 0.455395
        13         4         6        23     9        0.000000        0.835277         3    ;  uncertainty k = 0.138723
        13         4         6        23     9      180.000000        1.127271         4    ;  uncertainty k = 0.123904
        13         4        16        15     9        0.000000       -0.065967         1    ;  uncertainty k = 0.517553
        13         4        16        15     9      180.000000       12.038047         2    ;  uncertainty k = 0.781573
        13         4        16        15     9        0.000000        0.825980         3    ;  uncertainty k = 0.279259
        13         4        16        15     9      180.000000        1.301111         4    ;  uncertainty k = 0.661356
        13         4        16        28     9        0.000000       -0.284940         1    ;  uncertainty k = 0.433757
        13         4        16        28     9      180.000000        8.866330         2    ;  uncertainty k = 0.437510
        13         4        16        28     9        0.000000        0.893476         3    ;  uncertainty k = 0.163359
        13         4        16        28     9      180.000000        1.196102         4    ;  uncertainty k = 0.184028
        14         7         6        23     9        0.000000        0.122843         1    ;  uncertainty k = 0.167730
        14         7         6        23     9      180.000000       10.140002         2    ;  uncertainty k = 0.394062
        14         7         6        23     9        0.000000        1.030077         3    ;  uncertainty k = 0.344283
        14         7         6        23     9      180.000000        1.733914         4    ;  uncertainty k = 0.164436
        14        15        16        28     9        0.000000        0.542253         1    ;  uncertainty k = 0.642374
        14        15        16        28     9      180.000000        7.874279         2    ;  uncertainty k = 0.831437
        14        15        16        28     9        0.000000        1.184594         3    ;  uncertainty k = 0.285729
        14        15        16        28     9      180.000000        1.410448         4    ;  uncertainty k = 0.204437
        14        15        17        18     9        0.000000        1.743054         1    ;  uncertainty k = 1.373541
        14        15        17        18     9      180.000000        5.383823         2    ;  uncertainty k = 0.462390
        14        15        17        18     9        0.000000        0.936464         3    ;  uncertainty k = 0.215444
        14        15        17        18     9      180.000000       -0.140348         4    ;  uncertainty k = 0.114974
        14        15        17        29     9        0.000000        6.338489         1    ;  uncertainty k = 0.339444
        14        15        17        29     9      180.000000        4.944671         2    ;  uncertainty k = 0.478588
        14        15        17        29     9        0.000000        0.156172         3    ;  uncertainty k = 0.300553
        14        15        17        29     9      180.000000        0.097758         4    ;  uncertainty k = 0.263819
        15        14         7        24     9        0.000000       -0.299672         1    ;  uncertainty k = 0.399050
        15        14         7        24     9      180.000000       15.012660         2    ;  uncertainty k = 0.486927
        15        14         7        24     9        0.000000        2.030567         3    ;  uncertainty k = 0.747625
        15        14         7        24     9      180.000000        1.319658         4    ;  uncertainty k = 0.389357
        15        17        18        19     9        0.000000        4.299597         1    ;  uncertainty k = 0.529723
        15        17        18        19     9      180.000000       15.919264         2    ;  uncertainty k = 0.162276
        15        17        18        19     9        0.000000        0.413680         3    ;  uncertainty k = 0.259578
        15        17        18        19     9      180.000000       -1.299390         4    ;  uncertainty k = 0.160036
        15        17        18        20     9        0.000000        5.559137         1    ;  uncertainty k = 0.808481
        15        17        18        20     9      180.000000        8.917705         2    ;  uncertainty k = 0.223151
        15        17        18        20     9        0.000000        1.178197         3    ;  uncertainty k = 0.321404
        15        17        18        20     9      180.000000       -0.447890         4    ;  uncertainty k = 0.097574
        16         4         6        23     9        0.000000        0.271532         1    ;  uncertainty k = 0.336428
        16         4         6        23     9      180.000000        7.226426         2    ;  uncertainty k = 0.631095
        16         4         6        23     9        0.000000        1.360809         3    ;  uncertainty k = 0.281224
        16         4         6        23     9      180.000000        1.471445         4    ;  uncertainty k = 0.135494
        16         4        13        27     9        0.000000        2.082977         1    ;  uncertainty k = 1.379272
        16         4        13        27     9      180.000000        5.485332         2    ;  uncertainty k = 0.410084
        16         4        13        27     9        0.000000        0.777949         3    ;  uncertainty k = 0.387063
        16         4        13        27     9      180.000000        0.268009         4    ;  uncertainty k = 0.118801
        16        15        17        18     9        0.000000       -0.168056         1    ;  uncertainty k = 1.284894
        16        15        17        18     9      180.000000        4.839968         2    ;  uncertainty k = 0.163886
        16        15        17        18     9        0.000000        0.473981         3    ;  uncertainty k = 0.233758
        16        15        17        18     9      180.000000       -0.187476         4    ;  uncertainty k = 0.071930
        16        15        17        29     9        0.000000        0.637658         1    ;  uncertainty k = 1.043645
        16        15        17        29     9      180.000000        4.691269         2    ;  uncertainty k = 0.473875
        16        15        17        29     9        0.000000        1.223273         3    ;  uncertainty k = 0.342094
        16        15        17        29     9      180.000000        0.141022         4    ;  uncertainty k = 0.171061
        17        15        16        28     9        0.000000       -0.401204         1    ;  uncertainty k = 0.434196
        17        15        16        28     9      180.000000        6.564633         2    ;  uncertainty k = 0.280704
        17        15        16        28     9        0.000000        0.808029         3    ;  uncertainty k = 0.170758
        17        15        16        28     9      180.000000        0.932444         4    ;  uncertainty k = 0.194055
        17        18        20        30     9        0.000000       -1.081817         1    ;  uncertainty k = 0.389457
        17        18        20        30     9      180.000000        1.911524         2    ;  uncertainty k = 0.329493
        17        18        20        30     9        0.000000        0.251620         3    ;  uncertainty k = 0.053132
        17        18        20        30     9      180.000000        0.041676         4    ;  uncertainty k = 0.072905
        17        18        20        31     9        0.000000       -1.081817         1    ;  uncertainty k = 0.389457
        17        18        20        31     9      180.000000        1.911524         2    ;  uncertainty k = 0.329493
        17        18        20        31     9        0.000000        0.251620         3    ;  uncertainty k = 0.053132
        17        18        20        31     9      180.000000        0.041676         4    ;  uncertainty k = 0.072905
        17        18        20        32     9        0.000000       -1.081817         1    ;  uncertainty k = 0.389457
        17        18        20        32     9      180.000000        1.911524         2    ;  uncertainty k = 0.329493
        17        18        20        32     9        0.000000        0.251620         3    ;  uncertainty k = 0.053132
        17        18        20        32     9      180.000000        0.041676         4    ;  uncertainty k = 0.072905
        19        18        17        29     9        0.000000        3.186485         1    ;  uncertainty k = 0.874848
        19        18        17        29     9      180.000000       14.329967         2    ;  uncertainty k = 0.280230
        19        18        17        29     9        0.000000        0.729379         3    ;  uncertainty k = 0.382893
        19        18        17        29     9      180.000000       -0.487661         4    ;  uncertainty k = 0.315516
        19        18        20        30     9        0.000000        0.376436         1    ;  uncertainty k = 0.410069
        19        18        20        30     9      180.000000        4.033350         2    ;  uncertainty k = 0.263430
        19        18        20        30     9        0.000000        0.490135         3    ;  uncertainty k = 0.023046
        19        18        20        30     9      180.000000        0.164202         4    ;  uncertainty k = 0.029464
        19        18        20        31     9        0.000000        0.376436         1    ;  uncertainty k = 0.410069
        19        18        20        31     9      180.000000        4.033350         2    ;  uncertainty k = 0.263430
        19        18        20        31     9        0.000000        0.490135         3    ;  uncertainty k = 0.023046
        19        18        20        31     9      180.000000        0.164202         4    ;  uncertainty k = 0.029464
        19        18        20        32     9        0.000000        0.376436         1    ;  uncertainty k = 0.410069
        19        18        20        32     9      180.000000        4.033350         2    ;  uncertainty k = 0.263430
        19        18        20        32     9        0.000000        0.490135         3    ;  uncertainty k = 0.023046
        19        18        20        32     9      180.000000        0.164202         4    ;  uncertainty k = 0.029464
        20        18        17        29     9        0.000000       -1.054834         1    ;  uncertainty k = 0.670173
        20        18        17        29     9      180.000000        6.132682         2    ;  uncertainty k = 0.606496
        20        18        17        29     9        0.000000        1.888826         3    ;  uncertainty k = 0.224499
        20        18        17        29     9      180.000000        0.135396         4    ;  uncertainty k = 0.247356
        21         8        10        26     9        0.000000       -0.203688         1    ;  uncertainty k = 0.537167
        21         8        10        26     9      180.000000        7.741257         2    ;  uncertainty k = 0.413148
        21         8        10        26     9        0.000000        0.589378         3    ;  uncertainty k = 0.256365
        21         8        10        26     9      180.000000        1.098417         4    ;  uncertainty k = 0.232050
        22         3         9        25     9        0.000000        0.001385         1    ;  uncertainty k = 0.129514
        22         3         9        25     9      180.000000        7.970132         2    ;  uncertainty k = 0.421308
        22         3         9        25     9        0.000000       -0.442113         3    ;  uncertainty k = 0.230001
        22         3         9        25     9      180.000000        0.054396         4    ;  uncertainty k = 0.177102
        23         6         7        24     9        0.000000       -0.486927         1    ;  uncertainty k = 0.274037
        23         6         7        24     9      180.000000        6.750554         2    ;  uncertainty k = 0.157763
        23         6         7        24     9        0.000000        0.049287         3    ;  uncertainty k = 0.230238
        23         6         7        24     9      180.000000        0.424459         4    ;  uncertainty k = 0.124639
        25         9        10        26     9        0.000000        0.001385         1    ;  uncertainty k = 0.129514
        25         9        10        26     9      180.000000        7.970132         2    ;  uncertainty k = 0.421308
        25         9        10        26     9        0.000000       -0.442113         3    ;  uncertainty k = 0.230001
        25         9        10        26     9      180.000000        0.054396         4    ;  uncertainty k = 0.177102

[ dihedrals ] ; impropers
;       ai        aj        ak        al funct           phase               k        pn
         1         2         5         8     4      180.000000       12.616542         2    ;  uncertainty k = 0.387975
         1         5         8         2     4      180.000000       12.616542         2    ;  uncertainty k = 0.387975
         1         8         2         5     4      180.000000       12.616542         2    ;  uncertainty k = 0.387975
         2         1         3        11     4      180.000000       14.343354         2    ;  uncertainty k = 0.092046
         2         3        11         1     4      180.000000       14.343354         2    ;  uncertainty k = 0.092046
         2        11         1         3     4      180.000000       14.343354         2    ;  uncertainty k = 0.092046
         3         2         9        22     4      180.000000        3.308569         2    ;  uncertainty k = 0.185728
         3         9        22         2     4      180.000000        3.308569         2    ;  uncertainty k = 0.185728
         3        22         2         9     4      180.000000        3.308569         2    ;  uncertainty k = 0.185728
         4         6        13        16     4      180.000000       20.381320         2    ;  uncertainty k = 0.160244
         4        13        16         6     4      180.000000       20.381320         2    ;  uncertainty k = 0.160244
         4        16         6        13     4      180.000000       20.381320         2    ;  uncertainty k = 0.160244
         5         1        12        13     4      180.000000       56.020619         2    ;  uncertainty k = 0.087383
         5        12        13         1     4      180.000000       56.020619         2    ;  uncertainty k = 0.087383
         5        13         1        12     4      180.000000       56.020619         2    ;  uncertainty k = 0.087383
         6         4         7        23     4      180.000000        0.460309         2    ;  uncertainty k = 0.636565
         6         7        23         4     4      180.000000        0.460309         2    ;  uncertainty k = 0.636565
         6        23         4         7     4      180.000000        0.460309         2    ;  uncertainty k = 0.636565
         7         6        14        24     4      180.000000       14.099144         2    ;  uncertainty k = 0.120134
         7        14        24         6     4      180.000000       14.099144         2    ;  uncertainty k = 0.120134
         7        24         6        14     4      180.000000       14.099144         2    ;  uncertainty k = 0.120134
         8         1        10        21     4      180.000000       14.343354         2    ;  uncertainty k = 0.092046
         8        10        21         1     4      180.000000       14.343354         2    ;  uncertainty k = 0.092046
         8        21         1        10     4      180.000000       14.343354         2    ;  uncertainty k = 0.092046
         9         3        10        25     4      180.000000        4.523845         2    ;  uncertainty k = 0.130961
         9        10        25         3     4      180.000000        4.523845         2    ;  uncertainty k = 0.130961
         9        25         3        10     4      180.000000        4.523845         2    ;  uncertainty k = 0.130961
        10         8         9        26     4      180.000000        3.308569         2    ;  uncertainty k = 0.185728
        10         9        26         8     4      180.000000        3.308569         2    ;  uncertainty k = 0.185728
        10        26         8         9     4      180.000000        3.308569         2    ;  uncertainty k = 0.185728
        13         4         5        27     4      180.000000        0.483818         2    ;  uncertainty k = 0.576474
        13         5        27         4     4      180.000000        0.483818         2    ;  uncertainty k = 0.576474
        13        27         4         5     4      180.000000        0.483818         2    ;  uncertainty k = 0.576474
        15        14        16        17     4      180.000000       28.628172         2    ;  uncertainty k = 0.164407
        15        16        17        14     4      180.000000       28.628172         2    ;  uncertainty k = 0.164407
        15        17        14        16     4      180.000000       28.628172         2    ;  uncertainty k = 0.164407
        16         4        15        28     4      180.000000        1.142499         2    ;  uncertainty k = 0.942958
        16        15        28         4     4      180.000000        1.142499         2    ;  uncertainty k = 0.942958
        16        28         4        15     4      180.000000        1.142499         2    ;  uncertainty k = 0.942958
        17        15        18        29     4      180.000000        0.078671         2    ;  uncertainty k = 0.175914
        17        18        29        15     4      180.000000        0.078671         2    ;  uncertainty k = 0.175914
        17        29        15        18     4      180.000000        0.078671         2    ;  uncertainty k = 0.175914
        18        17        19        20     4      180.000000       56.596991         2    ;  uncertainty k = 0.020054
        18        19        20        17     4      180.000000       56.596991         2    ;  uncertainty k = 0.020054
        18        20        17        19     4      180.000000       56.596991         2    ;  uncertainty k = 0.020054

[ pairs ]
;       ai        aj funct
         1         4     1
         1         9     1
         1        22     1
         1        26     1
         1        27     1
         2        10     1
         2        12     1
         2        13     1
         2        21     1
         2        25     1
         3         5     1
         3         8     1
         3        26     1
         4        12     1
         4        14     1
         4        17     1
         4        24     1
         5         6     1
         5        10     1
         5        11     1
         5        16     1
         5        21     1
         6        15     1
         6        27     1
         6        28     1
         7        13     1
         7        16     1
         7        17     1
         8        11     1
         8        12     1
         8        13     1
         8        25     1
         9        11     1
         9        21     1
        10        22     1
        11        22     1
        12        27     1
        13        15     1
        13        23     1
        13        28     1
        14        18     1
        14        23     1
        14        28     1
        14        29     1
        15        19     1
        15        20     1
        15        24     1
        16        18     1
        16        23     1
        16        27     1
        16        29     1
        17        28     1
        17        30     1
        17        31     1
        17        32     1
        19        29     1
        19        30     1
        19        31     1
        19        32     1
        20        29     1
        21        26     1
        22        25     1
        23        24     1
        25        26     1
