; ITP file created by ByteFF-joint-25, 2026-02-17 09:33:35.195432

[ atomtypes ]
;name           bonded.type        at.num        mass        charge   ptype           sigma         epsilon
 c0bf                                   6      0.0000       0.00000       A     3.31549e-01     4.13390e-01    ;  uncertainty sigma = 0.000035, epsilon = 0.000966
 c1bf                                   6      0.0000       0.00000       A     3.31564e-01     4.13135e-01    ;  uncertainty sigma = 0.000005, epsilon = 0.000387
 c2bf                                   6      0.0000       0.00000       A     3.31525e-01     4.13295e-01    ;  uncertainty sigma = 0.000005, epsilon = 0.000577
 c3bf                                   6      0.0000       0.00000       A     3.31520e-01     4.12649e-01    ;  uncertainty sigma = 0.000010, epsilon = 0.000842
 c4bf                                   6      0.0000       0.00000       A     3.31499e-01     4.12254e-01    ;  uncertainty sigma = 0.000028, epsilon = 0.000802
 c5bf                                   6      0.0000       0.00000       A     3.31522e-01     4.13552e-01    ;  uncertainty sigma = 0.000009, epsilon = 0.000904
 c6bf                                   6      0.0000       0.00000       A     3.31525e-01     4.13403e-01    ;  uncertainty sigma = 0.000005, epsilon = 0.000549
 c7bf                                   6      0.0000       0.00000       A     3.31564e-01     4.13135e-01    ;  uncertainty sigma = 0.000005, epsilon = 0.000387
 c8bf                                   6      0.0000       0.00000       A     3.31519e-01     4.13371e-01    ;  uncertainty sigma = 0.000005, epsilon = 0.000643
 c9bf                                   6      0.0000       0.00000       A     3.31525e-01     4.13295e-01    ;  uncertainty sigma = 0.000005, epsilon = 0.000577
 cl10bf                                17      0.0000       0.00000       A     3.46613e-01     1.10356e+00    ;  uncertainty sigma = 0.000025, epsilon = 0.001519
 o11bf                                  8      0.0000       0.00000       A     3.04792e-01     6.12550e-01    ;  uncertainty sigma = 0.000022, epsilon = 0.001345
 n12bf                                  7      0.0000       0.00000       A     3.27027e-01     4.91624e-01    ;  uncertainty sigma = 0.000027, epsilon = 0.002173
 n13bf                                  7      0.0000       0.00000       A     3.38409e-01     3.92287e-01    ;  uncertainty sigma = 0.000015, epsilon = 0.000817
 c14bf                                  6      0.0000       0.00000       A     3.31544e-01     4.12375e-01    ;  uncertainty sigma = 0.000016, epsilon = 0.000723
 c15bf                                  6      0.0000       0.00000       A     3.31529e-01     4.13241e-01    ;  uncertainty sigma = 0.000023, epsilon = 0.001242
 n16bf                                  7      0.0000       0.00000       A     3.27051e-01     4.90932e-01    ;  uncertainty sigma = 0.000035, epsilon = 0.000695
 c17bf                                  6      0.0000       0.00000       A     3.31512e-01     4.13179e-01    ;  uncertainty sigma = 0.000023, epsilon = 0.001727
 o18bf                                  8      0.0000       0.00000       A     3.04822e-01     6.12556e-01    ;  uncertainty sigma = 0.000019, epsilon = 0.001564
 c19bf                                  6      0.0000       0.00000       A     3.39800e-01     4.51426e-01    ;  uncertainty sigma = 0.000009, epsilon = 0.001105
 c20bf                                  6      0.0000       0.00000       A     3.39773e-01     4.50989e-01    ;  uncertainty sigma = 0.000009, epsilon = 0.000612
 c21bf                                  6      0.0000       0.00000       A     3.39773e-01     4.50989e-01    ;  uncertainty sigma = 0.000009, epsilon = 0.000612
 cl22bf                                17      0.0000       0.00000       A     3.46613e-01     1.10356e+00    ;  uncertainty sigma = 0.000025, epsilon = 0.001519
 h23bf                                  1      0.0000       0.00000       A     2.62565e-01     6.70619e-02    ;  uncertainty sigma = 0.000008, epsilon = 0.000556
 h24bf                                  1      0.0000       0.00000       A     2.62534e-01     6.69704e-02    ;  uncertainty sigma = 0.000020, epsilon = 0.000545
 h25bf                                  1      0.0000       0.00000       A     2.53656e-01     6.70482e-02    ;  uncertainty sigma = 0.000017, epsilon = 0.000573
 h26bf                                  1      0.0000       0.00000       A     2.62568e-01     6.69546e-02    ;  uncertainty sigma = 0.000006, epsilon = 0.000527
 h27bf                                  1      0.0000       0.00000       A     2.62565e-01     6.70619e-02    ;  uncertainty sigma = 0.000008, epsilon = 0.000556
 h28bf                                  1      0.0000       0.00000       A     1.10697e-01     4.15615e-02    ;  uncertainty sigma = 0.000094, epsilon = 0.000787
 h29bf                                  1      0.0000       0.00000       A     2.62531e-01     6.69228e-02    ;  uncertainty sigma = 0.000026, epsilon = 0.000688
 h30bf                                  1      0.0000       0.00000       A     1.10672e-01     4.12849e-02    ;  uncertainty sigma = 0.000118, epsilon = 0.001013
 h31bf                                  1      0.0000       0.00000       A     2.59996e-01     8.68594e-02    ;  uncertainty sigma = 0.000025, epsilon = 0.001654
 h32bf                                  1      0.0000       0.00000       A     2.60003e-01     8.67838e-02    ;  uncertainty sigma = 0.000014, epsilon = 0.000804
 h33bf                                  1      0.0000       0.00000       A     2.60003e-01     8.67838e-02    ;  uncertainty sigma = 0.000014, epsilon = 0.000804
 h34bf                                  1      0.0000       0.00000       A     2.60003e-01     8.67838e-02    ;  uncertainty sigma = 0.000014, epsilon = 0.000804
 h35bf                                  1      0.0000       0.00000       A     2.60003e-01     8.67838e-02    ;  uncertainty sigma = 0.000014, epsilon = 0.000804

[ moleculetype ]
;name             nrexcl
 MOL                   3

[ atoms ]
;       nr            type      resi   res      atom      cgnr      charge          mass ; qtot
         1            c0bf         1   UNL        c0         1    -0.13673       12.0110 ; qtot   -0.137
         2            c1bf         1   UNL        c1         2     0.06477       12.0110 ; qtot   -0.072
         3            c2bf         1   UNL        c2         3    -0.12372       12.0110 ; qtot   -0.196
         4            c3bf         1   UNL        c3         4     0.13608       12.0110 ; qtot   -0.060
         5            c4bf         1   UNL        c4         5     0.70160       12.0110 ; qtot    0.642
         6            c5bf         1   UNL        c5         6    -0.31812       12.0110 ; qtot    0.324
         7            c6bf         1   UNL        c6         7     0.45382       12.0110 ; qtot    0.778
         8            c7bf         1   UNL        c7         8     0.06477       12.0110 ; qtot    0.842
         9            c8bf         1   UNL        c8         9    -0.09581       12.0110 ; qtot    0.747
        10            c9bf         1   UNL        c9        10    -0.12372       12.0110 ; qtot    0.623
        11          cl10bf         1   UNL      cl10        11    -0.09667       35.4530 ; qtot    0.526
        12           o11bf         1   UNL       o11        12    -0.55036       15.9990 ; qtot   -0.024
        13           n12bf         1   UNL       n12        13    -0.46533       14.0070 ; qtot   -0.489
        14           n13bf         1   UNL       n13        14    -0.72363       14.0070 ; qtot   -1.213
        15           c14bf         1   UNL       c14        15     0.56173       12.0110 ; qtot   -0.651
        16           c15bf         1   UNL       c15        16    -0.30858       12.0110 ; qtot   -0.960
        17           n16bf         1   UNL       n16        17    -0.56451       14.0070 ; qtot   -1.524
        18           c17bf         1   UNL       c17        18     0.71299       12.0110 ; qtot   -0.811
        19           o18bf         1   UNL       o18        19    -0.56862       15.9990 ; qtot   -1.380
        20           c19bf         1   UNL       c19        20    -0.24856       12.0110 ; qtot   -1.629
        21           c20bf         1   UNL       c20        21    -0.09827       12.0110 ; qtot   -1.727
        22           c21bf         1   UNL       c21        22    -0.09827       12.0110 ; qtot   -1.825
        23          cl22bf         1   UNL      cl22        23    -0.09667       35.4530 ; qtot   -1.922
        24           h23bf         1   UNL       h23        24     0.15894        1.0080 ; qtot   -1.763
        25           h24bf         1   UNL       h24        25     0.16313        1.0080 ; qtot   -1.600
        26           h25bf         1   UNL       h25        26     0.01919        1.0080 ; qtot   -1.581
        27           h26bf         1   UNL       h26        27     0.14278        1.0080 ; qtot   -1.438
        28           h27bf         1   UNL       h27        28     0.15894        1.0080 ; qtot   -1.279
        29           h28bf         1   UNL       h28        29     0.33920        1.0080 ; qtot   -0.940
        30           h29bf         1   UNL       h29        30     0.18128        1.0080 ; qtot   -0.758
        31           h30bf         1   UNL       h30        31     0.33317        1.0080 ; qtot   -0.425
        32           h31bf         1   UNL       h31        32     0.09834        1.0080 ; qtot   -0.327
        33           h32bf         1   UNL       h32        33     0.08172        1.0080 ; qtot   -0.245
        34           h33bf         1   UNL       h33        34     0.08172        1.0080 ; qtot   -0.163
        35           h34bf         1   UNL       h34        35     0.08172        1.0080 ; qtot   -0.082
        36           h35bf         1   UNL       h35        36     0.08168        1.0080 ; qtot   -0.000

[ bonds ]
;       ai        aj funct               r               k
         1         2     1        0.139920   314205.988965    ;  uncertainty r = 0.000059, k = 10.355889
         1         5     1        0.151314   265032.676025    ;  uncertainty r = 0.000141, k = 25.452716
         1         8     1        0.139920   314205.988965    ;  uncertainty r = 0.000059, k = 10.355889
         2         3     1        0.139442   359146.551563    ;  uncertainty r = 0.000054, k = 3.481137
         2        11     1        0.175360   192488.234717    ;  uncertainty r = 0.000074, k = 4.279805
         3         9     1        0.139292   379946.297314    ;  uncertainty r = 0.000031, k = 1.315137
         3        24     1        0.108683   334938.061377    ;  uncertainty r = 0.000015, k = 0.960770
         4         6     1        0.140570   376090.806689    ;  uncertainty r = 0.000061, k = 6.523252
         4        13     1        0.140706   335244.481152    ;  uncertainty r = 0.000185, k = 14.115330
         4        16     1        0.139868   380531.684473    ;  uncertainty r = 0.000077, k = 4.207773
         5        12     1        0.122846   748673.427441    ;  uncertainty r = 0.000143, k = 20.391507
         5        13     1        0.137342   285190.010254    ;  uncertainty r = 0.000166, k = 14.492660
         6         7     1        0.139660   375491.680566    ;  uncertainty r = 0.000079, k = 13.453144
         6        25     1        0.108729   340462.427637    ;  uncertainty r = 0.000049, k = 2.577688
         7        14     1        0.133967   392329.420410    ;  uncertainty r = 0.000086, k = 10.357614
         7        26     1        0.108903   331910.688135    ;  uncertainty r = 0.000036, k = 1.905640
         8        10     1        0.139442   359146.551563    ;  uncertainty r = 0.000054, k = 3.481137
         8        23     1        0.175360   192488.234717    ;  uncertainty r = 0.000074, k = 4.279805
         9        10     1        0.139292   379946.297314    ;  uncertainty r = 0.000031, k = 1.315137
         9        27     1        0.108720   333853.628027    ;  uncertainty r = 0.000011, k = 1.678519
        10        28     1        0.108683   334938.061377    ;  uncertainty r = 0.000015, k = 0.960770
        13        29     1        0.101831   422627.387549    ;  uncertainty r = 0.000095, k = 5.435166
        14        15     1        0.134792   455256.075586    ;  uncertainty r = 0.000113, k = 13.883556
        15        16     1        0.140389   359382.795361    ;  uncertainty r = 0.000176, k = 22.266045
        15        17     1        0.141190   467287.271777    ;  uncertainty r = 0.000096, k = 7.322356
        16        30     1        0.108720   342724.453711    ;  uncertainty r = 0.000072, k = 4.692134
        17        18     1        0.138610   400112.416309    ;  uncertainty r = 0.000130, k = 21.454034
        17        31     1        0.101852   470200.289844    ;  uncertainty r = 0.000048, k = 3.883629
        18        19     1        0.123094   739875.535742    ;  uncertainty r = 0.000191, k = 10.148680
        18        20     1        0.149150   203313.670752    ;  uncertainty r = 0.000121, k = 15.022990
        20        21     1        0.152161   218277.676270    ;  uncertainty r = 0.000048, k = 9.033349
        20        22     1        0.152161   218277.676270    ;  uncertainty r = 0.000048, k = 9.033349
        20        32     1        0.108661   308079.125684    ;  uncertainty r = 0.000062, k = 7.991643
        21        22     1        0.149877   230860.831543    ;  uncertainty r = 0.000064, k = 9.751810
        21        33     1        0.108623   312190.115088    ;  uncertainty r = 0.000013, k = 2.317299
        21        34     1        0.108623   312190.115088    ;  uncertainty r = 0.000013, k = 2.317299
        22        35     1        0.108623   312190.115088    ;  uncertainty r = 0.000013, k = 2.317304
        22        36     1        0.108623   312190.115088    ;  uncertainty r = 0.000013, k = 2.317300

[ angles ]
;       ai        aj        ak funct           theta             cth
         1         2         3     1      124.614235      359.881075    ;  uncertainty theta = 0.007318, k = 0.141141
         1         2        11     1      117.122276      401.475760    ;  uncertainty theta = 0.004274, k = 0.169678
         1         5        12     1      122.451149      457.836639    ;  uncertainty theta = 0.012324, k = 0.396747
         1         5        13     1      112.777939      397.551185    ;  uncertainty theta = 0.004296, k = 0.197514
         1         8        10     1      124.614235      359.881075    ;  uncertainty theta = 0.007318, k = 0.141141
         1         8        23     1      117.122276      401.475760    ;  uncertainty theta = 0.004274, k = 0.169678
         2         1         5     1      120.701454      353.629431    ;  uncertainty theta = 0.013311, k = 0.275393
         2         1         8     1      120.699013      430.079652    ;  uncertainty theta = 0.009492, k = 0.209916
         2         3         9     1      118.495155      498.161267    ;  uncertainty theta = 0.004039, k = 0.062916
         2         3        24     1      120.521286      283.386643    ;  uncertainty theta = 0.002118, k = 0.065156
         3         2        11     1      119.919701      462.386458    ;  uncertainty theta = 0.001017, k = 0.162558
         3         9        10     1      119.368362      506.538875    ;  uncertainty theta = 0.002463, k = 0.055814
         3         9        27     1      119.878922      281.614496    ;  uncertainty theta = 0.001408, k = 0.030814
         4         6         7     1      115.739685      478.573602    ;  uncertainty theta = 0.004925, k = 0.048676
         4         6        25     1      120.342453      269.550669    ;  uncertainty theta = 0.001665, k = 0.097098
         4        13         5     1      117.316322      446.625912    ;  uncertainty theta = 0.002594, k = 0.143032
         4        13        29     1      113.569641      313.594043    ;  uncertainty theta = 0.004804, k = 0.335936
         4        16        15     1      114.614098      484.681663    ;  uncertainty theta = 0.009928, k = 0.171275
         4        16        30     1      120.968277      271.758353    ;  uncertainty theta = 0.003817, k = 0.171894
         5         1         8     1      120.701454      353.629431    ;  uncertainty theta = 0.013311, k = 0.275393
         5        13        29     1      116.863647      359.759902    ;  uncertainty theta = 0.004202, k = 0.178017
         6         4        13     1      120.717148      522.791043    ;  uncertainty theta = 0.004408, k = 0.164372
         6         4        16     1      117.422073      392.486984    ;  uncertainty theta = 0.006662, k = 0.181176
         6         7        14     1      123.556313      695.127395    ;  uncertainty theta = 0.003492, k = 0.076503
         6         7        26     1      120.074997      274.168737    ;  uncertainty theta = 0.001842, k = 0.112779
         7         6        25     1      122.550827      311.952454    ;  uncertainty theta = 0.002566, k = 0.162360
         7        14        15     1      113.210770      422.891658    ;  uncertainty theta = 0.009293, k = 0.228140
         8        10         9     1      118.495155      498.161267    ;  uncertainty theta = 0.004039, k = 0.062916
         8        10        28     1      120.521286      283.386643    ;  uncertainty theta = 0.002118, k = 0.065156
         9         3        24     1      121.431229      283.380802    ;  uncertainty theta = 0.000813, k = 0.055588
         9        10        28     1      121.431229      283.380802    ;  uncertainty theta = 0.000813, k = 0.055588
        10         8        23     1      119.919701      462.386458    ;  uncertainty theta = 0.001017, k = 0.162558
        10         9        27     1      119.878922      281.614496    ;  uncertainty theta = 0.001408, k = 0.030814
        12         5        13     1      122.021950      773.152841    ;  uncertainty theta = 0.004688, k = 0.191943
        13         4        16     1      120.298622      520.353845    ;  uncertainty theta = 0.005904, k = 0.134754
        14         7        26     1      115.959801      320.218721    ;  uncertainty theta = 0.002521, k = 0.118019
        14        15        16     1      122.962814      540.948757    ;  uncertainty theta = 0.009262, k = 0.252403
        14        15        17     1      120.087303      726.564790    ;  uncertainty theta = 0.003794, k = 0.143966
        15        16        30     1      121.654137      276.876564    ;  uncertainty theta = 0.005342, k = 0.128792
        15        17        18     1      121.185570      444.690007    ;  uncertainty theta = 0.002224, k = 0.189973
        15        17        31     1      116.648788      330.089037    ;  uncertainty theta = 0.001275, k = 0.201731
        16        15        17     1      121.448769      544.804286    ;  uncertainty theta = 0.006891, k = 0.249100
        17        18        19     1      123.058495      754.258827    ;  uncertainty theta = 0.002269, k = 0.064520
        17        18        20     1      113.504921      496.563378    ;  uncertainty theta = 0.002766, k = 0.373393
        18        17        31     1      116.989113      266.688470    ;  uncertainty theta = 0.005059, k = 0.339241
        18        20        21     1      109.823242      318.660670    ;  uncertainty theta = 0.012757, k = 0.224577
        18        20        22     1      109.823242      318.660670    ;  uncertainty theta = 0.012757, k = 0.224577
        18        20        32     1      116.080650      254.077926    ;  uncertainty theta = 0.009340, k = 0.233097
        19        18        20     1      124.770348      525.512277    ;  uncertainty theta = 0.003192, k = 0.095569
        20        21        22     1       57.785057      167.360000    ;  uncertainty theta = 0.002582, k = 0.000000
        20        21        33     1      109.047646      207.439583    ;  uncertainty theta = 0.002937, k = 0.177969
        20        21        34     1      109.047646      207.439583    ;  uncertainty theta = 0.002937, k = 0.177969
        20        22        21     1       57.785057      167.360000    ;  uncertainty theta = 0.002582, k = 0.000000
        20        22        35     1      109.047646      207.439583    ;  uncertainty theta = 0.002937, k = 0.177969
        20        22        36     1      109.047646      207.439583    ;  uncertainty theta = 0.002937, k = 0.177969
        21        20        22     1       67.078766      167.360000    ;  uncertainty theta = 0.049893, k = 0.000000
        21        20        32     1      108.748978      199.178217    ;  uncertainty theta = 0.006717, k = 0.535528
        21        22        35     1      110.022079      218.958543    ;  uncertainty theta = 0.002364, k = 0.087329
        21        22        36     1      110.022079      218.958543    ;  uncertainty theta = 0.002364, k = 0.087329
        22        20        32     1      108.748978      199.178217    ;  uncertainty theta = 0.006717, k = 0.535528
        22        21        33     1      110.022079      218.958543    ;  uncertainty theta = 0.002364, k = 0.087329
        22        21        34     1      110.022079      218.958543    ;  uncertainty theta = 0.002364, k = 0.087329
        33        21        34     1      114.594589      202.410114    ;  uncertainty theta = 0.005161, k = 0.047965
        35        22        36     1      114.594589      202.410114    ;  uncertainty theta = 0.005161, k = 0.047965

[ dihedrals ] ; propers for gromacs 4.5 or higher, use funct 9
;       ai        aj        ak        al funct           phase               k        pn
         1         2         3         9     9        0.000000        0.129562         1    ;  uncertainty k = 0.258537
         1         2         3         9     9      180.000000        9.006461         2    ;  uncertainty k = 0.178121
         1         2         3         9     9        0.000000        0.010291         3    ;  uncertainty k = 0.509158
         1         2         3         9     9      180.000000        1.179148         4    ;  uncertainty k = 0.340357
         1         2         3        24     9        0.000000        0.017749         1    ;  uncertainty k = 0.506174
         1         2         3        24     9      180.000000        5.847178         2    ;  uncertainty k = 0.808481
         1         2         3        24     9        0.000000        1.301869         3    ;  uncertainty k = 0.271599
         1         2         3        24     9      180.000000        1.572515         4    ;  uncertainty k = 0.163634
         1         5        13         4     9        0.000000        4.012883         1    ;  uncertainty k = 0.741994
         1         5        13         4     9      180.000000       10.050056         2    ;  uncertainty k = 0.176781
         1         5        13         4     9        0.000000        1.524529         3    ;  uncertainty k = 0.439697
         1         5        13         4     9      180.000000       -1.034114         4    ;  uncertainty k = 0.394406
         1         5        13        29     9        0.000000        0.286201         1    ;  uncertainty k = 0.970625
         1         5        13        29     9      180.000000        4.591571         2    ;  uncertainty k = 0.675511
         1         5        13        29     9        0.000000        1.269715         3    ;  uncertainty k = 0.289099
         1         5        13        29     9      180.000000        0.225446         4    ;  uncertainty k = 0.265035
         1         8        10         9     9        0.000000        0.129562         1    ;  uncertainty k = 0.258537
         1         8        10         9     9      180.000000        9.006461         2    ;  uncertainty k = 0.178121
         1         8        10         9     9        0.000000        0.010291         3    ;  uncertainty k = 0.509158
         1         8        10         9     9      180.000000        1.179148         4    ;  uncertainty k = 0.340357
         1         8        10        28     9        0.000000        0.017749         1    ;  uncertainty k = 0.506174
         1         8        10        28     9      180.000000        5.847178         2    ;  uncertainty k = 0.808481
         1         8        10        28     9        0.000000        1.301869         3    ;  uncertainty k = 0.271599
         1         8        10        28     9      180.000000        1.572515         4    ;  uncertainty k = 0.163634
         2         1         5        12     9        0.000000       -0.938458         1    ;  uncertainty k = 0.721948
         2         1         5        12     9      180.000000        3.726943         2    ;  uncertainty k = 0.367149
         2         1         5        12     9        0.000000        0.533107         3    ;  uncertainty k = 0.173933
         2         1         5        12     9      180.000000        0.129066         4    ;  uncertainty k = 0.152302
         2         1         5        13     9        0.000000        1.636802         1    ;  uncertainty k = 0.717500
         2         1         5        13     9      180.000000        0.794893         2    ;  uncertainty k = 0.489697
         2         1         5        13     9        0.000000        0.486371         3    ;  uncertainty k = 0.368442
         2         1         5        13     9      180.000000       -0.111126         4    ;  uncertainty k = 0.129000
         2         1         8        10     9        0.000000        0.157030         1    ;  uncertainty k = 0.251028
         2         1         8        10     9      180.000000        6.621005         2    ;  uncertainty k = 0.890169
         2         1         8        10     9        0.000000        0.446154         3    ;  uncertainty k = 0.192247
         2         1         8        10     9      180.000000        1.346016         4    ;  uncertainty k = 0.373704
         2         1         8        23     9        0.000000        0.044095         1    ;  uncertainty k = 0.788675
         2         1         8        23     9      180.000000        8.268702         2    ;  uncertainty k = 0.180496
         2         1         8        23     9        0.000000        1.453925         3    ;  uncertainty k = 0.378329
         2         1         8        23     9      180.000000        1.534665         4    ;  uncertainty k = 0.225736
         2         3         9        10     9        0.000000        0.056957         1    ;  uncertainty k = 0.125369
         2         3         9        10     9      180.000000       14.284910         2    ;  uncertainty k = 0.214373
         2         3         9        10     9        0.000000       -1.022656         3    ;  uncertainty k = 0.417280
         2         3         9        10     9      180.000000        0.771729         4    ;  uncertainty k = 0.212175
         2         3         9        27     9        0.000000        0.083384         1    ;  uncertainty k = 0.200417
         2         3         9        27     9      180.000000        7.197642         2    ;  uncertainty k = 0.253695
         2         3         9        27     9        0.000000        1.438769         3    ;  uncertainty k = 0.264288
         2         3         9        27     9      180.000000        1.864824         4    ;  uncertainty k = 0.166987
         3         2         1         5     9        0.000000        0.540121         1    ;  uncertainty k = 0.659361
         3         2         1         5     9      180.000000        6.952584         2    ;  uncertainty k = 0.900726
         3         2         1         5     9        0.000000        1.504339         3    ;  uncertainty k = 0.227715
         3         2         1         5     9      180.000000        1.691626         4    ;  uncertainty k = 0.279736
         3         2         1         8     9        0.000000        0.157030         1    ;  uncertainty k = 0.251028
         3         2         1         8     9      180.000000        6.621005         2    ;  uncertainty k = 0.890169
         3         2         1         8     9        0.000000        0.446154         3    ;  uncertainty k = 0.192247
         3         2         1         8     9      180.000000        1.346016         4    ;  uncertainty k = 0.373704
         3         9        10         8     9        0.000000        0.056957         1    ;  uncertainty k = 0.125369
         3         9        10         8     9      180.000000       14.284910         2    ;  uncertainty k = 0.214373
         3         9        10         8     9        0.000000       -1.022656         3    ;  uncertainty k = 0.417280
         3         9        10         8     9      180.000000        0.771729         4    ;  uncertainty k = 0.212175
         3         9        10        28     9        0.000000        0.071341         1    ;  uncertainty k = 0.156537
         3         9        10        28     9      180.000000        7.824333         2    ;  uncertainty k = 0.388735
         3         9        10        28     9        0.000000        1.476015         3    ;  uncertainty k = 0.262591
         3         9        10        28     9      180.000000        1.800034         4    ;  uncertainty k = 0.168947
         4         6         7        14     9        0.000000       -0.194012         1    ;  uncertainty k = 0.236068
         4         6         7        14     9      180.000000       15.640304         2    ;  uncertainty k = 0.436067
         4         6         7        14     9        0.000000       -1.141392         3    ;  uncertainty k = 0.306481
         4         6         7        14     9      180.000000        0.797444         4    ;  uncertainty k = 0.164753
         4         6         7        26     9        0.000000       -0.488021         1    ;  uncertainty k = 0.352061
         4         6         7        26     9      180.000000        6.981430         2    ;  uncertainty k = 0.581321
         4         6         7        26     9        0.000000        1.147582         3    ;  uncertainty k = 0.230024
         4         6         7        26     9      180.000000        1.407164         4    ;  uncertainty k = 0.046480
         4        13         5        12     9        0.000000        3.184547         1    ;  uncertainty k = 1.295174
         4        13         5        12     9      180.000000       13.546940         2    ;  uncertainty k = 0.231063
         4        13         5        12     9        0.000000        0.722658         3    ;  uncertainty k = 0.182961
         4        13         5        12     9      180.000000       -0.666531         4    ;  uncertainty k = 0.131850
         4        16        15        14     9        0.000000       -0.458036         1    ;  uncertainty k = 0.241096
         4        16        15        14     9      180.000000       10.215962         2    ;  uncertainty k = 0.439525
         4        16        15        14     9        0.000000       -0.448431         3    ;  uncertainty k = 0.681796
         4        16        15        14     9      180.000000        1.009102         4    ;  uncertainty k = 0.085735
         4        16        15        17     9        0.000000        0.024230         1    ;  uncertainty k = 0.591784
         4        16        15        17     9      180.000000        8.544517         2    ;  uncertainty k = 0.494320
         4        16        15        17     9        0.000000        0.912084         3    ;  uncertainty k = 0.383650
         4        16        15        17     9      180.000000        1.253209         4    ;  uncertainty k = 0.509321
         5         1         2        11     9        0.000000        0.293529         1    ;  uncertainty k = 1.201193
         5         1         2        11     9      180.000000        8.809351         2    ;  uncertainty k = 0.492509
         5         1         2        11     9        0.000000        1.507479         3    ;  uncertainty k = 0.181959
         5         1         2        11     9      180.000000        1.331521         4    ;  uncertainty k = 0.158721
         5         1         8        10     9        0.000000        0.540121         1    ;  uncertainty k = 0.659361
         5         1         8        10     9      180.000000        6.952584         2    ;  uncertainty k = 0.900726
         5         1         8        10     9        0.000000        1.504339         3    ;  uncertainty k = 0.227715
         5         1         8        10     9      180.000000        1.691626         4    ;  uncertainty k = 0.279736
         5         1         8        23     9        0.000000        0.293529         1    ;  uncertainty k = 1.201193
         5         1         8        23     9      180.000000        8.809351         2    ;  uncertainty k = 0.492509
         5         1         8        23     9        0.000000        1.507479         3    ;  uncertainty k = 0.181959
         5         1         8        23     9      180.000000        1.331521         4    ;  uncertainty k = 0.158721
         5        13         4         6     9        0.000000        0.671405         1    ;  uncertainty k = 0.779653
         5        13         4         6     9      180.000000        5.171684         2    ;  uncertainty k = 0.343054
         5        13         4         6     9        0.000000        0.900418         3    ;  uncertainty k = 0.162472
         5        13         4         6     9      180.000000        0.037683         4    ;  uncertainty k = 0.022188
         5        13         4        16     9        0.000000        0.710011         1    ;  uncertainty k = 0.553962
         5        13         4        16     9      180.000000        5.527495         2    ;  uncertainty k = 0.441174
         5        13         4        16     9        0.000000        0.874678         3    ;  uncertainty k = 0.141581
         5        13         4        16     9      180.000000        0.011833         4    ;  uncertainty k = 0.123220
         6         4        13        29     9        0.000000        1.029279         1    ;  uncertainty k = 1.463602
         6         4        13        29     9      180.000000        5.196719         2    ;  uncertainty k = 0.208685
         6         4        13        29     9        0.000000        0.851853         3    ;  uncertainty k = 0.351032
         6         4        13        29     9      180.000000        0.326889         4    ;  uncertainty k = 0.129780
         6         4        16        15     9        0.000000       -0.016517         1    ;  uncertainty k = 0.308810
         6         4        16        15     9      180.000000       10.280396         2    ;  uncertainty k = 0.423030
         6         4        16        15     9        0.000000       -0.318219         3    ;  uncertainty k = 0.123013
         6         4        16        15     9      180.000000        1.127590         4    ;  uncertainty k = 0.291086
         6         4        16        30     9        0.000000        0.494714         1    ;  uncertainty k = 0.515042
         6         4        16        30     9      180.000000        7.804734         2    ;  uncertainty k = 0.436285
         6         4        16        30     9        0.000000        1.410311         3    ;  uncertainty k = 0.264753
         6         4        16        30     9      180.000000        1.567837         4    ;  uncertainty k = 0.221080
         6         7        14        15     9        0.000000       -0.402721         1    ;  uncertainty k = 0.310800
         6         7        14        15     9      180.000000       14.573882         2    ;  uncertainty k = 0.391883
         6         7        14        15     9        0.000000        0.745102         3    ;  uncertainty k = 0.414438
         6         7        14        15     9      180.000000        1.328767         4    ;  uncertainty k = 0.252146
         7         6         4        13     9        0.000000       -0.156685         1    ;  uncertainty k = 0.327783
         7         6         4        13     9      180.000000       10.573743         2    ;  uncertainty k = 0.368407
         7         6         4        13     9        0.000000        0.699890         3    ;  uncertainty k = 0.295405
         7         6         4        13     9      180.000000        1.371703         4    ;  uncertainty k = 0.342554
         7         6         4        16     9        0.000000       -0.292976         1    ;  uncertainty k = 0.409138
         7         6         4        16     9      180.000000       10.394964         2    ;  uncertainty k = 0.255629
         7         6         4        16     9        0.000000       -0.501265         3    ;  uncertainty k = 0.482945
         7         6         4        16     9      180.000000        1.108345         4    ;  uncertainty k = 0.118936
         7        14        15        16     9        0.000000       -0.559636         1    ;  uncertainty k = 0.716312
         7        14        15        16     9      180.000000       11.730410         2    ;  uncertainty k = 0.824236
         7        14        15        16     9        0.000000        0.983790         3    ;  uncertainty k = 0.658535
         7        14        15        16     9      180.000000        1.356476         4    ;  uncertainty k = 0.302880
         7        14        15        17     9        0.000000       -0.313664         1    ;  uncertainty k = 1.267366
         7        14        15        17     9      180.000000       15.817847         2    ;  uncertainty k = 0.263287
         7        14        15        17     9        0.000000        2.044792         3    ;  uncertainty k = 0.301677
         7        14        15        17     9      180.000000        1.736184         4    ;  uncertainty k = 0.377322
         8         1         2        11     9        0.000000        0.044095         1    ;  uncertainty k = 0.788675
         8         1         2        11     9      180.000000        8.268702         2    ;  uncertainty k = 0.180496
         8         1         2        11     9        0.000000        1.453925         3    ;  uncertainty k = 0.378329
         8         1         2        11     9      180.000000        1.534665         4    ;  uncertainty k = 0.225736
         8         1         5        12     9        0.000000       -0.938458         1    ;  uncertainty k = 0.721948
         8         1         5        12     9      180.000000        3.726943         2    ;  uncertainty k = 0.367149
         8         1         5        12     9        0.000000        0.533107         3    ;  uncertainty k = 0.173933
         8         1         5        12     9      180.000000        0.129066         4    ;  uncertainty k = 0.152302
         8         1         5        13     9        0.000000        1.636802         1    ;  uncertainty k = 0.717500
         8         1         5        13     9      180.000000        0.794893         2    ;  uncertainty k = 0.489697
         8         1         5        13     9        0.000000        0.486371         3    ;  uncertainty k = 0.368442
         8         1         5        13     9      180.000000       -0.111126         4    ;  uncertainty k = 0.129000
         8        10         9        27     9        0.000000        0.083384         1    ;  uncertainty k = 0.200417
         8        10         9        27     9      180.000000        7.197642         2    ;  uncertainty k = 0.253695
         8        10         9        27     9        0.000000        1.438769         3    ;  uncertainty k = 0.264288
         8        10         9        27     9      180.000000        1.864824         4    ;  uncertainty k = 0.166987
         9         3         2        11     9        0.000000       -0.125974         1    ;  uncertainty k = 0.141879
         9         3         2        11     9      180.000000        9.826857         2    ;  uncertainty k = 0.423980
         9         3         2        11     9        0.000000        1.360528         3    ;  uncertainty k = 0.293318
         9         3         2        11     9      180.000000        1.645146         4    ;  uncertainty k = 0.120261
         9        10         8        23     9        0.000000       -0.125974         1    ;  uncertainty k = 0.141879
         9        10         8        23     9      180.000000        9.826857         2    ;  uncertainty k = 0.423980
         9        10         8        23     9        0.000000        1.360528         3    ;  uncertainty k = 0.293318
         9        10         8        23     9      180.000000        1.645146         4    ;  uncertainty k = 0.120261
        10         9         3        24     9        0.000000        0.071341         1    ;  uncertainty k = 0.156537
        10         9         3        24     9      180.000000        7.824333         2    ;  uncertainty k = 0.388735
        10         9         3        24     9        0.000000        1.476015         3    ;  uncertainty k = 0.262591
        10         9         3        24     9      180.000000        1.800034         4    ;  uncertainty k = 0.168947
        11         2         3        24     9        0.000000       -0.203688         1    ;  uncertainty k = 0.537167
        11         2         3        24     9      180.000000        7.741258         2    ;  uncertainty k = 0.413148
        11         2         3        24     9        0.000000        0.589378         3    ;  uncertainty k = 0.256365
        11         2         3        24     9      180.000000        1.098417         4    ;  uncertainty k = 0.232050
        12         5        13        29     9        0.000000        2.754751         1    ;  uncertainty k = 1.678083
        12         5        13        29     9      180.000000       15.343140         2    ;  uncertainty k = 0.287199
        12         5        13        29     9        0.000000        1.862099         3    ;  uncertainty k = 0.346350
        12         5        13        29     9      180.000000       -0.086397         4    ;  uncertainty k = 0.341591
        13         4         6        25     9        0.000000       -0.319544         1    ;  uncertainty k = 0.345314
        13         4         6        25     9      180.000000        8.037585         2    ;  uncertainty k = 0.455395
        13         4         6        25     9        0.000000        0.835277         3    ;  uncertainty k = 0.138723
        13         4         6        25     9      180.000000        1.127271         4    ;  uncertainty k = 0.123904
        13         4        16        15     9        0.000000       -0.050030         1    ;  uncertainty k = 0.551554
        13         4        16        15     9      180.000000       11.995669         2    ;  uncertainty k = 0.830937
        13         4        16        15     9        0.000000        0.814267         3    ;  uncertainty k = 0.282002
        13         4        16        15     9      180.000000        1.291270         4    ;  uncertainty k = 0.695019
        13         4        16        30     9        0.000000       -0.271589         1    ;  uncertainty k = 0.438013
        13         4        16        30     9      180.000000        8.880931         2    ;  uncertainty k = 0.430502
        13         4        16        30     9        0.000000        0.891260         3    ;  uncertainty k = 0.165823
        13         4        16        30     9      180.000000        1.196742         4    ;  uncertainty k = 0.179507
        14         7         6        25     9        0.000000        0.117617         1    ;  uncertainty k = 0.167020
        14         7         6        25     9      180.000000       10.139897         2    ;  uncertainty k = 0.400004
        14         7         6        25     9        0.000000        1.029165         3    ;  uncertainty k = 0.341480
        14         7         6        25     9      180.000000        1.734568         4    ;  uncertainty k = 0.165972
        14        15        16        30     9        0.000000        0.577592         1    ;  uncertainty k = 0.657933
        14        15        16        30     9      180.000000        7.831230         2    ;  uncertainty k = 0.812973
        14        15        16        30     9        0.000000        1.203681         3    ;  uncertainty k = 0.268713
        14        15        16        30     9      180.000000        1.422553         4    ;  uncertainty k = 0.215245
        14        15        17        18     9        0.000000        1.902664         1    ;  uncertainty k = 1.205182
        14        15        17        18     9      180.000000        5.863998         2    ;  uncertainty k = 0.273717
        14        15        17        18     9        0.000000        1.009873         3    ;  uncertainty k = 0.146291
        14        15        17        18     9      180.000000       -0.132478         4    ;  uncertainty k = 0.151258
        14        15        17        31     9        0.000000        6.046337         1    ;  uncertainty k = 0.729982
        14        15        17        31     9      180.000000        5.042630         2    ;  uncertainty k = 0.679340
        14        15        17        31     9        0.000000        0.144272         3    ;  uncertainty k = 0.295624
        14        15        17        31     9      180.000000        0.063136         4    ;  uncertainty k = 0.263994
        15        14         7        26     9        0.000000       -0.307592         1    ;  uncertainty k = 0.329620
        15        14         7        26     9      180.000000       15.085603         2    ;  uncertainty k = 0.479484
        15        14         7        26     9        0.000000        2.030304         3    ;  uncertainty k = 0.725318
        15        14         7        26     9      180.000000        1.311259         4    ;  uncertainty k = 0.430444
        15        17        18        19     9        0.000000        4.459848         1    ;  uncertainty k = 0.528746
        15        17        18        19     9      180.000000       15.606778         2    ;  uncertainty k = 0.233907
        15        17        18        19     9        0.000000        0.398587         3    ;  uncertainty k = 0.201195
        15        17        18        19     9      180.000000       -1.151389         4    ;  uncertainty k = 0.121512
        15        17        18        20     9        0.000000        4.840612         1    ;  uncertainty k = 0.463814
        15        17        18        20     9      180.000000        8.145673         2    ;  uncertainty k = 0.388004
        15        17        18        20     9        0.000000        1.144531         3    ;  uncertainty k = 0.271801
        15        17        18        20     9      180.000000       -0.306979         4    ;  uncertainty k = 0.217846
        16         4         6        25     9        0.000000        0.268930         1    ;  uncertainty k = 0.334636
        16         4         6        25     9      180.000000        7.234686         2    ;  uncertainty k = 0.622663
        16         4         6        25     9        0.000000        1.352577         3    ;  uncertainty k = 0.285398
        16         4         6        25     9      180.000000        1.470596         4    ;  uncertainty k = 0.130940
        16         4        13        29     9        0.000000        2.052060         1    ;  uncertainty k = 1.381232
        16         4        13        29     9      180.000000        5.503753         2    ;  uncertainty k = 0.424054
        16         4        13        29     9        0.000000        0.773631         3    ;  uncertainty k = 0.384703
        16         4        13        29     9      180.000000        0.261878         4    ;  uncertainty k = 0.123218
        16        15        17        18     9        0.000000        0.025686         1    ;  uncertainty k = 1.162826
        16        15        17        18     9      180.000000        4.893700         2    ;  uncertainty k = 0.099040
        16        15        17        18     9        0.000000        0.549568         3    ;  uncertainty k = 0.115077
        16        15        17        18     9      180.000000       -0.132970         4    ;  uncertainty k = 0.108445
        16        15        17        31     9        0.000000        0.770579         1    ;  uncertainty k = 1.074865
        16        15        17        31     9      180.000000        4.743954         2    ;  uncertainty k = 0.368525
        16        15        17        31     9        0.000000        1.179450         3    ;  uncertainty k = 0.309641
        16        15        17        31     9      180.000000        0.124877         4    ;  uncertainty k = 0.148279
        17        15        16        30     9        0.000000       -0.376144         1    ;  uncertainty k = 0.478946
        17        15        16        30     9      180.000000        6.503576         2    ;  uncertainty k = 0.307722
        17        15        16        30     9        0.000000        0.791469         3    ;  uncertainty k = 0.194703
        17        15        16        30     9      180.000000        0.952950         4    ;  uncertainty k = 0.186554
        17        18        20        21     9        0.000000        0.108545         1    ;  uncertainty k = 0.380808
        17        18        20        21     9      180.000000        2.085731         2    ;  uncertainty k = 0.549902
        17        18        20        21     9        0.000000        0.361167         3    ;  uncertainty k = 0.311611
        17        18        20        21     9      180.000000        0.195043         4    ;  uncertainty k = 0.078266
        17        18        20        22     9        0.000000        0.108545         1    ;  uncertainty k = 0.380808
        17        18        20        22     9      180.000000        2.085731         2    ;  uncertainty k = 0.549902
        17        18        20        22     9        0.000000        0.361167         3    ;  uncertainty k = 0.311611
        17        18        20        22     9      180.000000        0.195043         4    ;  uncertainty k = 0.078266
        17        18        20        32     9        0.000000       -0.371387         1    ;  uncertainty k = 0.900605
        17        18        20        32     9      180.000000        2.142196         2    ;  uncertainty k = 0.205770
        17        18        20        32     9        0.000000        0.410876         3    ;  uncertainty k = 0.409471
        17        18        20        32     9      180.000000        0.114287         4    ;  uncertainty k = 0.127374
        18        20        21        22     9        0.000000       53.850601         1    ;  uncertainty k = 0.471385
        18        20        21        22     9      180.000000        2.309719         2    ;  uncertainty k = 3.840100
        18        20        21        22     9        0.000000       -8.119155         3    ;  uncertainty k = 0.867605
        18        20        21        22     9      180.000000        5.137636         4    ;  uncertainty k = 0.383038
        18        20        21        33     9        0.000000       -2.490096         1    ;  uncertainty k = 2.166532
        18        20        21        33     9      180.000000       -2.355405         2    ;  uncertainty k = 1.671866
        18        20        21        33     9        0.000000        0.439763         3    ;  uncertainty k = 0.572579
        18        20        21        33     9      180.000000       -0.842815         4    ;  uncertainty k = 0.078350
        18        20        21        34     9        0.000000       -2.490096         1    ;  uncertainty k = 2.166532
        18        20        21        34     9      180.000000       -2.355405         2    ;  uncertainty k = 1.671866
        18        20        21        34     9        0.000000        0.439763         3    ;  uncertainty k = 0.572579
        18        20        21        34     9      180.000000       -0.842815         4    ;  uncertainty k = 0.078350
        18        20        22        21     9        0.000000       53.850601         1    ;  uncertainty k = 0.471385
        18        20        22        21     9      180.000000        2.309719         2    ;  uncertainty k = 3.840100
        18        20        22        21     9        0.000000       -8.119155         3    ;  uncertainty k = 0.867605
        18        20        22        21     9      180.000000        5.137636         4    ;  uncertainty k = 0.383038
        18        20        22        35     9        0.000000       -2.490096         1    ;  uncertainty k = 2.166532
        18        20        22        35     9      180.000000       -2.355405         2    ;  uncertainty k = 1.671866
        18        20        22        35     9        0.000000        0.439763         3    ;  uncertainty k = 0.572579
        18        20        22        35     9      180.000000       -0.842815         4    ;  uncertainty k = 0.078350
        18        20        22        36     9        0.000000       -2.490096         1    ;  uncertainty k = 2.166532
        18        20        22        36     9      180.000000       -2.355405         2    ;  uncertainty k = 1.671866
        18        20        22        36     9        0.000000        0.439763         3    ;  uncertainty k = 0.572579
        18        20        22        36     9      180.000000       -0.842815         4    ;  uncertainty k = 0.078350
        19        18        17        31     9        0.000000        3.042960         1    ;  uncertainty k = 0.719889
        19        18        17        31     9      180.000000       14.019292         2    ;  uncertainty k = 0.311130
        19        18        17        31     9        0.000000        0.755621         3    ;  uncertainty k = 0.299465
        19        18        17        31     9      180.000000       -0.303632         4    ;  uncertainty k = 0.181164
        19        18        20        21     9        0.000000        0.009983         1    ;  uncertainty k = 0.353649
        19        18        20        21     9      180.000000        2.729354         2    ;  uncertainty k = 0.581446
        19        18        20        21     9        0.000000        0.651130         3    ;  uncertainty k = 0.117253
        19        18        20        21     9      180.000000        0.316656         4    ;  uncertainty k = 0.037269
        19        18        20        22     9        0.000000        0.009983         1    ;  uncertainty k = 0.353649
        19        18        20        22     9      180.000000        2.729354         2    ;  uncertainty k = 0.581446
        19        18        20        22     9        0.000000        0.651130         3    ;  uncertainty k = 0.117253
        19        18        20        22     9      180.000000        0.316656         4    ;  uncertainty k = 0.037269
        19        18        20        32     9        0.000000        0.604203         1    ;  uncertainty k = 0.578177
        19        18        20        32     9      180.000000        3.159800         2    ;  uncertainty k = 0.705149
        19        18        20        32     9        0.000000        1.523510         3    ;  uncertainty k = 0.411400
        19        18        20        32     9      180.000000        0.426414         4    ;  uncertainty k = 0.135179
        20        18        17        31     9        0.000000        0.630840         1    ;  uncertainty k = 1.032951
        20        18        17        31     9      180.000000        5.168610         2    ;  uncertainty k = 0.596500
        20        18        17        31     9        0.000000        1.914658         3    ;  uncertainty k = 0.486346
        20        18        17        31     9      180.000000        0.134066         4    ;  uncertainty k = 0.219140
        20        21        22        35     9        0.000000       41.502136         1    ;  uncertainty k = 0.503188
        20        21        22        35     9      180.000000       -5.863649         2    ;  uncertainty k = 1.531760
        20        21        22        35     9        0.000000       -9.850918         3    ;  uncertainty k = 0.755831
        20        21        22        35     9      180.000000        4.403757         4    ;  uncertainty k = 0.359410
        20        21        22        36     9        0.000000       41.502136         1    ;  uncertainty k = 0.503188
        20        21        22        36     9      180.000000       -5.863649         2    ;  uncertainty k = 1.531760
        20        21        22        36     9        0.000000       -9.850918         3    ;  uncertainty k = 0.755831
        20        21        22        36     9      180.000000        4.403757         4    ;  uncertainty k = 0.359410
        20        22        21        33     9        0.000000       41.502136         1    ;  uncertainty k = 0.503188
        20        22        21        33     9      180.000000       -5.863649         2    ;  uncertainty k = 1.531760
        20        22        21        33     9        0.000000       -9.850918         3    ;  uncertainty k = 0.755831
        20        22        21        33     9      180.000000        4.403757         4    ;  uncertainty k = 0.359410
        20        22        21        34     9        0.000000       41.502136         1    ;  uncertainty k = 0.503188
        20        22        21        34     9      180.000000       -5.863649         2    ;  uncertainty k = 1.531760
        20        22        21        34     9        0.000000       -9.850918         3    ;  uncertainty k = 0.755831
        20        22        21        34     9      180.000000        4.403757         4    ;  uncertainty k = 0.359410
        21        20        22        35     9        0.000000       42.994166         1    ;  uncertainty k = 0.357625
        21        20        22        35     9      180.000000       -4.780284         2    ;  uncertainty k = 1.042696
        21        20        22        35     9        0.000000      -10.197428         3    ;  uncertainty k = 0.691694
        21        20        22        35     9      180.000000        4.791526         4    ;  uncertainty k = 0.538193
        21        20        22        36     9        0.000000       42.994166         1    ;  uncertainty k = 0.357625
        21        20        22        36     9      180.000000       -4.780284         2    ;  uncertainty k = 1.042696
        21        20        22        36     9        0.000000      -10.197428         3    ;  uncertainty k = 0.691694
        21        20        22        36     9      180.000000        4.791526         4    ;  uncertainty k = 0.538193
        21        22        20        32     9        0.000000       49.469718         1    ;  uncertainty k = 0.403466
        21        22        20        32     9      180.000000       -1.297321         2    ;  uncertainty k = 2.517053
        21        22        20        32     9        0.000000      -10.731772         3    ;  uncertainty k = 0.407688
        21        22        20        32     9      180.000000        5.943591         4    ;  uncertainty k = 0.162440
        22        20        21        33     9        0.000000       42.994166         1    ;  uncertainty k = 0.357625
        22        20        21        33     9      180.000000       -4.780284         2    ;  uncertainty k = 1.042696
        22        20        21        33     9        0.000000      -10.197428         3    ;  uncertainty k = 0.691694
        22        20        21        33     9      180.000000        4.791526         4    ;  uncertainty k = 0.538193
        22        20        21        34     9        0.000000       42.994166         1    ;  uncertainty k = 0.357625
        22        20        21        34     9      180.000000       -4.780284         2    ;  uncertainty k = 1.042696
        22        20        21        34     9        0.000000      -10.197428         3    ;  uncertainty k = 0.691694
        22        20        21        34     9      180.000000        4.791526         4    ;  uncertainty k = 0.538193
        22        21        20        32     9        0.000000       49.469718         1    ;  uncertainty k = 0.403466
        22        21        20        32     9      180.000000       -1.297321         2    ;  uncertainty k = 2.517053
        22        21        20        32     9        0.000000      -10.731772         3    ;  uncertainty k = 0.407688
        22        21        20        32     9      180.000000        5.943591         4    ;  uncertainty k = 0.162440
        23         8        10        28     9        0.000000       -0.203688         1    ;  uncertainty k = 0.537167
        23         8        10        28     9      180.000000        7.741258         2    ;  uncertainty k = 0.413148
        23         8        10        28     9        0.000000        0.589378         3    ;  uncertainty k = 0.256365
        23         8        10        28     9      180.000000        1.098417         4    ;  uncertainty k = 0.232050
        24         3         9        27     9        0.000000        0.001385         1    ;  uncertainty k = 0.129514
        24         3         9        27     9      180.000000        7.970131         2    ;  uncertainty k = 0.421308
        24         3         9        27     9        0.000000       -0.442113         3    ;  uncertainty k = 0.230001
        24         3         9        27     9      180.000000        0.054396         4    ;  uncertainty k = 0.177102
        25         6         7        26     9        0.000000       -0.486927         1    ;  uncertainty k = 0.274037
        25         6         7        26     9      180.000000        6.750554         2    ;  uncertainty k = 0.157763
        25         6         7        26     9        0.000000        0.049287         3    ;  uncertainty k = 0.230238
        25         6         7        26     9      180.000000        0.424459         4    ;  uncertainty k = 0.124639
        27         9        10        28     9        0.000000        0.001385         1    ;  uncertainty k = 0.129514
        27         9        10        28     9      180.000000        7.970131         2    ;  uncertainty k = 0.421308
        27         9        10        28     9        0.000000       -0.442113         3    ;  uncertainty k = 0.230001
        27         9        10        28     9      180.000000        0.054396         4    ;  uncertainty k = 0.177102
        32        20        21        33     9        0.000000       -0.196176         1    ;  uncertainty k = 0.544456
        32        20        21        33     9      180.000000       -1.123321         2    ;  uncertainty k = 1.207155
        32        20        21        33     9        0.000000        0.767278         3    ;  uncertainty k = 0.354507
        32        20        21        33     9      180.000000       -0.912739         4    ;  uncertainty k = 0.141206
        32        20        21        34     9        0.000000       -0.196176         1    ;  uncertainty k = 0.544456
        32        20        21        34     9      180.000000       -1.123321         2    ;  uncertainty k = 1.207155
        32        20        21        34     9        0.000000        0.767278         3    ;  uncertainty k = 0.354507
        32        20        21        34     9      180.000000       -0.912739         4    ;  uncertainty k = 0.141206
        32        20        22        35     9        0.000000       -0.196176         1    ;  uncertainty k = 0.544456
        32        20        22        35     9      180.000000       -1.123321         2    ;  uncertainty k = 1.207155
        32        20        22        35     9        0.000000        0.767278         3    ;  uncertainty k = 0.354507
        32        20        22        35     9      180.000000       -0.912739         4    ;  uncertainty k = 0.141206
        32        20        22        36     9        0.000000       -0.196176         1    ;  uncertainty k = 0.544456
        32        20        22        36     9      180.000000       -1.123321         2    ;  uncertainty k = 1.207155
        32        20        22        36     9        0.000000        0.767278         3    ;  uncertainty k = 0.354507
        32        20        22        36     9      180.000000       -0.912739         4    ;  uncertainty k = 0.141206
        33        21        22        35     9        0.000000       -0.313986         1    ;  uncertainty k = 0.403856
        33        21        22        35     9      180.000000       -0.563975         2    ;  uncertainty k = 1.022209
        33        21        22        35     9        0.000000        1.011047         3    ;  uncertainty k = 0.356124
        33        21        22        35     9      180.000000       -0.796970         4    ;  uncertainty k = 0.177373
        33        21        22        36     9        0.000000       -0.313986         1    ;  uncertainty k = 0.403856
        33        21        22        36     9      180.000000       -0.563975         2    ;  uncertainty k = 1.022209
        33        21        22        36     9        0.000000        1.011047         3    ;  uncertainty k = 0.356124
        33        21        22        36     9      180.000000       -0.796970         4    ;  uncertainty k = 0.177373
        34        21        22        35     9        0.000000       -0.313986         1    ;  uncertainty k = 0.403856
        34        21        22        35     9      180.000000       -0.563975         2    ;  uncertainty k = 1.022209
        34        21        22        35     9        0.000000        1.011047         3    ;  uncertainty k = 0.356124
        34        21        22        35     9      180.000000       -0.796970         4    ;  uncertainty k = 0.177373
        34        21        22        36     9        0.000000       -0.313986         1    ;  uncertainty k = 0.403856
        34        21        22        36     9      180.000000       -0.563975         2    ;  uncertainty k = 1.022209
        34        21        22        36     9        0.000000        1.011047         3    ;  uncertainty k = 0.356124
        34        21        22        36     9      180.000000       -0.796970         4    ;  uncertainty k = 0.177373

[ dihedrals ] ; impropers
;       ai        aj        ak        al funct           phase               k        pn
         1         2         5         8     4      180.000000       12.616542         2    ;  uncertainty k = 0.387975
         1         5         8         2     4      180.000000       12.616542         2    ;  uncertainty k = 0.387975
         1         8         2         5     4      180.000000       12.616542         2    ;  uncertainty k = 0.387975
         2         1         3        11     4      180.000000       14.343354         2    ;  uncertainty k = 0.092046
         2         3        11         1     4      180.000000       14.343354         2    ;  uncertainty k = 0.092046
         2        11         1         3     4      180.000000       14.343354         2    ;  uncertainty k = 0.092046
         3         2         9        24     4      180.000000        3.308569         2    ;  uncertainty k = 0.185728
         3         9        24         2     4      180.000000        3.308569         2    ;  uncertainty k = 0.185728
         3        24         2         9     4      180.000000        3.308569         2    ;  uncertainty k = 0.185728
         4         6        13        16     4      180.000000       20.346309         2    ;  uncertainty k = 0.158855
         4        13        16         6     4      180.000000       20.346309         2    ;  uncertainty k = 0.158855
         4        16         6        13     4      180.000000       20.346309         2    ;  uncertainty k = 0.158855
         5         1        12        13     4      180.000000       56.020619         2    ;  uncertainty k = 0.087383
         5        12        13         1     4      180.000000       56.020619         2    ;  uncertainty k = 0.087383
         5        13         1        12     4      180.000000       56.020619         2    ;  uncertainty k = 0.087383
         6         4         7        25     4      180.000000        0.460309         2    ;  uncertainty k = 0.636565
         6         7        25         4     4      180.000000        0.460309         2    ;  uncertainty k = 0.636565
         6        25         4         7     4      180.000000        0.460309         2    ;  uncertainty k = 0.636565
         7         6        14        26     4      180.000000       14.075476         2    ;  uncertainty k = 0.122155
         7        14        26         6     4      180.000000       14.075476         2    ;  uncertainty k = 0.122155
         7        26         6        14     4      180.000000       14.075476         2    ;  uncertainty k = 0.122155
         8         1        10        23     4      180.000000       14.343354         2    ;  uncertainty k = 0.092046
         8        10        23         1     4      180.000000       14.343354         2    ;  uncertainty k = 0.092046
         8        23         1        10     4      180.000000       14.343354         2    ;  uncertainty k = 0.092046
         9         3        10        27     4      180.000000        4.523845         2    ;  uncertainty k = 0.130961
         9        10        27         3     4      180.000000        4.523845         2    ;  uncertainty k = 0.130961
         9        27         3        10     4      180.000000        4.523845         2    ;  uncertainty k = 0.130961
        10         8         9        28     4      180.000000        3.308569         2    ;  uncertainty k = 0.185728
        10         9        28         8     4      180.000000        3.308569         2    ;  uncertainty k = 0.185728
        10        28         8         9     4      180.000000        3.308569         2    ;  uncertainty k = 0.185728
        13         4         5        29     4      180.000000        0.483818         2    ;  uncertainty k = 0.576474
        13         5        29         4     4      180.000000        0.483818         2    ;  uncertainty k = 0.576474
        13        29         4         5     4      180.000000        0.483818         2    ;  uncertainty k = 0.576474
        15        14        16        17     4      180.000000       28.251951         2    ;  uncertainty k = 0.157057
        15        16        17        14     4      180.000000       28.251951         2    ;  uncertainty k = 0.157057
        15        17        14        16     4      180.000000       28.251951         2    ;  uncertainty k = 0.157057
        16         4        15        30     4      180.000000        1.169421         2    ;  uncertainty k = 0.953369
        16        15        30         4     4      180.000000        1.169421         2    ;  uncertainty k = 0.953369
        16        30         4        15     4      180.000000        1.169421         2    ;  uncertainty k = 0.953369
        17        15        18        31     4      180.000000        0.078463         2    ;  uncertainty k = 0.175447
        17        18        31        15     4      180.000000        0.078463         2    ;  uncertainty k = 0.175447
        17        31        15        18     4      180.000000        0.078463         2    ;  uncertainty k = 0.175447
        18        17        19        20     4      180.000000       55.404206         2    ;  uncertainty k = 0.015552
        18        19        20        17     4      180.000000       55.404206         2    ;  uncertainty k = 0.015552
        18        20        17        19     4      180.000000       55.404206         2    ;  uncertainty k = 0.015552

[ pairs ]
;       ai        aj funct
         1         4     1
         1         9     1
         1        24     1
         1        28     1
         1        29     1
         2        10     1
         2        12     1
         2        13     1
         2        23     1
         2        27     1
         3         5     1
         3         8     1
         3        28     1
         4        12     1
         4        14     1
         4        17     1
         4        26     1
         5         6     1
         5        10     1
         5        11     1
         5        16     1
         5        23     1
         6        15     1
         6        29     1
         6        30     1
         7        13     1
         7        16     1
         7        17     1
         8        11     1
         8        12     1
         8        13     1
         8        27     1
         9        11     1
         9        23     1
        10        24     1
        11        24     1
        12        29     1
        13        15     1
        13        25     1
        13        30     1
        14        18     1
        14        25     1
        14        30     1
        14        31     1
        15        19     1
        15        20     1
        15        26     1
        16        18     1
        16        25     1
        16        29     1
        16        31     1
        17        21     1
        17        22     1
        17        30     1
        17        32     1
        18        33     1
        18        34     1
        18        35     1
        18        36     1
        19        21     1
        19        22     1
        19        31     1
        19        32     1
        20        31     1
        23        28     1
        24        27     1
        25        26     1
        27        28     1
        32        33     1
        32        34     1
        32        35     1
        32        36     1
        33        35     1
        33        36     1
        34        35     1
        34        36     1
