; ITP file created by ByteFF-joint-25, 2026-02-17 09:32:31.102953

[ atomtypes ]
;name           bonded.type        at.num        mass        charge   ptype           sigma         epsilon
 c0bf                                   6      0.0000       0.00000       A     3.31549e-01     4.13390e-01    ;  uncertainty sigma = 0.000035, epsilon = 0.000966
 c1bf                                   6      0.0000       0.00000       A     3.31564e-01     4.13135e-01    ;  uncertainty sigma = 0.000005, epsilon = 0.000387
 c2bf                                   6      0.0000       0.00000       A     3.31525e-01     4.13295e-01    ;  uncertainty sigma = 0.000005, epsilon = 0.000577
 c3bf                                   6      0.0000       0.00000       A     3.31520e-01     4.12649e-01    ;  uncertainty sigma = 0.000010, epsilon = 0.000842
 c4bf                                   6      0.0000       0.00000       A     3.31499e-01     4.12254e-01    ;  uncertainty sigma = 0.000028, epsilon = 0.000802
 c5bf                                   6      0.0000       0.00000       A     3.31522e-01     4.13552e-01    ;  uncertainty sigma = 0.000009, epsilon = 0.000904
 c6bf                                   6      0.0000       0.00000       A     3.31525e-01     4.13403e-01    ;  uncertainty sigma = 0.000005, epsilon = 0.000549
 c7bf                                   6      0.0000       0.00000       A     3.31564e-01     4.13135e-01    ;  uncertainty sigma = 0.000005, epsilon = 0.000387
 c8bf                                   6      0.0000       0.00000       A     3.31519e-01     4.13371e-01    ;  uncertainty sigma = 0.000005, epsilon = 0.000643
 c9bf                                   6      0.0000       0.00000       A     3.31525e-01     4.13295e-01    ;  uncertainty sigma = 0.000005, epsilon = 0.000577
 cl10bf                                17      0.0000       0.00000       A     3.46613e-01     1.10356e+00    ;  uncertainty sigma = 0.000025, epsilon = 0.001519
 o11bf                                  8      0.0000       0.00000       A     3.04792e-01     6.12550e-01    ;  uncertainty sigma = 0.000022, epsilon = 0.001345
 n12bf                                  7      0.0000       0.00000       A     3.27027e-01     4.91624e-01    ;  uncertainty sigma = 0.000027, epsilon = 0.002173
 n13bf                                  7      0.0000       0.00000       A     3.38414e-01     3.92353e-01    ;  uncertainty sigma = 0.000014, epsilon = 0.000887
 c14bf                                  6      0.0000       0.00000       A     3.31541e-01     4.12250e-01    ;  uncertainty sigma = 0.000017, epsilon = 0.000513
 c15bf                                  6      0.0000       0.00000       A     3.31527e-01     4.13270e-01    ;  uncertainty sigma = 0.000022, epsilon = 0.001274
 n16bf                                  7      0.0000       0.00000       A     3.27001e-01     4.90251e-01    ;  uncertainty sigma = 0.000039, epsilon = 0.001142
 c17bf                                  6      0.0000       0.00000       A     3.31534e-01     4.13501e-01    ;  uncertainty sigma = 0.000020, epsilon = 0.001723
 o18bf                                  8      0.0000       0.00000       A     3.04831e-01     6.12507e-01    ;  uncertainty sigma = 0.000016, epsilon = 0.001494
 c19bf                                  6      0.0000       0.00000       A     3.39768e-01     4.49798e-01    ;  uncertainty sigma = 0.000008, epsilon = 0.001454
 cl20bf                                17      0.0000       0.00000       A     3.46613e-01     1.10356e+00    ;  uncertainty sigma = 0.000025, epsilon = 0.001519
 h21bf                                  1      0.0000       0.00000       A     2.62565e-01     6.70619e-02    ;  uncertainty sigma = 0.000008, epsilon = 0.000556
 h22bf                                  1      0.0000       0.00000       A     2.62534e-01     6.69704e-02    ;  uncertainty sigma = 0.000020, epsilon = 0.000545
 h23bf                                  1      0.0000       0.00000       A     2.53656e-01     6.70482e-02    ;  uncertainty sigma = 0.000017, epsilon = 0.000573
 h24bf                                  1      0.0000       0.00000       A     2.62568e-01     6.69546e-02    ;  uncertainty sigma = 0.000006, epsilon = 0.000527
 h25bf                                  1      0.0000       0.00000       A     2.62565e-01     6.70619e-02    ;  uncertainty sigma = 0.000008, epsilon = 0.000556
 h26bf                                  1      0.0000       0.00000       A     1.10697e-01     4.15615e-02    ;  uncertainty sigma = 0.000094, epsilon = 0.000787
 h27bf                                  1      0.0000       0.00000       A     2.62531e-01     6.69228e-02    ;  uncertainty sigma = 0.000026, epsilon = 0.000688
 h28bf                                  1      0.0000       0.00000       A     1.10681e-01     4.15281e-02    ;  uncertainty sigma = 0.000116, epsilon = 0.001414
 h29bf                                  1      0.0000       0.00000       A     2.60006e-01     8.66537e-02    ;  uncertainty sigma = 0.000032, epsilon = 0.000323
 h30bf                                  1      0.0000       0.00000       A     2.60006e-01     8.66537e-02    ;  uncertainty sigma = 0.000032, epsilon = 0.000323
 h31bf                                  1      0.0000       0.00000       A     2.60110e-01     8.65634e-02    ;  uncertainty sigma = 0.000047, epsilon = 0.001758
 c32bf                                  6      0.0000       0.00000       A     3.39745e-01     4.50847e-01    ;  uncertainty sigma = 0.000013, epsilon = 0.000856
 c33bf                                  6      0.0000       0.00000       A     3.39763e-01     4.50851e-01    ;  uncertainty sigma = 0.000009, epsilon = 0.000728
 c34bf                                  6      0.0000       0.00000       A     3.39763e-01     4.50851e-01    ;  uncertainty sigma = 0.000009, epsilon = 0.000728
 h35bf                                  1      0.0000       0.00000       A     2.60018e-01     8.67597e-02    ;  uncertainty sigma = 0.000009, epsilon = 0.000683
 h36bf                                  1      0.0000       0.00000       A     2.60018e-01     8.67595e-02    ;  uncertainty sigma = 0.000009, epsilon = 0.000683
 h37bf                                  1      0.0000       0.00000       A     2.60018e-01     8.67596e-02    ;  uncertainty sigma = 0.000009, epsilon = 0.000683
 h38bf                                  1      0.0000       0.00000       A     2.60018e-01     8.67595e-02    ;  uncertainty sigma = 0.000009, epsilon = 0.000683

[ moleculetype ]
;name             nrexcl
 MOL                   3

[ atoms ]
;       nr            type      resi   res      atom      cgnr      charge          mass ; qtot
         1            c0bf         1   UNL        c0         1    -0.13673       12.0110 ; qtot   -0.137
         2            c1bf         1   UNL        c1         2     0.06477       12.0110 ; qtot   -0.072
         3            c2bf         1   UNL        c2         3    -0.12372       12.0110 ; qtot   -0.196
         4            c3bf         1   UNL        c3         4     0.13648       12.0110 ; qtot   -0.059
         5            c4bf         1   UNL        c4         5     0.70160       12.0110 ; qtot    0.642
         6            c5bf         1   UNL        c5         6    -0.31812       12.0110 ; qtot    0.324
         7            c6bf         1   UNL        c6         7     0.45431       12.0110 ; qtot    0.779
         8            c7bf         1   UNL        c7         8     0.06477       12.0110 ; qtot    0.843
         9            c8bf         1   UNL        c8         9    -0.09581       12.0110 ; qtot    0.748
        10            c9bf         1   UNL        c9        10    -0.12372       12.0110 ; qtot    0.624
        11          cl10bf         1   UNL      cl10        11    -0.09667       35.4530 ; qtot    0.527
        12           o11bf         1   UNL       o11        12    -0.55036       15.9990 ; qtot   -0.023
        13           n12bf         1   UNL       n12        13    -0.46533       14.0070 ; qtot   -0.489
        14           n13bf         1   UNL       n13        14    -0.72469       14.0070 ; qtot   -1.213
        15           c14bf         1   UNL       c14        15     0.56390       12.0110 ; qtot   -0.649
        16           c15bf         1   UNL       c15        16    -0.30858       12.0110 ; qtot   -0.958
        17           n16bf         1   UNL       n16        17    -0.56996       14.0070 ; qtot   -1.528
        18           c17bf         1   UNL       c17        18     0.68636       12.0110 ; qtot   -0.842
        19           o18bf         1   UNL       o18        19    -0.56596       15.9990 ; qtot   -1.407
        20           c19bf         1   UNL       c19        20    -0.11945       12.0110 ; qtot   -1.527
        21          cl20bf         1   UNL      cl20        21    -0.09667       35.4530 ; qtot   -1.624
        22           h21bf         1   UNL       h21        22     0.15894        1.0080 ; qtot   -1.465
        23           h22bf         1   UNL       h22        23     0.16313        1.0080 ; qtot   -1.302
        24           h23bf         1   UNL       h23        24     0.01919        1.0080 ; qtot   -1.282
        25           h24bf         1   UNL       h24        25     0.14278        1.0080 ; qtot   -1.140
        26           h25bf         1   UNL       h25        26     0.15894        1.0080 ; qtot   -0.981
        27           h26bf         1   UNL       h26        27     0.33920        1.0080 ; qtot   -0.641
        28           h27bf         1   UNL       h27        28     0.18077        1.0080 ; qtot   -0.461
        29           h28bf         1   UNL       h28        29     0.33904        1.0080 ; qtot   -0.122
        30           h29bf         1   UNL       h29        30     0.06717        1.0080 ; qtot   -0.054
        31           h30bf         1   UNL       h30        31     0.06717        1.0080 ; qtot    0.013
        32           h31bf         1   UNL       h31        32     0.08322        1.0080 ; qtot    0.096
        33           c32bf         1   UNL       c32        33    -0.13100       12.0110 ; qtot   -0.035
        34           c33bf         1   UNL       c33        34    -0.12857       12.0110 ; qtot   -0.164
        35           c34bf         1   UNL       c34        35    -0.12857       12.0110 ; qtot   -0.292
        36           h35bf         1   UNL       h35        36     0.07305        1.0080 ; qtot   -0.219
        37           h36bf         1   UNL       h36        37     0.07305        1.0080 ; qtot   -0.146
        38           h37bf         1   UNL       h37        38     0.07305        1.0080 ; qtot   -0.073
        39           h38bf         1   UNL       h38        39     0.07302        1.0080 ; qtot   -0.000

[ bonds ]
;       ai        aj funct               r               k
         1         2     1        0.139920   314205.988965    ;  uncertainty r = 0.000059, k = 10.355889
         1         5     1        0.151314   265032.676025    ;  uncertainty r = 0.000141, k = 25.452716
         1         8     1        0.139920   314205.988965    ;  uncertainty r = 0.000059, k = 10.355889
         2         3     1        0.139442   359146.551563    ;  uncertainty r = 0.000054, k = 3.481137
         2        11     1        0.175360   192488.234717    ;  uncertainty r = 0.000074, k = 4.279805
         3         9     1        0.139292   379946.297314    ;  uncertainty r = 0.000031, k = 1.315137
         3        22     1        0.108683   334938.061377    ;  uncertainty r = 0.000015, k = 0.960770
         4         6     1        0.140570   376090.806689    ;  uncertainty r = 0.000061, k = 6.523252
         4        13     1        0.140706   335244.481152    ;  uncertainty r = 0.000185, k = 14.115330
         4        16     1        0.139888   380122.937500    ;  uncertainty r = 0.000080, k = 3.904899
         5        12     1        0.122846   748673.427441    ;  uncertainty r = 0.000143, k = 20.391507
         5        13     1        0.137342   285190.010254    ;  uncertainty r = 0.000166, k = 14.492660
         6         7     1        0.139660   375491.680566    ;  uncertainty r = 0.000079, k = 13.453144
         6        23     1        0.108729   340462.427637    ;  uncertainty r = 0.000049, k = 2.577688
         7        14     1        0.133994   391612.466064    ;  uncertainty r = 0.000075, k = 9.938255
         7        24     1        0.108903   331910.688135    ;  uncertainty r = 0.000036, k = 1.905640
         8        10     1        0.139442   359146.551563    ;  uncertainty r = 0.000054, k = 3.481137
         8        21     1        0.175360   192488.234717    ;  uncertainty r = 0.000074, k = 4.279805
         9        10     1        0.139292   379946.297314    ;  uncertainty r = 0.000031, k = 1.315137
         9        25     1        0.108720   333853.628027    ;  uncertainty r = 0.000011, k = 1.678519
        10        26     1        0.108683   334938.061377    ;  uncertainty r = 0.000015, k = 0.960770
        13        27     1        0.101831   422627.387549    ;  uncertainty r = 0.000095, k = 5.435166
        14        15     1        0.134802   458634.277637    ;  uncertainty r = 0.000106, k = 11.702256
        15        16     1        0.140393   361543.771094    ;  uncertainty r = 0.000169, k = 20.699880
        15        17     1        0.141388   461340.342969    ;  uncertainty r = 0.000125, k = 7.101548
        16        28     1        0.108728   342650.115186    ;  uncertainty r = 0.000071, k = 4.514926
        17        18     1        0.139186   381611.929736    ;  uncertainty r = 0.000132, k = 10.206034
        17        29     1        0.102074   465108.905273    ;  uncertainty r = 0.000034, k = 7.932942
        18        19     1        0.123456   719761.078320    ;  uncertainty r = 0.000127, k = 6.870298
        18        20     1        0.151911   195113.347412    ;  uncertainty r = 0.000167, k = 11.098179
        20        30     1        0.109748   312659.282861    ;  uncertainty r = 0.000058, k = 2.716577
        20        31     1        0.109748   312659.282861    ;  uncertainty r = 0.000058, k = 2.716577
        20        33     1        0.151558   216812.382471    ;  uncertainty r = 0.000123, k = 16.095552
        32        33     1        0.108774   312943.638574    ;  uncertainty r = 0.000013, k = 1.627864
        33        34     1        0.151282   207653.638647    ;  uncertainty r = 0.000089, k = 3.171772
        33        35     1        0.151282   207653.638647    ;  uncertainty r = 0.000089, k = 3.171772
        34        35     1        0.151411   215894.731982    ;  uncertainty r = 0.000079, k = 2.221551
        34        36     1        0.108699   312044.349268    ;  uncertainty r = 0.000014, k = 2.290292
        34        37     1        0.108699   312044.349268    ;  uncertainty r = 0.000014, k = 2.290292
        35        38     1        0.108699   312044.349268    ;  uncertainty r = 0.000014, k = 2.290292
        35        39     1        0.108699   312044.349268    ;  uncertainty r = 0.000014, k = 2.290302

[ angles ]
;       ai        aj        ak funct           theta             cth
         1         2         3     1      124.614235      359.881075    ;  uncertainty theta = 0.007318, k = 0.141141
         1         2        11     1      117.122276      401.475760    ;  uncertainty theta = 0.004274, k = 0.169678
         1         5        12     1      122.451149      457.836639    ;  uncertainty theta = 0.012324, k = 0.396747
         1         5        13     1      112.777939      397.551185    ;  uncertainty theta = 0.004296, k = 0.197514
         1         8        10     1      124.614235      359.881075    ;  uncertainty theta = 0.007318, k = 0.141141
         1         8        21     1      117.122276      401.475760    ;  uncertainty theta = 0.004274, k = 0.169678
         2         1         5     1      120.701454      353.629431    ;  uncertainty theta = 0.013311, k = 0.275393
         2         1         8     1      120.699013      430.079652    ;  uncertainty theta = 0.009492, k = 0.209916
         2         3         9     1      118.495155      498.161267    ;  uncertainty theta = 0.004039, k = 0.062916
         2         3        22     1      120.521286      283.386643    ;  uncertainty theta = 0.002118, k = 0.065156
         3         2        11     1      119.919701      462.386458    ;  uncertainty theta = 0.001017, k = 0.162558
         3         9        10     1      119.368362      506.538875    ;  uncertainty theta = 0.002463, k = 0.055814
         3         9        25     1      119.878922      281.614496    ;  uncertainty theta = 0.001408, k = 0.030814
         4         6         7     1      115.739685      478.573602    ;  uncertainty theta = 0.004925, k = 0.048676
         4         6        23     1      120.342453      269.550669    ;  uncertainty theta = 0.001665, k = 0.097098
         4        13         5     1      117.316322      446.625912    ;  uncertainty theta = 0.002594, k = 0.143032
         4        13        27     1      113.569641      313.594043    ;  uncertainty theta = 0.004804, k = 0.335936
         4        16        15     1      114.579201      483.703688    ;  uncertainty theta = 0.010236, k = 0.178606
         4        16        28     1      120.939209      271.450854    ;  uncertainty theta = 0.003524, k = 0.170658
         5         1         8     1      120.701454      353.629431    ;  uncertainty theta = 0.013311, k = 0.275393
         5        13        27     1      116.863647      359.759902    ;  uncertainty theta = 0.004202, k = 0.178017
         6         4        13     1      120.717148      522.791043    ;  uncertainty theta = 0.004408, k = 0.164372
         6         4        16     1      117.416847      392.902218    ;  uncertainty theta = 0.006627, k = 0.175333
         6         7        14     1      123.543961      696.121300    ;  uncertainty theta = 0.003420, k = 0.078262
         6         7        24     1      120.074997      274.168737    ;  uncertainty theta = 0.001842, k = 0.112779
         7         6        23     1      122.550827      311.952454    ;  uncertainty theta = 0.002566, k = 0.162360
         7        14        15     1      113.174911      422.231907    ;  uncertainty theta = 0.009260, k = 0.224939
         8        10         9     1      118.495155      498.161267    ;  uncertainty theta = 0.004039, k = 0.062916
         8        10        26     1      120.521286      283.386643    ;  uncertainty theta = 0.002118, k = 0.065156
         9         3        22     1      121.431229      283.380802    ;  uncertainty theta = 0.000813, k = 0.055588
         9        10        26     1      121.431229      283.380802    ;  uncertainty theta = 0.000813, k = 0.055588
        10         8        21     1      119.919701      462.386458    ;  uncertainty theta = 0.001017, k = 0.162558
        10         9        25     1      119.878922      281.614496    ;  uncertainty theta = 0.001408, k = 0.030814
        12         5        13     1      122.021950      773.152841    ;  uncertainty theta = 0.004688, k = 0.191943
        13         4        16     1      120.305321      521.084142    ;  uncertainty theta = 0.005936, k = 0.131730
        14         7        24     1      115.960632      320.554917    ;  uncertainty theta = 0.002673, k = 0.119768
        14        15        16     1      123.051468      543.683909    ;  uncertainty theta = 0.009591, k = 0.205497
        14        15        17     1      120.049110      731.503411    ;  uncertainty theta = 0.004383, k = 0.072369
        15        16        28     1      121.667099      278.275838    ;  uncertainty theta = 0.005204, k = 0.123278
        15        17        18     1      120.667374      442.758923    ;  uncertainty theta = 0.004113, k = 0.211094
        15        17        29     1      116.813889      330.479499    ;  uncertainty theta = 0.001861, k = 0.178034
        16        15        17     1      121.334030      550.079104    ;  uncertainty theta = 0.005756, k = 0.261334
        17        18        19     1      123.014542      761.910575    ;  uncertainty theta = 0.002716, k = 0.091674
        17        18        20     1      113.082191      506.021142    ;  uncertainty theta = 0.003874, k = 0.103296
        18        17        29     1      117.035477      277.268016    ;  uncertainty theta = 0.004229, k = 0.350224
        18        20        30     1      106.451218      360.717384    ;  uncertainty theta = 0.003474, k = 0.144724
        18        20        31     1      106.451218      360.717384    ;  uncertainty theta = 0.003474, k = 0.144724
        18        20        33     1      108.888039      491.027124    ;  uncertainty theta = 0.008748, k = 0.082276
        19        18        20     1      125.283592      540.978444    ;  uncertainty theta = 0.003489, k = 0.189693
        20        33        32     1      116.571396      273.535225    ;  uncertainty theta = 0.005463, k = 0.125390
        20        33        34     1      113.935349      326.924957    ;  uncertainty theta = 0.004293, k = 0.145734
        20        33        35     1      113.935349      326.924957    ;  uncertainty theta = 0.004293, k = 0.145734
        30        20        31     1      105.451599      317.471758    ;  uncertainty theta = 0.001257, k = 0.039784
        30        20        33     1      108.369446      394.195481    ;  uncertainty theta = 0.002035, k = 0.052683
        31        20        33     1      108.369446      394.195481    ;  uncertainty theta = 0.002035, k = 0.052683
        32        33        34     1      107.992958      190.785988    ;  uncertainty theta = 0.008461, k = 0.429691
        32        33        35     1      107.992958      190.785988    ;  uncertainty theta = 0.008461, k = 0.429691
        33        34        35     1       59.959026      167.360000    ;  uncertainty theta = 0.025835, k = 0.000000
        33        34        36     1      109.489952      218.176294    ;  uncertainty theta = 0.005212, k = 0.111106
        33        34        37     1      109.489952      218.176294    ;  uncertainty theta = 0.005212, k = 0.111106
        33        35        34     1       59.959026      167.360000    ;  uncertainty theta = 0.025835, k = 0.000000
        33        35        38     1      109.489952      218.176294    ;  uncertainty theta = 0.005212, k = 0.111106
        33        35        39     1      109.489952      218.176294    ;  uncertainty theta = 0.005212, k = 0.111106
        34        33        35     1       59.904072      167.360000    ;  uncertainty theta = 0.024797, k = 0.000000
        34        35        38     1      109.615921      220.459663    ;  uncertainty theta = 0.003986, k = 0.193446
        34        35        39     1      109.615921      220.459663    ;  uncertainty theta = 0.003986, k = 0.193446
        35        34        36     1      109.615921      220.459663    ;  uncertainty theta = 0.003986, k = 0.193446
        35        34        37     1      109.615921      220.459663    ;  uncertainty theta = 0.003986, k = 0.193446
        36        34        37     1      113.590195      204.763262    ;  uncertainty theta = 0.004483, k = 0.050505
        38        35        39     1      113.590195      204.763230    ;  uncertainty theta = 0.004483, k = 0.050506

[ dihedrals ] ; propers for gromacs 4.5 or higher, use funct 9
;       ai        aj        ak        al funct           phase               k        pn
         1         2         3         9     9        0.000000        0.129562         1    ;  uncertainty k = 0.258537
         1         2         3         9     9      180.000000        9.006461         2    ;  uncertainty k = 0.178121
         1         2         3         9     9        0.000000        0.010291         3    ;  uncertainty k = 0.509158
         1         2         3         9     9      180.000000        1.179148         4    ;  uncertainty k = 0.340357
         1         2         3        22     9        0.000000        0.017749         1    ;  uncertainty k = 0.506174
         1         2         3        22     9      180.000000        5.847178         2    ;  uncertainty k = 0.808481
         1         2         3        22     9        0.000000        1.301869         3    ;  uncertainty k = 0.271599
         1         2         3        22     9      180.000000        1.572515         4    ;  uncertainty k = 0.163634
         1         5        13         4     9        0.000000        4.012883         1    ;  uncertainty k = 0.741994
         1         5        13         4     9      180.000000       10.050056         2    ;  uncertainty k = 0.176781
         1         5        13         4     9        0.000000        1.524529         3    ;  uncertainty k = 0.439697
         1         5        13         4     9      180.000000       -1.034114         4    ;  uncertainty k = 0.394406
         1         5        13        27     9        0.000000        0.286201         1    ;  uncertainty k = 0.970625
         1         5        13        27     9      180.000000        4.591571         2    ;  uncertainty k = 0.675511
         1         5        13        27     9        0.000000        1.269715         3    ;  uncertainty k = 0.289099
         1         5        13        27     9      180.000000        0.225446         4    ;  uncertainty k = 0.265035
         1         8        10         9     9        0.000000        0.129562         1    ;  uncertainty k = 0.258537
         1         8        10         9     9      180.000000        9.006461         2    ;  uncertainty k = 0.178121
         1         8        10         9     9        0.000000        0.010291         3    ;  uncertainty k = 0.509158
         1         8        10         9     9      180.000000        1.179148         4    ;  uncertainty k = 0.340357
         1         8        10        26     9        0.000000        0.017749         1    ;  uncertainty k = 0.506174
         1         8        10        26     9      180.000000        5.847178         2    ;  uncertainty k = 0.808481
         1         8        10        26     9        0.000000        1.301869         3    ;  uncertainty k = 0.271599
         1         8        10        26     9      180.000000        1.572515         4    ;  uncertainty k = 0.163634
         2         1         5        12     9        0.000000       -0.938458         1    ;  uncertainty k = 0.721948
         2         1         5        12     9      180.000000        3.726943         2    ;  uncertainty k = 0.367149
         2         1         5        12     9        0.000000        0.533107         3    ;  uncertainty k = 0.173933
         2         1         5        12     9      180.000000        0.129066         4    ;  uncertainty k = 0.152302
         2         1         5        13     9        0.000000        1.636802         1    ;  uncertainty k = 0.717500
         2         1         5        13     9      180.000000        0.794893         2    ;  uncertainty k = 0.489697
         2         1         5        13     9        0.000000        0.486371         3    ;  uncertainty k = 0.368442
         2         1         5        13     9      180.000000       -0.111126         4    ;  uncertainty k = 0.129000
         2         1         8        10     9        0.000000        0.157030         1    ;  uncertainty k = 0.251028
         2         1         8        10     9      180.000000        6.621005         2    ;  uncertainty k = 0.890169
         2         1         8        10     9        0.000000        0.446154         3    ;  uncertainty k = 0.192247
         2         1         8        10     9      180.000000        1.346016         4    ;  uncertainty k = 0.373704
         2         1         8        21     9        0.000000        0.044095         1    ;  uncertainty k = 0.788675
         2         1         8        21     9      180.000000        8.268702         2    ;  uncertainty k = 0.180496
         2         1         8        21     9        0.000000        1.453925         3    ;  uncertainty k = 0.378329
         2         1         8        21     9      180.000000        1.534665         4    ;  uncertainty k = 0.225736
         2         3         9        10     9        0.000000        0.056957         1    ;  uncertainty k = 0.125369
         2         3         9        10     9      180.000000       14.284910         2    ;  uncertainty k = 0.214373
         2         3         9        10     9        0.000000       -1.022656         3    ;  uncertainty k = 0.417280
         2         3         9        10     9      180.000000        0.771729         4    ;  uncertainty k = 0.212175
         2         3         9        25     9        0.000000        0.083384         1    ;  uncertainty k = 0.200417
         2         3         9        25     9      180.000000        7.197642         2    ;  uncertainty k = 0.253695
         2         3         9        25     9        0.000000        1.438769         3    ;  uncertainty k = 0.264288
         2         3         9        25     9      180.000000        1.864824         4    ;  uncertainty k = 0.166987
         3         2         1         5     9        0.000000        0.540121         1    ;  uncertainty k = 0.659361
         3         2         1         5     9      180.000000        6.952584         2    ;  uncertainty k = 0.900726
         3         2         1         5     9        0.000000        1.504339         3    ;  uncertainty k = 0.227715
         3         2         1         5     9      180.000000        1.691626         4    ;  uncertainty k = 0.279736
         3         2         1         8     9        0.000000        0.157030         1    ;  uncertainty k = 0.251028
         3         2         1         8     9      180.000000        6.621005         2    ;  uncertainty k = 0.890169
         3         2         1         8     9        0.000000        0.446154         3    ;  uncertainty k = 0.192247
         3         2         1         8     9      180.000000        1.346016         4    ;  uncertainty k = 0.373704
         3         9        10         8     9        0.000000        0.056957         1    ;  uncertainty k = 0.125369
         3         9        10         8     9      180.000000       14.284910         2    ;  uncertainty k = 0.214373
         3         9        10         8     9        0.000000       -1.022656         3    ;  uncertainty k = 0.417280
         3         9        10         8     9      180.000000        0.771729         4    ;  uncertainty k = 0.212175
         3         9        10        26     9        0.000000        0.071341         1    ;  uncertainty k = 0.156537
         3         9        10        26     9      180.000000        7.824333         2    ;  uncertainty k = 0.388735
         3         9        10        26     9        0.000000        1.476015         3    ;  uncertainty k = 0.262591
         3         9        10        26     9      180.000000        1.800034         4    ;  uncertainty k = 0.168947
         4         6         7        14     9        0.000000       -0.195407         1    ;  uncertainty k = 0.224371
         4         6         7        14     9      180.000000       15.656345         2    ;  uncertainty k = 0.436682
         4         6         7        14     9        0.000000       -1.161745         3    ;  uncertainty k = 0.312648
         4         6         7        14     9      180.000000        0.795456         4    ;  uncertainty k = 0.157453
         4         6         7        24     9        0.000000       -0.488021         1    ;  uncertainty k = 0.352061
         4         6         7        24     9      180.000000        6.981430         2    ;  uncertainty k = 0.581321
         4         6         7        24     9        0.000000        1.147582         3    ;  uncertainty k = 0.230024
         4         6         7        24     9      180.000000        1.407164         4    ;  uncertainty k = 0.046480
         4        13         5        12     9        0.000000        3.184547         1    ;  uncertainty k = 1.295174
         4        13         5        12     9      180.000000       13.546940         2    ;  uncertainty k = 0.231063
         4        13         5        12     9        0.000000        0.722658         3    ;  uncertainty k = 0.182961
         4        13         5        12     9      180.000000       -0.666531         4    ;  uncertainty k = 0.131850
         4        16        15        14     9        0.000000       -0.463578         1    ;  uncertainty k = 0.240474
         4        16        15        14     9      180.000000       10.245171         2    ;  uncertainty k = 0.463604
         4        16        15        14     9        0.000000       -0.437204         3    ;  uncertainty k = 0.670447
         4        16        15        14     9      180.000000        1.003837         4    ;  uncertainty k = 0.089842
         4        16        15        17     9        0.000000       -0.018490         1    ;  uncertainty k = 0.601809
         4        16        15        17     9      180.000000        8.639094         2    ;  uncertainty k = 0.527155
         4        16        15        17     9        0.000000        0.865868         3    ;  uncertainty k = 0.406552
         4        16        15        17     9      180.000000        1.235169         4    ;  uncertainty k = 0.509020
         5         1         2        11     9        0.000000        0.293529         1    ;  uncertainty k = 1.201193
         5         1         2        11     9      180.000000        8.809351         2    ;  uncertainty k = 0.492509
         5         1         2        11     9        0.000000        1.507479         3    ;  uncertainty k = 0.181959
         5         1         2        11     9      180.000000        1.331521         4    ;  uncertainty k = 0.158721
         5         1         8        10     9        0.000000        0.540121         1    ;  uncertainty k = 0.659361
         5         1         8        10     9      180.000000        6.952584         2    ;  uncertainty k = 0.900726
         5         1         8        10     9        0.000000        1.504339         3    ;  uncertainty k = 0.227715
         5         1         8        10     9      180.000000        1.691626         4    ;  uncertainty k = 0.279736
         5         1         8        21     9        0.000000        0.293529         1    ;  uncertainty k = 1.201193
         5         1         8        21     9      180.000000        8.809351         2    ;  uncertainty k = 0.492509
         5         1         8        21     9        0.000000        1.507479         3    ;  uncertainty k = 0.181959
         5         1         8        21     9      180.000000        1.331521         4    ;  uncertainty k = 0.158721
         5        13         4         6     9        0.000000        0.671405         1    ;  uncertainty k = 0.779653
         5        13         4         6     9      180.000000        5.171684         2    ;  uncertainty k = 0.343054
         5        13         4         6     9        0.000000        0.900418         3    ;  uncertainty k = 0.162472
         5        13         4         6     9      180.000000        0.037683         4    ;  uncertainty k = 0.022188
         5        13         4        16     9        0.000000        0.711827         1    ;  uncertainty k = 0.532347
         5        13         4        16     9      180.000000        5.530463         2    ;  uncertainty k = 0.448142
         5        13         4        16     9        0.000000        0.877052         3    ;  uncertainty k = 0.137757
         5        13         4        16     9      180.000000        0.010492         4    ;  uncertainty k = 0.127906
         6         4        13        27     9        0.000000        1.029279         1    ;  uncertainty k = 1.463602
         6         4        13        27     9      180.000000        5.196719         2    ;  uncertainty k = 0.208685
         6         4        13        27     9        0.000000        0.851853         3    ;  uncertainty k = 0.351032
         6         4        13        27     9      180.000000        0.326889         4    ;  uncertainty k = 0.129780
         6         4        16        15     9        0.000000       -0.025196         1    ;  uncertainty k = 0.314659
         6         4        16        15     9      180.000000       10.300817         2    ;  uncertainty k = 0.402924
         6         4        16        15     9        0.000000       -0.324093         3    ;  uncertainty k = 0.123815
         6         4        16        15     9      180.000000        1.127253         4    ;  uncertainty k = 0.281264
         6         4        16        28     9        0.000000        0.495810         1    ;  uncertainty k = 0.512648
         6         4        16        28     9      180.000000        7.789312         2    ;  uncertainty k = 0.437403
         6         4        16        28     9        0.000000        1.413160         3    ;  uncertainty k = 0.268514
         6         4        16        28     9      180.000000        1.568179         4    ;  uncertainty k = 0.220540
         6         7        14        15     9        0.000000       -0.421990         1    ;  uncertainty k = 0.296279
         6         7        14        15     9      180.000000       14.525934         2    ;  uncertainty k = 0.421886
         6         7        14        15     9        0.000000        0.746855         3    ;  uncertainty k = 0.437564
         6         7        14        15     9      180.000000        1.331828         4    ;  uncertainty k = 0.255223
         7         6         4        13     9        0.000000       -0.156685         1    ;  uncertainty k = 0.327783
         7         6         4        13     9      180.000000       10.573743         2    ;  uncertainty k = 0.368407
         7         6         4        13     9        0.000000        0.699890         3    ;  uncertainty k = 0.295405
         7         6         4        13     9      180.000000        1.371703         4    ;  uncertainty k = 0.342554
         7         6         4        16     9        0.000000       -0.285179         1    ;  uncertainty k = 0.405985
         7         6         4        16     9      180.000000       10.375539         2    ;  uncertainty k = 0.252930
         7         6         4        16     9        0.000000       -0.505381         3    ;  uncertainty k = 0.471184
         7         6         4        16     9      180.000000        1.111552         4    ;  uncertainty k = 0.116415
         7        14        15        16     9        0.000000       -0.522511         1    ;  uncertainty k = 0.679972
         7        14        15        16     9      180.000000       11.805467         2    ;  uncertainty k = 0.811711
         7        14        15        16     9        0.000000        0.956598         3    ;  uncertainty k = 0.655239
         7        14        15        16     9      180.000000        1.376514         4    ;  uncertainty k = 0.299550
         7        14        15        17     9        0.000000       -0.233620         1    ;  uncertainty k = 1.308915
         7        14        15        17     9      180.000000       15.876852         2    ;  uncertainty k = 0.294615
         7        14        15        17     9        0.000000        1.966612         3    ;  uncertainty k = 0.435788
         7        14        15        17     9      180.000000        1.757262         4    ;  uncertainty k = 0.397989
         8         1         2        11     9        0.000000        0.044095         1    ;  uncertainty k = 0.788675
         8         1         2        11     9      180.000000        8.268702         2    ;  uncertainty k = 0.180496
         8         1         2        11     9        0.000000        1.453925         3    ;  uncertainty k = 0.378329
         8         1         2        11     9      180.000000        1.534665         4    ;  uncertainty k = 0.225736
         8         1         5        12     9        0.000000       -0.938458         1    ;  uncertainty k = 0.721948
         8         1         5        12     9      180.000000        3.726943         2    ;  uncertainty k = 0.367149
         8         1         5        12     9        0.000000        0.533107         3    ;  uncertainty k = 0.173933
         8         1         5        12     9      180.000000        0.129066         4    ;  uncertainty k = 0.152302
         8         1         5        13     9        0.000000        1.636802         1    ;  uncertainty k = 0.717500
         8         1         5        13     9      180.000000        0.794893         2    ;  uncertainty k = 0.489697
         8         1         5        13     9        0.000000        0.486371         3    ;  uncertainty k = 0.368442
         8         1         5        13     9      180.000000       -0.111126         4    ;  uncertainty k = 0.129000
         8        10         9        25     9        0.000000        0.083384         1    ;  uncertainty k = 0.200417
         8        10         9        25     9      180.000000        7.197642         2    ;  uncertainty k = 0.253695
         8        10         9        25     9        0.000000        1.438769         3    ;  uncertainty k = 0.264288
         8        10         9        25     9      180.000000        1.864824         4    ;  uncertainty k = 0.166987
         9         3         2        11     9        0.000000       -0.125974         1    ;  uncertainty k = 0.141879
         9         3         2        11     9      180.000000        9.826857         2    ;  uncertainty k = 0.423980
         9         3         2        11     9        0.000000        1.360528         3    ;  uncertainty k = 0.293318
         9         3         2        11     9      180.000000        1.645146         4    ;  uncertainty k = 0.120261
         9        10         8        21     9        0.000000       -0.125974         1    ;  uncertainty k = 0.141879
         9        10         8        21     9      180.000000        9.826857         2    ;  uncertainty k = 0.423980
         9        10         8        21     9        0.000000        1.360528         3    ;  uncertainty k = 0.293318
         9        10         8        21     9      180.000000        1.645146         4    ;  uncertainty k = 0.120261
        10         9         3        22     9        0.000000        0.071341         1    ;  uncertainty k = 0.156537
        10         9         3        22     9      180.000000        7.824333         2    ;  uncertainty k = 0.388735
        10         9         3        22     9        0.000000        1.476015         3    ;  uncertainty k = 0.262591
        10         9         3        22     9      180.000000        1.800034         4    ;  uncertainty k = 0.168947
        11         2         3        22     9        0.000000       -0.203688         1    ;  uncertainty k = 0.537167
        11         2         3        22     9      180.000000        7.741258         2    ;  uncertainty k = 0.413148
        11         2         3        22     9        0.000000        0.589378         3    ;  uncertainty k = 0.256365
        11         2         3        22     9      180.000000        1.098417         4    ;  uncertainty k = 0.232050
        12         5        13        27     9        0.000000        2.754751         1    ;  uncertainty k = 1.678083
        12         5        13        27     9      180.000000       15.343140         2    ;  uncertainty k = 0.287199
        12         5        13        27     9        0.000000        1.862099         3    ;  uncertainty k = 0.346350
        12         5        13        27     9      180.000000       -0.086397         4    ;  uncertainty k = 0.341591
        13         4         6        23     9        0.000000       -0.319544         1    ;  uncertainty k = 0.345314
        13         4         6        23     9      180.000000        8.037585         2    ;  uncertainty k = 0.455395
        13         4         6        23     9        0.000000        0.835277         3    ;  uncertainty k = 0.138723
        13         4         6        23     9      180.000000        1.127271         4    ;  uncertainty k = 0.123904
        13         4        16        15     9        0.000000       -0.056208         1    ;  uncertainty k = 0.529889
        13         4        16        15     9      180.000000       12.010053         2    ;  uncertainty k = 0.790930
        13         4        16        15     9        0.000000        0.815061         3    ;  uncertainty k = 0.293157
        13         4        16        15     9      180.000000        1.302412         4    ;  uncertainty k = 0.676320
        13         4        16        28     9        0.000000       -0.284940         1    ;  uncertainty k = 0.433757
        13         4        16        28     9      180.000000        8.866330         2    ;  uncertainty k = 0.437510
        13         4        16        28     9        0.000000        0.893476         3    ;  uncertainty k = 0.163359
        13         4        16        28     9      180.000000        1.196102         4    ;  uncertainty k = 0.184028
        14         7         6        23     9        0.000000        0.122843         1    ;  uncertainty k = 0.167730
        14         7         6        23     9      180.000000       10.140002         2    ;  uncertainty k = 0.394062
        14         7         6        23     9        0.000000        1.030077         3    ;  uncertainty k = 0.344283
        14         7         6        23     9      180.000000        1.733914         4    ;  uncertainty k = 0.164436
        14        15        16        28     9        0.000000        0.569259         1    ;  uncertainty k = 0.644111
        14        15        16        28     9      180.000000        7.862766         2    ;  uncertainty k = 0.833664
        14        15        16        28     9        0.000000        1.197157         3    ;  uncertainty k = 0.275486
        14        15        16        28     9      180.000000        1.421428         4    ;  uncertainty k = 0.209459
        14        15        17        18     9        0.000000        2.022502         1    ;  uncertainty k = 0.918806
        14        15        17        18     9      180.000000        5.825288         2    ;  uncertainty k = 0.482436
        14        15        17        18     9        0.000000        0.918753         3    ;  uncertainty k = 0.256124
        14        15        17        18     9      180.000000       -0.143768         4    ;  uncertainty k = 0.176313
        14        15        17        29     9        0.000000        6.274221         1    ;  uncertainty k = 0.489605
        14        15        17        29     9      180.000000        4.710607         2    ;  uncertainty k = 0.468922
        14        15        17        29     9        0.000000        0.151230         3    ;  uncertainty k = 0.254191
        14        15        17        29     9      180.000000        0.117401         4    ;  uncertainty k = 0.260376
        15        14         7        24     9        0.000000       -0.324167         1    ;  uncertainty k = 0.348381
        15        14         7        24     9      180.000000       15.022742         2    ;  uncertainty k = 0.494713
        15        14         7        24     9        0.000000        2.043382         3    ;  uncertainty k = 0.730478
        15        14         7        24     9      180.000000        1.318341         4    ;  uncertainty k = 0.412176
        15        17        18        19     9        0.000000        4.414092         1    ;  uncertainty k = 0.409686
        15        17        18        19     9      180.000000       16.806820         2    ;  uncertainty k = 0.120596
        15        17        18        19     9        0.000000        0.514832         3    ;  uncertainty k = 0.250759
        15        17        18        19     9      180.000000       -1.277208         4    ;  uncertainty k = 0.130941
        15        17        18        20     9        0.000000        5.079900         1    ;  uncertainty k = 1.035656
        15        17        18        20     9      180.000000        7.990045         2    ;  uncertainty k = 0.359358
        15        17        18        20     9        0.000000        0.941184         3    ;  uncertainty k = 0.343497
        15        17        18        20     9      180.000000       -0.307870         4    ;  uncertainty k = 0.245622
        16         4         6        23     9        0.000000        0.271532         1    ;  uncertainty k = 0.336428
        16         4         6        23     9      180.000000        7.226426         2    ;  uncertainty k = 0.631095
        16         4         6        23     9        0.000000        1.360809         3    ;  uncertainty k = 0.281224
        16         4         6        23     9      180.000000        1.471445         4    ;  uncertainty k = 0.135494
        16         4        13        27     9        0.000000        2.082977         1    ;  uncertainty k = 1.379272
        16         4        13        27     9      180.000000        5.485332         2    ;  uncertainty k = 0.410084
        16         4        13        27     9        0.000000        0.777949         3    ;  uncertainty k = 0.387063
        16         4        13        27     9      180.000000        0.268009         4    ;  uncertainty k = 0.118801
        16        15        17        18     9        0.000000       -0.058539         1    ;  uncertainty k = 1.200282
        16        15        17        18     9      180.000000        4.925193         2    ;  uncertainty k = 0.164883
        16        15        17        18     9        0.000000        0.550760         3    ;  uncertainty k = 0.185355
        16        15        17        18     9      180.000000       -0.226456         4    ;  uncertainty k = 0.123800
        16        15        17        29     9        0.000000        0.835978         1    ;  uncertainty k = 0.971120
        16        15        17        29     9      180.000000        4.664329         2    ;  uncertainty k = 0.564770
        16        15        17        29     9        0.000000        1.192595         3    ;  uncertainty k = 0.333956
        16        15        17        29     9      180.000000        0.174318         4    ;  uncertainty k = 0.183197
        17        15        16        28     9        0.000000       -0.325467         1    ;  uncertainty k = 0.424572
        17        15        16        28     9      180.000000        6.621172         2    ;  uncertainty k = 0.214302
        17        15        16        28     9        0.000000        0.872683         3    ;  uncertainty k = 0.192744
        17        15        16        28     9      180.000000        0.945324         4    ;  uncertainty k = 0.191744
        17        18        20        30     9        0.000000       -1.115551         1    ;  uncertainty k = 0.327381
        17        18        20        30     9      180.000000        2.923209         2    ;  uncertainty k = 0.338883
        17        18        20        30     9        0.000000        0.243598         3    ;  uncertainty k = 0.074754
        17        18        20        30     9      180.000000        0.088804         4    ;  uncertainty k = 0.094674
        17        18        20        31     9        0.000000       -1.115551         1    ;  uncertainty k = 0.327381
        17        18        20        31     9      180.000000        2.923209         2    ;  uncertainty k = 0.338883
        17        18        20        31     9        0.000000        0.243598         3    ;  uncertainty k = 0.074754
        17        18        20        31     9      180.000000        0.088804         4    ;  uncertainty k = 0.094674
        17        18        20        33     9        0.000000       -1.504100         1    ;  uncertainty k = 0.395755
        17        18        20        33     9      180.000000        2.776666         2    ;  uncertainty k = 0.219421
        17        18        20        33     9        0.000000        0.479484         3    ;  uncertainty k = 0.153280
        17        18        20        33     9      180.000000        0.224853         4    ;  uncertainty k = 0.118278
        18        20        33        32     9        0.000000        0.771357         1    ;  uncertainty k = 0.767172
        18        20        33        32     9      180.000000        0.380423         2    ;  uncertainty k = 0.796798
        18        20        33        32     9        0.000000        1.135396         3    ;  uncertainty k = 0.184831
        18        20        33        32     9      180.000000        0.022882         4    ;  uncertainty k = 0.208294
        18        20        33        34     9        0.000000       -0.695608         1    ;  uncertainty k = 0.499144
        18        20        33        34     9      180.000000       -0.135483         2    ;  uncertainty k = 0.338752
        18        20        33        34     9        0.000000        0.791792         3    ;  uncertainty k = 0.255571
        18        20        33        34     9      180.000000       -0.106182         4    ;  uncertainty k = 0.182276
        18        20        33        35     9        0.000000       -0.695608         1    ;  uncertainty k = 0.499144
        18        20        33        35     9      180.000000       -0.135483         2    ;  uncertainty k = 0.338752
        18        20        33        35     9        0.000000        0.791792         3    ;  uncertainty k = 0.255571
        18        20        33        35     9      180.000000       -0.106182         4    ;  uncertainty k = 0.182276
        19        18        17        29     9        0.000000        3.090357         1    ;  uncertainty k = 0.849786
        19        18        17        29     9      180.000000       14.193872         2    ;  uncertainty k = 0.210284
        19        18        17        29     9        0.000000        0.958254         3    ;  uncertainty k = 0.213919
        19        18        17        29     9      180.000000       -0.342733         4    ;  uncertainty k = 0.234221
        19        18        20        30     9        0.000000       -0.060419         1    ;  uncertainty k = 0.311607
        19        18        20        30     9      180.000000        4.266108         2    ;  uncertainty k = 0.177879
        19        18        20        30     9        0.000000        0.609392         3    ;  uncertainty k = 0.068337
        19        18        20        30     9      180.000000        0.346344         4    ;  uncertainty k = 0.024165
        19        18        20        31     9        0.000000       -0.060419         1    ;  uncertainty k = 0.311607
        19        18        20        31     9      180.000000        4.266108         2    ;  uncertainty k = 0.177879
        19        18        20        31     9        0.000000        0.609392         3    ;  uncertainty k = 0.068337
        19        18        20        31     9      180.000000        0.346344         4    ;  uncertainty k = 0.024165
        19        18        20        33     9        0.000000       -0.960969         1    ;  uncertainty k = 0.480409
        19        18        20        33     9      180.000000        4.827604         2    ;  uncertainty k = 0.223375
        19        18        20        33     9        0.000000        0.761136         3    ;  uncertainty k = 0.221512
        19        18        20        33     9      180.000000        0.482825         4    ;  uncertainty k = 0.153544
        20        18        17        29     9        0.000000        0.330976         1    ;  uncertainty k = 1.041503
        20        18        17        29     9      180.000000        5.420847         2    ;  uncertainty k = 0.325077
        20        18        17        29     9        0.000000        1.641505         3    ;  uncertainty k = 0.154033
        20        18        17        29     9      180.000000        0.107594         4    ;  uncertainty k = 0.247894
        20        33        34        35     9        0.000000       62.391360         1    ;  uncertainty k = 0.376448
        20        33        34        35     9      180.000000       -2.127953         2    ;  uncertainty k = 2.828290
        20        33        34        35     9        0.000000      -10.766252         3    ;  uncertainty k = 0.649897
        20        33        34        35     9      180.000000        7.833761         4    ;  uncertainty k = 0.350681
        20        33        34        36     9        0.000000       -1.108250         1    ;  uncertainty k = 2.263965
        20        33        34        36     9      180.000000       -0.524325         2    ;  uncertainty k = 0.755770
        20        33        34        36     9        0.000000        0.664392         3    ;  uncertainty k = 0.368212
        20        33        34        36     9      180.000000       -0.905467         4    ;  uncertainty k = 0.107453
        20        33        34        37     9        0.000000       -1.108250         1    ;  uncertainty k = 2.263965
        20        33        34        37     9      180.000000       -0.524325         2    ;  uncertainty k = 0.755770
        20        33        34        37     9        0.000000        0.664392         3    ;  uncertainty k = 0.368212
        20        33        34        37     9      180.000000       -0.905467         4    ;  uncertainty k = 0.107453
        20        33        35        34     9        0.000000       62.391360         1    ;  uncertainty k = 0.376448
        20        33        35        34     9      180.000000       -2.127953         2    ;  uncertainty k = 2.828290
        20        33        35        34     9        0.000000      -10.766252         3    ;  uncertainty k = 0.649897
        20        33        35        34     9      180.000000        7.833761         4    ;  uncertainty k = 0.350681
        20        33        35        38     9        0.000000       -1.108250         1    ;  uncertainty k = 2.263965
        20        33        35        38     9      180.000000       -0.524325         2    ;  uncertainty k = 0.755770
        20        33        35        38     9        0.000000        0.664392         3    ;  uncertainty k = 0.368212
        20        33        35        38     9      180.000000       -0.905467         4    ;  uncertainty k = 0.107453
        20        33        35        39     9        0.000000       -1.108250         1    ;  uncertainty k = 2.263965
        20        33        35        39     9      180.000000       -0.524325         2    ;  uncertainty k = 0.755770
        20        33        35        39     9        0.000000        0.664392         3    ;  uncertainty k = 0.368212
        20        33        35        39     9      180.000000       -0.905467         4    ;  uncertainty k = 0.107453
        21         8        10        26     9        0.000000       -0.203688         1    ;  uncertainty k = 0.537167
        21         8        10        26     9      180.000000        7.741258         2    ;  uncertainty k = 0.413148
        21         8        10        26     9        0.000000        0.589378         3    ;  uncertainty k = 0.256365
        21         8        10        26     9      180.000000        1.098417         4    ;  uncertainty k = 0.232050
        22         3         9        25     9        0.000000        0.001385         1    ;  uncertainty k = 0.129514
        22         3         9        25     9      180.000000        7.970131         2    ;  uncertainty k = 0.421308
        22         3         9        25     9        0.000000       -0.442113         3    ;  uncertainty k = 0.230001
        22         3         9        25     9      180.000000        0.054396         4    ;  uncertainty k = 0.177102
        23         6         7        24     9        0.000000       -0.486927         1    ;  uncertainty k = 0.274037
        23         6         7        24     9      180.000000        6.750554         2    ;  uncertainty k = 0.157763
        23         6         7        24     9        0.000000        0.049287         3    ;  uncertainty k = 0.230238
        23         6         7        24     9      180.000000        0.424459         4    ;  uncertainty k = 0.124639
        25         9        10        26     9        0.000000        0.001385         1    ;  uncertainty k = 0.129514
        25         9        10        26     9      180.000000        7.970131         2    ;  uncertainty k = 0.421308
        25         9        10        26     9        0.000000       -0.442113         3    ;  uncertainty k = 0.230001
        25         9        10        26     9      180.000000        0.054396         4    ;  uncertainty k = 0.177102
        30        20        33        32     9        0.000000       -0.954512         1    ;  uncertainty k = 0.827612
        30        20        33        32     9      180.000000        0.129281         2    ;  uncertainty k = 0.489922
        30        20        33        32     9        0.000000        1.072355         3    ;  uncertainty k = 0.231717
        30        20        33        32     9      180.000000        0.081577         4    ;  uncertainty k = 0.177418
        30        20        33        34     9        0.000000       -0.000267         1    ;  uncertainty k = 0.534889
        30        20        33        34     9      180.000000        0.679678         2    ;  uncertainty k = 0.260386
        30        20        33        34     9        0.000000        1.047739         3    ;  uncertainty k = 0.148794
        30        20        33        34     9      180.000000        0.031687         4    ;  uncertainty k = 0.091554
        30        20        33        35     9        0.000000       -0.000267         1    ;  uncertainty k = 0.534889
        30        20        33        35     9      180.000000        0.679678         2    ;  uncertainty k = 0.260386
        30        20        33        35     9        0.000000        1.047739         3    ;  uncertainty k = 0.148794
        30        20        33        35     9      180.000000        0.031687         4    ;  uncertainty k = 0.091554
        31        20        33        32     9        0.000000       -0.954512         1    ;  uncertainty k = 0.827612
        31        20        33        32     9      180.000000        0.129281         2    ;  uncertainty k = 0.489922
        31        20        33        32     9        0.000000        1.072355         3    ;  uncertainty k = 0.231717
        31        20        33        32     9      180.000000        0.081577         4    ;  uncertainty k = 0.177418
        31        20        33        34     9        0.000000       -0.000267         1    ;  uncertainty k = 0.534889
        31        20        33        34     9      180.000000        0.679678         2    ;  uncertainty k = 0.260386
        31        20        33        34     9        0.000000        1.047739         3    ;  uncertainty k = 0.148794
        31        20        33        34     9      180.000000        0.031687         4    ;  uncertainty k = 0.091554
        31        20        33        35     9        0.000000       -0.000267         1    ;  uncertainty k = 0.534889
        31        20        33        35     9      180.000000        0.679678         2    ;  uncertainty k = 0.260386
        31        20        33        35     9        0.000000        1.047739         3    ;  uncertainty k = 0.148794
        31        20        33        35     9      180.000000        0.031687         4    ;  uncertainty k = 0.091554
        32        33        34        35     9        0.000000       47.231546         1    ;  uncertainty k = 0.210391
        32        33        34        35     9      180.000000       -2.358649         2    ;  uncertainty k = 1.672278
        32        33        34        35     9        0.000000      -10.467283         3    ;  uncertainty k = 0.912149
        32        33        34        35     9      180.000000        5.668002         4    ;  uncertainty k = 0.232803
        32        33        34        36     9        0.000000        0.217900         1    ;  uncertainty k = 0.832411
        32        33        34        36     9      180.000000       -1.595947         2    ;  uncertainty k = 1.190055
        32        33        34        36     9        0.000000        0.935532         3    ;  uncertainty k = 0.339649
        32        33        34        36     9      180.000000       -0.773127         4    ;  uncertainty k = 0.115869
        32        33        34        37     9        0.000000        0.217900         1    ;  uncertainty k = 0.832411
        32        33        34        37     9      180.000000       -1.595947         2    ;  uncertainty k = 1.190055
        32        33        34        37     9        0.000000        0.935532         3    ;  uncertainty k = 0.339649
        32        33        34        37     9      180.000000       -0.773127         4    ;  uncertainty k = 0.115869
        32        33        35        34     9        0.000000       47.231546         1    ;  uncertainty k = 0.210391
        32        33        35        34     9      180.000000       -2.358649         2    ;  uncertainty k = 1.672278
        32        33        35        34     9        0.000000      -10.467283         3    ;  uncertainty k = 0.912149
        32        33        35        34     9      180.000000        5.668002         4    ;  uncertainty k = 0.232803
        32        33        35        38     9        0.000000        0.217900         1    ;  uncertainty k = 0.832411
        32        33        35        38     9      180.000000       -1.595947         2    ;  uncertainty k = 1.190055
        32        33        35        38     9        0.000000        0.935532         3    ;  uncertainty k = 0.339649
        32        33        35        38     9      180.000000       -0.773127         4    ;  uncertainty k = 0.115869
        32        33        35        39     9        0.000000        0.217900         1    ;  uncertainty k = 0.832411
        32        33        35        39     9      180.000000       -1.595947         2    ;  uncertainty k = 1.190055
        32        33        35        39     9        0.000000        0.935532         3    ;  uncertainty k = 0.339649
        32        33        35        39     9      180.000000       -0.773127         4    ;  uncertainty k = 0.115869
        33        34        35        38     9        0.000000       42.078277         1    ;  uncertainty k = 0.504626
        33        34        35        38     9      180.000000       -5.306564         2    ;  uncertainty k = 1.796436
        33        34        35        38     9        0.000000      -10.070090         3    ;  uncertainty k = 0.733101
        33        34        35        38     9      180.000000        4.600997         4    ;  uncertainty k = 0.390494
        33        34        35        39     9        0.000000       42.078277         1    ;  uncertainty k = 0.504626
        33        34        35        39     9      180.000000       -5.306564         2    ;  uncertainty k = 1.796436
        33        34        35        39     9        0.000000      -10.070090         3    ;  uncertainty k = 0.733101
        33        34        35        39     9      180.000000        4.600997         4    ;  uncertainty k = 0.390494
        33        35        34        36     9        0.000000       42.078277         1    ;  uncertainty k = 0.504626
        33        35        34        36     9      180.000000       -5.306564         2    ;  uncertainty k = 1.796436
        33        35        34        36     9        0.000000      -10.070090         3    ;  uncertainty k = 0.733101
        33        35        34        36     9      180.000000        4.600997         4    ;  uncertainty k = 0.390494
        33        35        34        37     9        0.000000       42.078277         1    ;  uncertainty k = 0.504626
        33        35        34        37     9      180.000000       -5.306564         2    ;  uncertainty k = 1.796436
        33        35        34        37     9        0.000000      -10.070090         3    ;  uncertainty k = 0.733101
        33        35        34        37     9      180.000000        4.600997         4    ;  uncertainty k = 0.390494
        34        33        35        38     9        0.000000       43.647249         1    ;  uncertainty k = 0.359868
        34        33        35        38     9      180.000000       -3.733382         2    ;  uncertainty k = 1.132597
        34        33        35        38     9        0.000000      -10.157966         3    ;  uncertainty k = 0.912662
        34        33        35        38     9      180.000000        4.875646         4    ;  uncertainty k = 0.261893
        34        33        35        39     9        0.000000       43.647249         1    ;  uncertainty k = 0.359868
        34        33        35        39     9      180.000000       -3.733382         2    ;  uncertainty k = 1.132597
        34        33        35        39     9        0.000000      -10.157966         3    ;  uncertainty k = 0.912662
        34        33        35        39     9      180.000000        4.875646         4    ;  uncertainty k = 0.261893
        35        33        34        36     9        0.000000       43.647249         1    ;  uncertainty k = 0.359868
        35        33        34        36     9      180.000000       -3.733382         2    ;  uncertainty k = 1.132597
        35        33        34        36     9        0.000000      -10.157966         3    ;  uncertainty k = 0.912662
        35        33        34        36     9      180.000000        4.875646         4    ;  uncertainty k = 0.261893
        35        33        34        37     9        0.000000       43.647249         1    ;  uncertainty k = 0.359868
        35        33        34        37     9      180.000000       -3.733382         2    ;  uncertainty k = 1.132597
        35        33        34        37     9        0.000000      -10.157966         3    ;  uncertainty k = 0.912662
        35        33        34        37     9      180.000000        4.875646         4    ;  uncertainty k = 0.261893
        36        34        35        38     9        0.000000       -0.052451         1    ;  uncertainty k = 0.702426
        36        34        35        38     9      180.000000       -1.413666         2    ;  uncertainty k = 0.560193
        36        34        35        38     9        0.000000        0.954265         3    ;  uncertainty k = 0.331456
        36        34        35        38     9      180.000000       -0.701395         4    ;  uncertainty k = 0.092201
        36        34        35        39     9        0.000000       -0.052451         1    ;  uncertainty k = 0.702426
        36        34        35        39     9      180.000000       -1.413666         2    ;  uncertainty k = 0.560193
        36        34        35        39     9        0.000000        0.954265         3    ;  uncertainty k = 0.331456
        36        34        35        39     9      180.000000       -0.701395         4    ;  uncertainty k = 0.092201
        37        34        35        38     9        0.000000       -0.052451         1    ;  uncertainty k = 0.702426
        37        34        35        38     9      180.000000       -1.413666         2    ;  uncertainty k = 0.560193
        37        34        35        38     9        0.000000        0.954265         3    ;  uncertainty k = 0.331456
        37        34        35        38     9      180.000000       -0.701395         4    ;  uncertainty k = 0.092201
        37        34        35        39     9        0.000000       -0.052451         1    ;  uncertainty k = 0.702426
        37        34        35        39     9      180.000000       -1.413666         2    ;  uncertainty k = 0.560193
        37        34        35        39     9        0.000000        0.954265         3    ;  uncertainty k = 0.331456
        37        34        35        39     9      180.000000       -0.701395         4    ;  uncertainty k = 0.092201

[ dihedrals ] ; impropers
;       ai        aj        ak        al funct           phase               k        pn
         1         2         5         8     4      180.000000       12.616542         2    ;  uncertainty k = 0.387975
         1         5         8         2     4      180.000000       12.616542         2    ;  uncertainty k = 0.387975
         1         8         2         5     4      180.000000       12.616542         2    ;  uncertainty k = 0.387975
         2         1         3        11     4      180.000000       14.343354         2    ;  uncertainty k = 0.092046
         2         3        11         1     4      180.000000       14.343354         2    ;  uncertainty k = 0.092046
         2        11         1         3     4      180.000000       14.343354         2    ;  uncertainty k = 0.092046
         3         2         9        22     4      180.000000        3.308569         2    ;  uncertainty k = 0.185728
         3         9        22         2     4      180.000000        3.308569         2    ;  uncertainty k = 0.185728
         3        22         2         9     4      180.000000        3.308569         2    ;  uncertainty k = 0.185728
         4         6        13        16     4      180.000000       20.381320         2    ;  uncertainty k = 0.160244
         4        13        16         6     4      180.000000       20.381320         2    ;  uncertainty k = 0.160244
         4        16         6        13     4      180.000000       20.381320         2    ;  uncertainty k = 0.160244
         5         1        12        13     4      180.000000       56.020619         2    ;  uncertainty k = 0.087383
         5        12        13         1     4      180.000000       56.020619         2    ;  uncertainty k = 0.087383
         5        13         1        12     4      180.000000       56.020619         2    ;  uncertainty k = 0.087383
         6         4         7        23     4      180.000000        0.460309         2    ;  uncertainty k = 0.636565
         6         7        23         4     4      180.000000        0.460309         2    ;  uncertainty k = 0.636565
         6        23         4         7     4      180.000000        0.460309         2    ;  uncertainty k = 0.636565
         7         6        14        24     4      180.000000       14.099144         2    ;  uncertainty k = 0.120134
         7        14        24         6     4      180.000000       14.099144         2    ;  uncertainty k = 0.120134
         7        24         6        14     4      180.000000       14.099144         2    ;  uncertainty k = 0.120134
         8         1        10        21     4      180.000000       14.343354         2    ;  uncertainty k = 0.092046
         8        10        21         1     4      180.000000       14.343354         2    ;  uncertainty k = 0.092046
         8        21         1        10     4      180.000000       14.343354         2    ;  uncertainty k = 0.092046
         9         3        10        25     4      180.000000        4.523845         2    ;  uncertainty k = 0.130961
         9        10        25         3     4      180.000000        4.523845         2    ;  uncertainty k = 0.130961
         9        25         3        10     4      180.000000        4.523845         2    ;  uncertainty k = 0.130961
        10         8         9        26     4      180.000000        3.308569         2    ;  uncertainty k = 0.185728
        10         9        26         8     4      180.000000        3.308569         2    ;  uncertainty k = 0.185728
        10        26         8         9     4      180.000000        3.308569         2    ;  uncertainty k = 0.185728
        13         4         5        27     4      180.000000        0.483818         2    ;  uncertainty k = 0.576474
        13         5        27         4     4      180.000000        0.483818         2    ;  uncertainty k = 0.576474
        13        27         4         5     4      180.000000        0.483818         2    ;  uncertainty k = 0.576474
        15        14        16        17     4      180.000000       28.101676         2    ;  uncertainty k = 0.170114
        15        16        17        14     4      180.000000       28.101676         2    ;  uncertainty k = 0.170114
        15        17        14        16     4      180.000000       28.101676         2    ;  uncertainty k = 0.170114
        16         4        15        28     4      180.000000        1.166401         2    ;  uncertainty k = 0.905355
        16        15        28         4     4      180.000000        1.166401         2    ;  uncertainty k = 0.905355
        16        28         4        15     4      180.000000        1.166401         2    ;  uncertainty k = 0.905355
        17        15        18        29     4      180.000000        0.102670         2    ;  uncertainty k = 0.229577
        17        18        29        15     4      180.000000        0.102670         2    ;  uncertainty k = 0.229577
        17        29        15        18     4      180.000000        0.102670         2    ;  uncertainty k = 0.229577
        18        17        19        20     4      180.000000       55.312368         2    ;  uncertainty k = 0.023094
        18        19        20        17     4      180.000000       55.312368         2    ;  uncertainty k = 0.023094
        18        20        17        19     4      180.000000       55.312368         2    ;  uncertainty k = 0.023094

[ pairs ]
;       ai        aj funct
         1         4     1
         1         9     1
         1        22     1
         1        26     1
         1        27     1
         2        10     1
         2        12     1
         2        13     1
         2        21     1
         2        25     1
         3         5     1
         3         8     1
         3        26     1
         4        12     1
         4        14     1
         4        17     1
         4        24     1
         5         6     1
         5        10     1
         5        11     1
         5        16     1
         5        21     1
         6        15     1
         6        27     1
         6        28     1
         7        13     1
         7        16     1
         7        17     1
         8        11     1
         8        12     1
         8        13     1
         8        25     1
         9        11     1
         9        21     1
        10        22     1
        11        22     1
        12        27     1
        13        15     1
        13        23     1
        13        28     1
        14        18     1
        14        23     1
        14        28     1
        14        29     1
        15        19     1
        15        20     1
        15        24     1
        16        18     1
        16        23     1
        16        27     1
        16        29     1
        17        28     1
        17        30     1
        17        31     1
        17        33     1
        18        32     1
        18        34     1
        18        35     1
        19        29     1
        19        30     1
        19        31     1
        19        33     1
        20        29     1
        20        36     1
        20        37     1
        20        38     1
        20        39     1
        21        26     1
        22        25     1
        23        24     1
        25        26     1
        30        32     1
        30        34     1
        30        35     1
        31        32     1
        31        34     1
        31        35     1
        32        36     1
        32        37     1
        32        38     1
        32        39     1
        36        38     1
        36        39     1
        37        38     1
        37        39     1
