; ITP file created by ByteFF-joint-25, 2026-02-17 09:34:44.701617

[ atomtypes ]
;name           bonded.type        at.num        mass        charge   ptype           sigma         epsilon
 c0bf                                   6      0.0000       0.00000       A     3.31549e-01     4.13390e-01    ;  uncertainty sigma = 0.000035, epsilon = 0.000966
 c1bf                                   6      0.0000       0.00000       A     3.31564e-01     4.13135e-01    ;  uncertainty sigma = 0.000005, epsilon = 0.000387
 c2bf                                   6      0.0000       0.00000       A     3.31525e-01     4.13295e-01    ;  uncertainty sigma = 0.000005, epsilon = 0.000577
 c3bf                                   6      0.0000       0.00000       A     3.31520e-01     4.12649e-01    ;  uncertainty sigma = 0.000010, epsilon = 0.000842
 c4bf                                   6      0.0000       0.00000       A     3.31499e-01     4.12254e-01    ;  uncertainty sigma = 0.000028, epsilon = 0.000802
 c5bf                                   6      0.0000       0.00000       A     3.31522e-01     4.13552e-01    ;  uncertainty sigma = 0.000009, epsilon = 0.000904
 c6bf                                   6      0.0000       0.00000       A     3.31525e-01     4.13403e-01    ;  uncertainty sigma = 0.000005, epsilon = 0.000549
 c7bf                                   6      0.0000       0.00000       A     3.31564e-01     4.13135e-01    ;  uncertainty sigma = 0.000005, epsilon = 0.000387
 c8bf                                   6      0.0000       0.00000       A     3.31519e-01     4.13371e-01    ;  uncertainty sigma = 0.000005, epsilon = 0.000643
 c9bf                                   6      0.0000       0.00000       A     3.31525e-01     4.13295e-01    ;  uncertainty sigma = 0.000005, epsilon = 0.000577
 cl10bf                                17      0.0000       0.00000       A     3.46613e-01     1.10356e+00    ;  uncertainty sigma = 0.000025, epsilon = 0.001519
 o11bf                                  8      0.0000       0.00000       A     3.04792e-01     6.12550e-01    ;  uncertainty sigma = 0.000022, epsilon = 0.001345
 n12bf                                  7      0.0000       0.00000       A     3.27027e-01     4.91624e-01    ;  uncertainty sigma = 0.000027, epsilon = 0.002173
 n13bf                                  7      0.0000       0.00000       A     3.38415e-01     3.92275e-01    ;  uncertainty sigma = 0.000013, epsilon = 0.000847
 c14bf                                  6      0.0000       0.00000       A     3.31542e-01     4.12782e-01    ;  uncertainty sigma = 0.000019, epsilon = 0.000929
 c15bf                                  6      0.0000       0.00000       A     3.31527e-01     4.13287e-01    ;  uncertainty sigma = 0.000018, epsilon = 0.001430
 n16bf                                  7      0.0000       0.00000       A     3.26964e-01     4.89160e-01    ;  uncertainty sigma = 0.000028, epsilon = 0.001650
 c17bf                                  6      0.0000       0.00000       A     3.31480e-01     4.12282e-01    ;  uncertainty sigma = 0.000020, epsilon = 0.001202
 o18bf                                  8      0.0000       0.00000       A     3.04803e-01     6.12440e-01    ;  uncertainty sigma = 0.000017, epsilon = 0.001335
 cl19bf                                17      0.0000       0.00000       A     3.46613e-01     1.10356e+00    ;  uncertainty sigma = 0.000025, epsilon = 0.001519
 h20bf                                  1      0.0000       0.00000       A     2.62565e-01     6.70619e-02    ;  uncertainty sigma = 0.000008, epsilon = 0.000556
 h21bf                                  1      0.0000       0.00000       A     2.62534e-01     6.69704e-02    ;  uncertainty sigma = 0.000020, epsilon = 0.000545
 h22bf                                  1      0.0000       0.00000       A     2.53656e-01     6.70482e-02    ;  uncertainty sigma = 0.000017, epsilon = 0.000573
 h23bf                                  1      0.0000       0.00000       A     2.62568e-01     6.69546e-02    ;  uncertainty sigma = 0.000006, epsilon = 0.000527
 h24bf                                  1      0.0000       0.00000       A     2.62565e-01     6.70619e-02    ;  uncertainty sigma = 0.000008, epsilon = 0.000556
 h25bf                                  1      0.0000       0.00000       A     1.10697e-01     4.15615e-02    ;  uncertainty sigma = 0.000094, epsilon = 0.000787
 h26bf                                  1      0.0000       0.00000       A     2.62531e-01     6.69228e-02    ;  uncertainty sigma = 0.000026, epsilon = 0.000688
 h27bf                                  1      0.0000       0.00000       A     1.10588e-01     4.13598e-02    ;  uncertainty sigma = 0.000111, epsilon = 0.001352
 h28bf                                  1      0.0000       0.00000       A     1.10647e-01     4.12468e-02    ;  uncertainty sigma = 0.000081, epsilon = 0.000948
 n29bf                                  7      0.0000       0.00000       A     3.26950e-01     4.90850e-01    ;  uncertainty sigma = 0.000031, epsilon = 0.001472
 c30bf                                  6      0.0000       0.00000       A     3.39748e-01     4.50981e-01    ;  uncertainty sigma = 0.000007, epsilon = 0.000726
 h31bf                                  1      0.0000       0.00000       A     2.42190e-01     8.67779e-02    ;  uncertainty sigma = 0.000020, epsilon = 0.001021
 h32bf                                  1      0.0000       0.00000       A     2.42190e-01     8.67779e-02    ;  uncertainty sigma = 0.000020, epsilon = 0.001021
 c33bf                                  6      0.0000       0.00000       A     3.39759e-01     4.51002e-01    ;  uncertainty sigma = 0.000006, epsilon = 0.000706
 h34bf                                  1      0.0000       0.00000       A     2.60023e-01     8.68830e-02    ;  uncertainty sigma = 0.000007, epsilon = 0.000616
 h35bf                                  1      0.0000       0.00000       A     2.60023e-01     8.68830e-02    ;  uncertainty sigma = 0.000007, epsilon = 0.000616
 h36bf                                  1      0.0000       0.00000       A     2.60023e-01     8.68830e-02    ;  uncertainty sigma = 0.000007, epsilon = 0.000616

[ moleculetype ]
;name             nrexcl
 MOL                   3

[ atoms ]
;       nr            type      resi   res      atom      cgnr      charge          mass ; qtot
         1            c0bf         1   UNL        c0         1    -0.13673       12.0110 ; qtot   -0.137
         2            c1bf         1   UNL        c1         2     0.06477       12.0110 ; qtot   -0.072
         3            c2bf         1   UNL        c2         3    -0.12372       12.0110 ; qtot   -0.196
         4            c3bf         1   UNL        c3         4     0.13650       12.0110 ; qtot   -0.059
         5            c4bf         1   UNL        c4         5     0.70160       12.0110 ; qtot    0.642
         6            c5bf         1   UNL        c5         6    -0.31812       12.0110 ; qtot    0.324
         7            c6bf         1   UNL        c6         7     0.45476       12.0110 ; qtot    0.779
         8            c7bf         1   UNL        c7         8     0.06477       12.0110 ; qtot    0.844
         9            c8bf         1   UNL        c8         9    -0.09581       12.0110 ; qtot    0.748
        10            c9bf         1   UNL        c9        10    -0.12372       12.0110 ; qtot    0.624
        11          cl10bf         1   UNL      cl10        11    -0.09667       35.4530 ; qtot    0.528
        12           o11bf         1   UNL       o11        12    -0.55036       15.9990 ; qtot   -0.023
        13           n12bf         1   UNL       n12        13    -0.46533       14.0070 ; qtot   -0.488
        14           n13bf         1   UNL       n13        14    -0.73220       14.0070 ; qtot   -1.220
        15           c14bf         1   UNL       c14        15     0.57043       12.0110 ; qtot   -0.650
        16           c15bf         1   UNL       c15        16    -0.31301       12.0110 ; qtot   -0.963
        17           n16bf         1   UNL       n16        17    -0.57365       14.0070 ; qtot   -1.536
        18           c17bf         1   UNL       c17        18     0.78270       12.0110 ; qtot   -0.754
        19           o18bf         1   UNL       o18        19    -0.60487       15.9990 ; qtot   -1.359
        20          cl19bf         1   UNL      cl19        20    -0.09667       35.4530 ; qtot   -1.455
        21           h20bf         1   UNL       h20        21     0.15894        1.0080 ; qtot   -1.296
        22           h21bf         1   UNL       h21        22     0.16313        1.0080 ; qtot   -1.133
        23           h22bf         1   UNL       h22        23     0.01919        1.0080 ; qtot   -1.114
        24           h23bf         1   UNL       h23        24     0.14278        1.0080 ; qtot   -0.971
        25           h24bf         1   UNL       h24        25     0.15894        1.0080 ; qtot   -0.812
        26           h25bf         1   UNL       h25        26     0.33920        1.0080 ; qtot   -0.473
        27           h26bf         1   UNL       h26        27     0.18069        1.0080 ; qtot   -0.292
        28           h27bf         1   UNL       h27        28     0.33135        1.0080 ; qtot    0.039
        29           h28bf         1   UNL       h28        29     0.31702        1.0080 ; qtot    0.356
        30           n29bf         1   UNL       n29        30    -0.57603       14.0070 ; qtot   -0.220
        31           c30bf         1   UNL       c30        31     0.10262       12.0110 ; qtot   -0.118
        32           h31bf         1   UNL       h31        32     0.05439        1.0080 ; qtot   -0.063
        33           h32bf         1   UNL       h32        33     0.05439        1.0080 ; qtot   -0.009
        34           c33bf         1   UNL       c33        34    -0.11613       12.0110 ; qtot   -0.125
        35           h34bf         1   UNL       h34        35     0.04163        1.0080 ; qtot   -0.083
        36           h35bf         1   UNL       h35        36     0.04163        1.0080 ; qtot   -0.042
        37           h36bf         1   UNL       h36        37     0.04159        1.0080 ; qtot   -0.000

[ bonds ]
;       ai        aj funct               r               k
         1         2     1        0.139920   314205.988965    ;  uncertainty r = 0.000059, k = 10.355889
         1         5     1        0.151314   265032.676025    ;  uncertainty r = 0.000141, k = 25.452716
         1         8     1        0.139920   314205.988965    ;  uncertainty r = 0.000059, k = 10.355889
         2         3     1        0.139442   359146.551563    ;  uncertainty r = 0.000054, k = 3.481137
         2        11     1        0.175360   192488.234717    ;  uncertainty r = 0.000074, k = 4.279805
         3         9     1        0.139292   379946.297314    ;  uncertainty r = 0.000031, k = 1.315137
         3        21     1        0.108683   334938.061377    ;  uncertainty r = 0.000015, k = 0.960770
         4         6     1        0.140570   376090.806689    ;  uncertainty r = 0.000061, k = 6.523252
         4        13     1        0.140706   335244.481152    ;  uncertainty r = 0.000185, k = 14.115330
         4        16     1        0.139848   380234.841113    ;  uncertainty r = 0.000058, k = 5.351002
         5        12     1        0.122846   748673.427441    ;  uncertainty r = 0.000143, k = 20.391507
         5        13     1        0.137342   285190.010254    ;  uncertainty r = 0.000166, k = 14.492660
         6         7     1        0.139660   375491.680566    ;  uncertainty r = 0.000079, k = 13.453144
         6        22     1        0.108729   340462.427637    ;  uncertainty r = 0.000049, k = 2.577688
         7        14     1        0.134028   391968.019238    ;  uncertainty r = 0.000072, k = 10.120063
         7        23     1        0.108903   331910.688135    ;  uncertainty r = 0.000036, k = 1.905640
         8        10     1        0.139442   359146.551563    ;  uncertainty r = 0.000054, k = 3.481137
         8        20     1        0.175360   192488.234717    ;  uncertainty r = 0.000074, k = 4.279805
         9        10     1        0.139292   379946.297314    ;  uncertainty r = 0.000031, k = 1.315137
         9        24     1        0.108720   333853.628027    ;  uncertainty r = 0.000011, k = 1.678519
        10        25     1        0.108683   334938.061377    ;  uncertainty r = 0.000015, k = 0.960770
        13        26     1        0.101831   422627.387549    ;  uncertainty r = 0.000095, k = 5.435166
        14        15     1        0.135017   470200.443066    ;  uncertainty r = 0.000067, k = 8.227705
        15        16     1        0.140491   365147.031689    ;  uncertainty r = 0.000177, k = 17.424333
        15        17     1        0.140819   490277.054492    ;  uncertainty r = 0.000193, k = 14.689536
        16        27     1        0.108744   342739.622754    ;  uncertainty r = 0.000064, k = 4.910806
        17        18     1        0.141014   475520.589063    ;  uncertainty r = 0.000082, k = 15.626038
        17        28     1        0.102138   470008.761523    ;  uncertainty r = 0.000038, k = 5.915499
        18        19     1        0.124054   894762.598633    ;  uncertainty r = 0.000191, k = 18.536288
        18        30     1        0.138132   344377.675098    ;  uncertainty r = 0.000037, k = 11.524334
        29        30     1        0.101736   419345.332715    ;  uncertainty r = 0.000069, k = 2.455635
        30        31     1        0.146033   255955.152979    ;  uncertainty r = 0.000119, k = 2.942362
        31        32     1        0.109436   305684.791846    ;  uncertainty r = 0.000038, k = 2.306055
        31        33     1        0.109436   305684.791846    ;  uncertainty r = 0.000038, k = 2.306055
        31        34     1        0.153709   230467.968652    ;  uncertainty r = 0.000040, k = 5.005677
        34        35     1        0.109615   310676.837061    ;  uncertainty r = 0.000021, k = 1.758427
        34        36     1        0.109615   310676.837061    ;  uncertainty r = 0.000021, k = 1.758427
        34        37     1        0.109615   310676.837061    ;  uncertainty r = 0.000021, k = 1.758427

[ angles ]
;       ai        aj        ak funct           theta             cth
         1         2         3     1      124.614235      359.881075    ;  uncertainty theta = 0.007318, k = 0.141141
         1         2        11     1      117.122276      401.475760    ;  uncertainty theta = 0.004274, k = 0.169678
         1         5        12     1      122.451149      457.836639    ;  uncertainty theta = 0.012324, k = 0.396747
         1         5        13     1      112.777939      397.551185    ;  uncertainty theta = 0.004296, k = 0.197514
         1         8        10     1      124.614235      359.881075    ;  uncertainty theta = 0.007318, k = 0.141141
         1         8        20     1      117.122276      401.475760    ;  uncertainty theta = 0.004274, k = 0.169678
         2         1         5     1      120.701454      353.629431    ;  uncertainty theta = 0.013311, k = 0.275393
         2         1         8     1      120.699013      430.079652    ;  uncertainty theta = 0.009492, k = 0.209916
         2         3         9     1      118.495155      498.161267    ;  uncertainty theta = 0.004039, k = 0.062916
         2         3        21     1      120.521286      283.386643    ;  uncertainty theta = 0.002118, k = 0.065156
         3         2        11     1      119.919701      462.386458    ;  uncertainty theta = 0.001017, k = 0.162558
         3         9        10     1      119.368362      506.538875    ;  uncertainty theta = 0.002463, k = 0.055814
         3         9        24     1      119.878922      281.614496    ;  uncertainty theta = 0.001408, k = 0.030814
         4         6         7     1      115.739685      478.573602    ;  uncertainty theta = 0.004925, k = 0.048676
         4         6        22     1      120.342453      269.550669    ;  uncertainty theta = 0.001665, k = 0.097098
         4        13         5     1      117.316322      446.625912    ;  uncertainty theta = 0.002594, k = 0.143032
         4        13        26     1      113.569641      313.594043    ;  uncertainty theta = 0.004804, k = 0.335936
         4        16        15     1      114.602798      487.778389    ;  uncertainty theta = 0.010454, k = 0.186929
         4        16        27     1      120.945068      272.279788    ;  uncertainty theta = 0.003620, k = 0.174822
         5         1         8     1      120.701454      353.629431    ;  uncertainty theta = 0.013311, k = 0.275393
         5        13        26     1      116.863647      359.759902    ;  uncertainty theta = 0.004202, k = 0.178017
         6         4        13     1      120.717148      522.791043    ;  uncertainty theta = 0.004408, k = 0.164372
         6         4        16     1      117.491722      394.093332    ;  uncertainty theta = 0.006402, k = 0.202468
         6         7        14     1      123.598862      695.630412    ;  uncertainty theta = 0.003519, k = 0.085936
         6         7        23     1      120.074997      274.168737    ;  uncertainty theta = 0.001842, k = 0.112779
         7         6        22     1      122.550827      311.952454    ;  uncertainty theta = 0.002566, k = 0.162360
         7        14        15     1      113.235916      421.437990    ;  uncertainty theta = 0.008137, k = 0.222851
         8        10         9     1      118.495155      498.161267    ;  uncertainty theta = 0.004039, k = 0.062916
         8        10        25     1      120.521286      283.386643    ;  uncertainty theta = 0.002118, k = 0.065156
         9         3        21     1      121.431229      283.380802    ;  uncertainty theta = 0.000813, k = 0.055588
         9        10        25     1      121.431229      283.380802    ;  uncertainty theta = 0.000813, k = 0.055588
        10         8        20     1      119.919701      462.386458    ;  uncertainty theta = 0.001017, k = 0.162558
        10         9        24     1      119.878922      281.614496    ;  uncertainty theta = 0.001408, k = 0.030814
        12         5        13     1      122.021950      773.152841    ;  uncertainty theta = 0.004688, k = 0.191943
        13         4        16     1      120.298668      523.067067    ;  uncertainty theta = 0.005717, k = 0.149420
        14         7        23     1      115.960648      320.921725    ;  uncertainty theta = 0.002271, k = 0.118444
        14        15        16     1      122.853249      546.491906    ;  uncertainty theta = 0.008463, k = 0.220815
        14        15        17     1      120.189026      751.248960    ;  uncertainty theta = 0.003946, k = 0.092314
        15        16        27     1      121.746536      278.546978    ;  uncertainty theta = 0.005056, k = 0.148254
        15        17        18     1      121.881241      441.329451    ;  uncertainty theta = 0.004785, k = 0.084394
        15        17        28     1      116.864807      328.571207    ;  uncertainty theta = 0.003575, k = 0.330173
        16        15        17     1      121.453468      577.959818    ;  uncertainty theta = 0.006207, k = 0.238471
        17        18        19     1      125.419106      715.055342    ;  uncertainty theta = 0.005752, k = 0.164752
        17        18        30     1      114.136131      660.393224    ;  uncertainty theta = 0.006746, k = 0.111387
        18        17        28     1      118.082520      272.010244    ;  uncertainty theta = 0.004158, k = 0.363920
        18        30        29     1      115.247597      326.303958    ;  uncertainty theta = 0.002889, k = 0.161972
        18        30        31     1      115.715309      431.955672    ;  uncertainty theta = 0.002989, k = 0.100065
        19        18        30     1      126.318871      771.939126    ;  uncertainty theta = 0.003398, k = 0.139557
        29        30        31     1      112.200623      325.975679    ;  uncertainty theta = 0.005627, k = 0.234149
        30        31        32     1      106.780235      444.620163    ;  uncertainty theta = 0.002107, k = 0.078731
        30        31        33     1      106.780235      444.620163    ;  uncertainty theta = 0.002107, k = 0.078731
        30        31        34     1      111.273354      670.762312    ;  uncertainty theta = 0.001894, k = 0.113729
        31        34        35     1      108.109253      416.138242    ;  uncertainty theta = 0.001401, k = 0.043309
        31        34        36     1      108.109253      416.138242    ;  uncertainty theta = 0.001401, k = 0.043309
        31        34        37     1      108.109253      416.138242    ;  uncertainty theta = 0.001401, k = 0.043309
        32        31        33     1      105.346756      316.142711    ;  uncertainty theta = 0.002205, k = 0.030388
        32        31        34     1      108.774780      413.581339    ;  uncertainty theta = 0.001346, k = 0.028947
        33        31        34     1      108.774780      413.581339    ;  uncertainty theta = 0.001346, k = 0.028947
        35        34        36     1      105.231339      314.016874    ;  uncertainty theta = 0.002165, k = 0.023055
        35        34        37     1      105.231339      314.016874    ;  uncertainty theta = 0.002165, k = 0.023055
        36        34        37     1      105.231339      314.016906    ;  uncertainty theta = 0.002165, k = 0.023055

[ dihedrals ] ; propers for gromacs 4.5 or higher, use funct 9
;       ai        aj        ak        al funct           phase               k        pn
         1         2         3         9     9        0.000000        0.129562         1    ;  uncertainty k = 0.258537
         1         2         3         9     9      180.000000        9.006461         2    ;  uncertainty k = 0.178121
         1         2         3         9     9        0.000000        0.010291         3    ;  uncertainty k = 0.509158
         1         2         3         9     9      180.000000        1.179148         4    ;  uncertainty k = 0.340357
         1         2         3        21     9        0.000000        0.017749         1    ;  uncertainty k = 0.506174
         1         2         3        21     9      180.000000        5.847178         2    ;  uncertainty k = 0.808481
         1         2         3        21     9        0.000000        1.301869         3    ;  uncertainty k = 0.271599
         1         2         3        21     9      180.000000        1.572515         4    ;  uncertainty k = 0.163634
         1         5        13         4     9        0.000000        4.012883         1    ;  uncertainty k = 0.741994
         1         5        13         4     9      180.000000       10.050056         2    ;  uncertainty k = 0.176781
         1         5        13         4     9        0.000000        1.524529         3    ;  uncertainty k = 0.439697
         1         5        13         4     9      180.000000       -1.034114         4    ;  uncertainty k = 0.394406
         1         5        13        26     9        0.000000        0.286201         1    ;  uncertainty k = 0.970625
         1         5        13        26     9      180.000000        4.591571         2    ;  uncertainty k = 0.675511
         1         5        13        26     9        0.000000        1.269715         3    ;  uncertainty k = 0.289099
         1         5        13        26     9      180.000000        0.225446         4    ;  uncertainty k = 0.265035
         1         8        10         9     9        0.000000        0.129562         1    ;  uncertainty k = 0.258537
         1         8        10         9     9      180.000000        9.006461         2    ;  uncertainty k = 0.178121
         1         8        10         9     9        0.000000        0.010291         3    ;  uncertainty k = 0.509158
         1         8        10         9     9      180.000000        1.179148         4    ;  uncertainty k = 0.340357
         1         8        10        25     9        0.000000        0.017749         1    ;  uncertainty k = 0.506174
         1         8        10        25     9      180.000000        5.847178         2    ;  uncertainty k = 0.808481
         1         8        10        25     9        0.000000        1.301869         3    ;  uncertainty k = 0.271599
         1         8        10        25     9      180.000000        1.572515         4    ;  uncertainty k = 0.163634
         2         1         5        12     9        0.000000       -0.938458         1    ;  uncertainty k = 0.721948
         2         1         5        12     9      180.000000        3.726943         2    ;  uncertainty k = 0.367149
         2         1         5        12     9        0.000000        0.533107         3    ;  uncertainty k = 0.173933
         2         1         5        12     9      180.000000        0.129066         4    ;  uncertainty k = 0.152302
         2         1         5        13     9        0.000000        1.636802         1    ;  uncertainty k = 0.717500
         2         1         5        13     9      180.000000        0.794893         2    ;  uncertainty k = 0.489697
         2         1         5        13     9        0.000000        0.486371         3    ;  uncertainty k = 0.368442
         2         1         5        13     9      180.000000       -0.111126         4    ;  uncertainty k = 0.129000
         2         1         8        10     9        0.000000        0.157030         1    ;  uncertainty k = 0.251028
         2         1         8        10     9      180.000000        6.621005         2    ;  uncertainty k = 0.890169
         2         1         8        10     9        0.000000        0.446154         3    ;  uncertainty k = 0.192247
         2         1         8        10     9      180.000000        1.346016         4    ;  uncertainty k = 0.373704
         2         1         8        20     9        0.000000        0.044095         1    ;  uncertainty k = 0.788675
         2         1         8        20     9      180.000000        8.268702         2    ;  uncertainty k = 0.180496
         2         1         8        20     9        0.000000        1.453925         3    ;  uncertainty k = 0.378329
         2         1         8        20     9      180.000000        1.534665         4    ;  uncertainty k = 0.225736
         2         3         9        10     9        0.000000        0.056957         1    ;  uncertainty k = 0.125369
         2         3         9        10     9      180.000000       14.284910         2    ;  uncertainty k = 0.214373
         2         3         9        10     9        0.000000       -1.022656         3    ;  uncertainty k = 0.417280
         2         3         9        10     9      180.000000        0.771729         4    ;  uncertainty k = 0.212175
         2         3         9        24     9        0.000000        0.083384         1    ;  uncertainty k = 0.200417
         2         3         9        24     9      180.000000        7.197642         2    ;  uncertainty k = 0.253695
         2         3         9        24     9        0.000000        1.438769         3    ;  uncertainty k = 0.264288
         2         3         9        24     9      180.000000        1.864824         4    ;  uncertainty k = 0.166987
         3         2         1         5     9        0.000000        0.540121         1    ;  uncertainty k = 0.659361
         3         2         1         5     9      180.000000        6.952584         2    ;  uncertainty k = 0.900726
         3         2         1         5     9        0.000000        1.504339         3    ;  uncertainty k = 0.227715
         3         2         1         5     9      180.000000        1.691626         4    ;  uncertainty k = 0.279736
         3         2         1         8     9        0.000000        0.157030         1    ;  uncertainty k = 0.251028
         3         2         1         8     9      180.000000        6.621005         2    ;  uncertainty k = 0.890169
         3         2         1         8     9        0.000000        0.446154         3    ;  uncertainty k = 0.192247
         3         2         1         8     9      180.000000        1.346016         4    ;  uncertainty k = 0.373704
         3         9        10         8     9        0.000000        0.056957         1    ;  uncertainty k = 0.125369
         3         9        10         8     9      180.000000       14.284910         2    ;  uncertainty k = 0.214373
         3         9        10         8     9        0.000000       -1.022656         3    ;  uncertainty k = 0.417280
         3         9        10         8     9      180.000000        0.771729         4    ;  uncertainty k = 0.212175
         3         9        10        25     9        0.000000        0.071341         1    ;  uncertainty k = 0.156537
         3         9        10        25     9      180.000000        7.824333         2    ;  uncertainty k = 0.388735
         3         9        10        25     9        0.000000        1.476015         3    ;  uncertainty k = 0.262591
         3         9        10        25     9      180.000000        1.800034         4    ;  uncertainty k = 0.168947
         4         6         7        14     9        0.000000       -0.183863         1    ;  uncertainty k = 0.213772
         4         6         7        14     9      180.000000       15.644148         2    ;  uncertainty k = 0.440658
         4         6         7        14     9        0.000000       -1.133986         3    ;  uncertainty k = 0.306686
         4         6         7        14     9      180.000000        0.817875         4    ;  uncertainty k = 0.183487
         4         6         7        23     9        0.000000       -0.488021         1    ;  uncertainty k = 0.352061
         4         6         7        23     9      180.000000        6.981430         2    ;  uncertainty k = 0.581321
         4         6         7        23     9        0.000000        1.147582         3    ;  uncertainty k = 0.230024
         4         6         7        23     9      180.000000        1.407164         4    ;  uncertainty k = 0.046480
         4        13         5        12     9        0.000000        3.184547         1    ;  uncertainty k = 1.295174
         4        13         5        12     9      180.000000       13.546940         2    ;  uncertainty k = 0.231063
         4        13         5        12     9        0.000000        0.722658         3    ;  uncertainty k = 0.182961
         4        13         5        12     9      180.000000       -0.666531         4    ;  uncertainty k = 0.131850
         4        16        15        14     9        0.000000       -0.435667         1    ;  uncertainty k = 0.233815
         4        16        15        14     9      180.000000       10.090456         2    ;  uncertainty k = 0.414111
         4        16        15        14     9        0.000000       -0.388849         3    ;  uncertainty k = 0.655800
         4        16        15        14     9      180.000000        1.034627         4    ;  uncertainty k = 0.088063
         4        16        15        17     9        0.000000       -0.078995         1    ;  uncertainty k = 0.650448
         4        16        15        17     9      180.000000        8.665216         2    ;  uncertainty k = 0.529306
         4        16        15        17     9        0.000000        0.941666         3    ;  uncertainty k = 0.330262
         4        16        15        17     9      180.000000        1.225529         4    ;  uncertainty k = 0.484956
         5         1         2        11     9        0.000000        0.293529         1    ;  uncertainty k = 1.201193
         5         1         2        11     9      180.000000        8.809351         2    ;  uncertainty k = 0.492509
         5         1         2        11     9        0.000000        1.507479         3    ;  uncertainty k = 0.181959
         5         1         2        11     9      180.000000        1.331521         4    ;  uncertainty k = 0.158721
         5         1         8        10     9        0.000000        0.540121         1    ;  uncertainty k = 0.659361
         5         1         8        10     9      180.000000        6.952584         2    ;  uncertainty k = 0.900726
         5         1         8        10     9        0.000000        1.504339         3    ;  uncertainty k = 0.227715
         5         1         8        10     9      180.000000        1.691626         4    ;  uncertainty k = 0.279736
         5         1         8        20     9        0.000000        0.293529         1    ;  uncertainty k = 1.201193
         5         1         8        20     9      180.000000        8.809351         2    ;  uncertainty k = 0.492509
         5         1         8        20     9        0.000000        1.507479         3    ;  uncertainty k = 0.181959
         5         1         8        20     9      180.000000        1.331521         4    ;  uncertainty k = 0.158721
         5        13         4         6     9        0.000000        0.671405         1    ;  uncertainty k = 0.779653
         5        13         4         6     9      180.000000        5.171684         2    ;  uncertainty k = 0.343054
         5        13         4         6     9        0.000000        0.900418         3    ;  uncertainty k = 0.162472
         5        13         4         6     9      180.000000        0.037683         4    ;  uncertainty k = 0.022188
         5        13         4        16     9        0.000000        0.749233         1    ;  uncertainty k = 0.529609
         5        13         4        16     9      180.000000        5.522806         2    ;  uncertainty k = 0.434573
         5        13         4        16     9        0.000000        0.891397         3    ;  uncertainty k = 0.132689
         5        13         4        16     9      180.000000        0.013136         4    ;  uncertainty k = 0.119269
         6         4        13        26     9        0.000000        1.029279         1    ;  uncertainty k = 1.463602
         6         4        13        26     9      180.000000        5.196719         2    ;  uncertainty k = 0.208685
         6         4        13        26     9        0.000000        0.851853         3    ;  uncertainty k = 0.351032
         6         4        13        26     9      180.000000        0.326889         4    ;  uncertainty k = 0.129780
         6         4        16        15     9        0.000000        0.018395         1    ;  uncertainty k = 0.345068
         6         4        16        15     9      180.000000       10.227174         2    ;  uncertainty k = 0.406362
         6         4        16        15     9        0.000000       -0.330797         3    ;  uncertainty k = 0.158432
         6         4        16        15     9      180.000000        1.146005         4    ;  uncertainty k = 0.301184
         6         4        16        27     9        0.000000        0.501532         1    ;  uncertainty k = 0.508780
         6         4        16        27     9      180.000000        7.849815         2    ;  uncertainty k = 0.433477
         6         4        16        27     9        0.000000        1.415952         3    ;  uncertainty k = 0.266573
         6         4        16        27     9      180.000000        1.561542         4    ;  uncertainty k = 0.223196
         6         7        14        15     9        0.000000       -0.452817         1    ;  uncertainty k = 0.369322
         6         7        14        15     9      180.000000       14.558995         2    ;  uncertainty k = 0.334061
         6         7        14        15     9        0.000000        0.669484         3    ;  uncertainty k = 0.428363
         6         7        14        15     9      180.000000        1.305233         4    ;  uncertainty k = 0.277518
         7         6         4        13     9        0.000000       -0.156685         1    ;  uncertainty k = 0.327783
         7         6         4        13     9      180.000000       10.573743         2    ;  uncertainty k = 0.368407
         7         6         4        13     9        0.000000        0.699890         3    ;  uncertainty k = 0.295405
         7         6         4        13     9      180.000000        1.371703         4    ;  uncertainty k = 0.342554
         7         6         4        16     9        0.000000       -0.256653         1    ;  uncertainty k = 0.408149
         7         6         4        16     9      180.000000       10.372467         2    ;  uncertainty k = 0.281250
         7         6         4        16     9        0.000000       -0.504752         3    ;  uncertainty k = 0.469033
         7         6         4        16     9      180.000000        1.116344         4    ;  uncertainty k = 0.127642
         7        14        15        16     9        0.000000       -0.443057         1    ;  uncertainty k = 0.624791
         7        14        15        16     9      180.000000       11.721957         2    ;  uncertainty k = 0.722929
         7        14        15        16     9        0.000000        0.970711         3    ;  uncertainty k = 0.630311
         7        14        15        16     9      180.000000        1.392787         4    ;  uncertainty k = 0.295088
         7        14        15        17     9        0.000000        0.010818         1    ;  uncertainty k = 1.254537
         7        14        15        17     9      180.000000       15.832093         2    ;  uncertainty k = 0.222578
         7        14        15        17     9        0.000000        2.032941         3    ;  uncertainty k = 0.270055
         7        14        15        17     9      180.000000        1.666251         4    ;  uncertainty k = 0.398208
         8         1         2        11     9        0.000000        0.044095         1    ;  uncertainty k = 0.788675
         8         1         2        11     9      180.000000        8.268702         2    ;  uncertainty k = 0.180496
         8         1         2        11     9        0.000000        1.453925         3    ;  uncertainty k = 0.378329
         8         1         2        11     9      180.000000        1.534665         4    ;  uncertainty k = 0.225736
         8         1         5        12     9        0.000000       -0.938458         1    ;  uncertainty k = 0.721948
         8         1         5        12     9      180.000000        3.726943         2    ;  uncertainty k = 0.367149
         8         1         5        12     9        0.000000        0.533107         3    ;  uncertainty k = 0.173933
         8         1         5        12     9      180.000000        0.129066         4    ;  uncertainty k = 0.152302
         8         1         5        13     9        0.000000        1.636802         1    ;  uncertainty k = 0.717500
         8         1         5        13     9      180.000000        0.794893         2    ;  uncertainty k = 0.489697
         8         1         5        13     9        0.000000        0.486371         3    ;  uncertainty k = 0.368442
         8         1         5        13     9      180.000000       -0.111126         4    ;  uncertainty k = 0.129000
         8        10         9        24     9        0.000000        0.083384         1    ;  uncertainty k = 0.200417
         8        10         9        24     9      180.000000        7.197642         2    ;  uncertainty k = 0.253695
         8        10         9        24     9        0.000000        1.438769         3    ;  uncertainty k = 0.264288
         8        10         9        24     9      180.000000        1.864824         4    ;  uncertainty k = 0.166987
         9         3         2        11     9        0.000000       -0.125974         1    ;  uncertainty k = 0.141879
         9         3         2        11     9      180.000000        9.826857         2    ;  uncertainty k = 0.423980
         9         3         2        11     9        0.000000        1.360528         3    ;  uncertainty k = 0.293318
         9         3         2        11     9      180.000000        1.645146         4    ;  uncertainty k = 0.120261
         9        10         8        20     9        0.000000       -0.125974         1    ;  uncertainty k = 0.141879
         9        10         8        20     9      180.000000        9.826857         2    ;  uncertainty k = 0.423980
         9        10         8        20     9        0.000000        1.360528         3    ;  uncertainty k = 0.293318
         9        10         8        20     9      180.000000        1.645146         4    ;  uncertainty k = 0.120261
        10         9         3        21     9        0.000000        0.071341         1    ;  uncertainty k = 0.156537
        10         9         3        21     9      180.000000        7.824333         2    ;  uncertainty k = 0.388735
        10         9         3        21     9        0.000000        1.476015         3    ;  uncertainty k = 0.262591
        10         9         3        21     9      180.000000        1.800034         4    ;  uncertainty k = 0.168947
        11         2         3        21     9        0.000000       -0.203688         1    ;  uncertainty k = 0.537167
        11         2         3        21     9      180.000000        7.741258         2    ;  uncertainty k = 0.413148
        11         2         3        21     9        0.000000        0.589378         3    ;  uncertainty k = 0.256365
        11         2         3        21     9      180.000000        1.098417         4    ;  uncertainty k = 0.232050
        12         5        13        26     9        0.000000        2.754751         1    ;  uncertainty k = 1.678083
        12         5        13        26     9      180.000000       15.343140         2    ;  uncertainty k = 0.287199
        12         5        13        26     9        0.000000        1.862099         3    ;  uncertainty k = 0.346350
        12         5        13        26     9      180.000000       -0.086397         4    ;  uncertainty k = 0.341591
        13         4         6        22     9        0.000000       -0.319544         1    ;  uncertainty k = 0.345314
        13         4         6        22     9      180.000000        8.037585         2    ;  uncertainty k = 0.455395
        13         4         6        22     9        0.000000        0.835277         3    ;  uncertainty k = 0.138723
        13         4         6        22     9      180.000000        1.127271         4    ;  uncertainty k = 0.123904
        13         4        16        15     9        0.000000       -0.052660         1    ;  uncertainty k = 0.588566
        13         4        16        15     9      180.000000       12.091779         2    ;  uncertainty k = 0.793929
        13         4        16        15     9        0.000000        0.846167         3    ;  uncertainty k = 0.321461
        13         4        16        15     9      180.000000        1.274812         4    ;  uncertainty k = 0.685693
        13         4        16        27     9        0.000000       -0.281645         1    ;  uncertainty k = 0.453118
        13         4        16        27     9      180.000000        8.896765         2    ;  uncertainty k = 0.422363
        13         4        16        27     9        0.000000        0.895381         3    ;  uncertainty k = 0.162875
        13         4        16        27     9      180.000000        1.187862         4    ;  uncertainty k = 0.192121
        14         7         6        22     9        0.000000        0.120325         1    ;  uncertainty k = 0.184220
        14         7         6        22     9      180.000000       10.119501         2    ;  uncertainty k = 0.377655
        14         7         6        22     9        0.000000        1.028370         3    ;  uncertainty k = 0.340077
        14         7         6        22     9      180.000000        1.744682         4    ;  uncertainty k = 0.170642
        14        15        16        27     9        0.000000        0.556587         1    ;  uncertainty k = 0.665265
        14        15        16        27     9      180.000000        7.881290         2    ;  uncertainty k = 0.710953
        14        15        16        27     9        0.000000        1.162363         3    ;  uncertainty k = 0.269514
        14        15        16        27     9      180.000000        1.413661         4    ;  uncertainty k = 0.217569
        14        15        17        18     9        0.000000        1.699836         1    ;  uncertainty k = 1.652992
        14        15        17        18     9      180.000000        7.190005         2    ;  uncertainty k = 0.466418
        14        15        17        18     9        0.000000        1.109694         3    ;  uncertainty k = 0.244982
        14        15        17        18     9      180.000000       -0.278224         4    ;  uncertainty k = 0.195873
        14        15        17        28     9        0.000000        6.059128         1    ;  uncertainty k = 1.322462
        14        15        17        28     9      180.000000        5.456273         2    ;  uncertainty k = 0.924852
        14        15        17        28     9        0.000000        0.284089         3    ;  uncertainty k = 0.144794
        14        15        17        28     9      180.000000       -0.043893         4    ;  uncertainty k = 0.215703
        15        14         7        23     9        0.000000       -0.249956         1    ;  uncertainty k = 0.469786
        15        14         7        23     9      180.000000       15.014773         2    ;  uncertainty k = 0.475346
        15        14         7        23     9        0.000000        1.987497         3    ;  uncertainty k = 0.748178
        15        14         7        23     9      180.000000        1.264518         4    ;  uncertainty k = 0.385552
        15        17        18        19     9        0.000000        5.667091         1    ;  uncertainty k = 1.071258
        15        17        18        19     9      180.000000        9.754984         2    ;  uncertainty k = 0.364109
        15        17        18        19     9        0.000000        0.826157         3    ;  uncertainty k = 0.179056
        15        17        18        19     9      180.000000       -0.661118         4    ;  uncertainty k = 0.365499
        15        17        18        30     9        0.000000        4.309667         1    ;  uncertainty k = 0.945958
        15        17        18        30     9      180.000000        6.789622         2    ;  uncertainty k = 0.225004
        15        17        18        30     9        0.000000        0.465844         3    ;  uncertainty k = 0.190628
        15        17        18        30     9      180.000000       -0.216867         4    ;  uncertainty k = 0.115449
        16         4         6        22     9        0.000000        0.269347         1    ;  uncertainty k = 0.329310
        16         4         6        22     9      180.000000        7.222318         2    ;  uncertainty k = 0.652461
        16         4         6        22     9        0.000000        1.359779         3    ;  uncertainty k = 0.266287
        16         4         6        22     9      180.000000        1.467677         4    ;  uncertainty k = 0.134418
        16         4        13        26     9        0.000000        2.132336         1    ;  uncertainty k = 1.420085
        16         4        13        26     9      180.000000        5.518901         2    ;  uncertainty k = 0.409327
        16         4        13        26     9        0.000000        0.787680         3    ;  uncertainty k = 0.393601
        16         4        13        26     9      180.000000        0.264246         4    ;  uncertainty k = 0.113859
        16        15        17        18     9        0.000000        1.094028         1    ;  uncertainty k = 1.543767
        16        15        17        18     9      180.000000        6.191893         2    ;  uncertainty k = 0.202854
        16        15        17        18     9        0.000000        0.650089         3    ;  uncertainty k = 0.255939
        16        15        17        18     9      180.000000       -0.280236         4    ;  uncertainty k = 0.152185
        16        15        17        28     9        0.000000        0.486880         1    ;  uncertainty k = 1.394913
        16        15        17        28     9      180.000000        4.906390         2    ;  uncertainty k = 0.461195
        16        15        17        28     9        0.000000        1.035576         3    ;  uncertainty k = 0.292409
        16        15        17        28     9      180.000000       -0.054969         4    ;  uncertainty k = 0.243377
        17        15        16        27     9        0.000000       -0.360753         1    ;  uncertainty k = 0.382608
        17        15        16        27     9      180.000000        6.639091         2    ;  uncertainty k = 0.571606
        17        15        16        27     9        0.000000        0.758522         3    ;  uncertainty k = 0.276426
        17        15        16        27     9      180.000000        0.927158         4    ;  uncertainty k = 0.254295
        17        18        30        29     9        0.000000        3.795618         1    ;  uncertainty k = 1.092365
        17        18        30        29     9      180.000000        5.101808         2    ;  uncertainty k = 0.816242
        17        18        30        29     9        0.000000        1.075286         3    ;  uncertainty k = 0.306858
        17        18        30        29     9      180.000000       -0.125404         4    ;  uncertainty k = 0.335327
        17        18        30        31     9        0.000000        8.916829         1    ;  uncertainty k = 0.849995
        17        18        30        31     9      180.000000        8.723030         2    ;  uncertainty k = 0.300524
        17        18        30        31     9        0.000000        0.891164         3    ;  uncertainty k = 0.256581
        17        18        30        31     9      180.000000       -0.251875         4    ;  uncertainty k = 0.250886
        18        30        31        32     9        0.000000        1.021859         1    ;  uncertainty k = 0.673700
        18        30        31        32     9      180.000000       -1.130618         2    ;  uncertainty k = 0.430181
        18        30        31        32     9        0.000000        0.398397         3    ;  uncertainty k = 0.110840
        18        30        31        32     9      180.000000        0.313741         4    ;  uncertainty k = 0.069932
        18        30        31        33     9        0.000000        1.021859         1    ;  uncertainty k = 0.673700
        18        30        31        33     9      180.000000       -1.130618         2    ;  uncertainty k = 0.430181
        18        30        31        33     9        0.000000        0.398397         3    ;  uncertainty k = 0.110840
        18        30        31        33     9      180.000000        0.313741         4    ;  uncertainty k = 0.069932
        18        30        31        34     9        0.000000       -0.607450         1    ;  uncertainty k = 0.400712
        18        30        31        34     9      180.000000       -0.458366         2    ;  uncertainty k = 0.257019
        18        30        31        34     9        0.000000        0.467180         3    ;  uncertainty k = 0.244040
        18        30        31        34     9      180.000000        0.357665         4    ;  uncertainty k = 0.083698
        19        18        17        28     9        0.000000        1.086232         1    ;  uncertainty k = 0.737840
        19        18        17        28     9      180.000000        7.020711         2    ;  uncertainty k = 0.566807
        19        18        17        28     9        0.000000        1.159622         3    ;  uncertainty k = 0.247561
        19        18        17        28     9      180.000000       -0.274935         4    ;  uncertainty k = 0.366409
        19        18        30        29     9        0.000000        2.674743         1    ;  uncertainty k = 0.854626
        19        18        30        29     9      180.000000       12.257954         2    ;  uncertainty k = 0.148429
        19        18        30        29     9        0.000000        1.917444         3    ;  uncertainty k = 0.167695
        19        18        30        29     9      180.000000       -0.453316         4    ;  uncertainty k = 0.230975
        19        18        30        31     9        0.000000        6.699650         1    ;  uncertainty k = 0.967357
        19        18        30        31     9      180.000000       11.195878         2    ;  uncertainty k = 0.217111
        19        18        30        31     9        0.000000        0.461764         3    ;  uncertainty k = 0.182721
        19        18        30        31     9      180.000000        0.069818         4    ;  uncertainty k = 0.186586
        20         8        10        25     9        0.000000       -0.203688         1    ;  uncertainty k = 0.537167
        20         8        10        25     9      180.000000        7.741258         2    ;  uncertainty k = 0.413148
        20         8        10        25     9        0.000000        0.589378         3    ;  uncertainty k = 0.256365
        20         8        10        25     9      180.000000        1.098417         4    ;  uncertainty k = 0.232050
        21         3         9        24     9        0.000000        0.001385         1    ;  uncertainty k = 0.129514
        21         3         9        24     9      180.000000        7.970131         2    ;  uncertainty k = 0.421308
        21         3         9        24     9        0.000000       -0.442113         3    ;  uncertainty k = 0.230001
        21         3         9        24     9      180.000000        0.054396         4    ;  uncertainty k = 0.177102
        22         6         7        23     9        0.000000       -0.486927         1    ;  uncertainty k = 0.274037
        22         6         7        23     9      180.000000        6.750554         2    ;  uncertainty k = 0.157763
        22         6         7        23     9        0.000000        0.049287         3    ;  uncertainty k = 0.230238
        22         6         7        23     9      180.000000        0.424459         4    ;  uncertainty k = 0.124639
        24         9        10        25     9        0.000000        0.001385         1    ;  uncertainty k = 0.129514
        24         9        10        25     9      180.000000        7.970131         2    ;  uncertainty k = 0.421308
        24         9        10        25     9        0.000000       -0.442113         3    ;  uncertainty k = 0.230001
        24         9        10        25     9      180.000000        0.054396         4    ;  uncertainty k = 0.177102
        28        17        18        30     9        0.000000        0.471047         1    ;  uncertainty k = 0.713011
        28        17        18        30     9      180.000000        4.383307         2    ;  uncertainty k = 0.507151
        28        17        18        30     9        0.000000        0.937080         3    ;  uncertainty k = 0.179620
        28        17        18        30     9      180.000000       -0.243352         4    ;  uncertainty k = 0.084955
        29        30        31        32     9        0.000000        0.527682         1    ;  uncertainty k = 0.250059
        29        30        31        32     9      180.000000       -1.420742         2    ;  uncertainty k = 0.173621
        29        30        31        32     9        0.000000        0.196140         3    ;  uncertainty k = 0.070485
        29        30        31        32     9      180.000000        0.165269         4    ;  uncertainty k = 0.083536
        29        30        31        33     9        0.000000        0.527682         1    ;  uncertainty k = 0.250059
        29        30        31        33     9      180.000000       -1.420742         2    ;  uncertainty k = 0.173621
        29        30        31        33     9        0.000000        0.196140         3    ;  uncertainty k = 0.070485
        29        30        31        33     9      180.000000        0.165269         4    ;  uncertainty k = 0.083536
        29        30        31        34     9        0.000000        0.504594         1    ;  uncertainty k = 0.557592
        29        30        31        34     9      180.000000       -2.091800         2    ;  uncertainty k = 0.148895
        29        30        31        34     9        0.000000        0.451721         3    ;  uncertainty k = 0.226894
        29        30        31        34     9      180.000000        0.095401         4    ;  uncertainty k = 0.073656
        30        31        34        35     9        0.000000       -1.437307         1    ;  uncertainty k = 0.402243
        30        31        34        35     9      180.000000       -1.892203         2    ;  uncertainty k = 0.282492
        30        31        34        35     9        0.000000        1.854971         3    ;  uncertainty k = 0.027690
        30        31        34        35     9      180.000000       -0.221976         4    ;  uncertainty k = 0.088127
        30        31        34        36     9        0.000000       -1.437307         1    ;  uncertainty k = 0.402243
        30        31        34        36     9      180.000000       -1.892203         2    ;  uncertainty k = 0.282492
        30        31        34        36     9        0.000000        1.854971         3    ;  uncertainty k = 0.027690
        30        31        34        36     9      180.000000       -0.221976         4    ;  uncertainty k = 0.088127
        30        31        34        37     9        0.000000       -1.437307         1    ;  uncertainty k = 0.402243
        30        31        34        37     9      180.000000       -1.892203         2    ;  uncertainty k = 0.282492
        30        31        34        37     9        0.000000        1.854971         3    ;  uncertainty k = 0.027690
        30        31        34        37     9      180.000000       -0.221976         4    ;  uncertainty k = 0.088127
        32        31        34        35     9        0.000000        0.363965         1    ;  uncertainty k = 0.218146
        32        31        34        35     9      180.000000       -0.327238         2    ;  uncertainty k = 0.229016
        32        31        34        35     9        0.000000        0.630585         3    ;  uncertainty k = 0.023849
        32        31        34        35     9      180.000000       -0.057874         4    ;  uncertainty k = 0.026088
        32        31        34        36     9        0.000000        0.363965         1    ;  uncertainty k = 0.218146
        32        31        34        36     9      180.000000       -0.327238         2    ;  uncertainty k = 0.229016
        32        31        34        36     9        0.000000        0.630585         3    ;  uncertainty k = 0.023849
        32        31        34        36     9      180.000000       -0.057874         4    ;  uncertainty k = 0.026088
        32        31        34        37     9        0.000000        0.363965         1    ;  uncertainty k = 0.218146
        32        31        34        37     9      180.000000       -0.327238         2    ;  uncertainty k = 0.229016
        32        31        34        37     9        0.000000        0.630585         3    ;  uncertainty k = 0.023849
        32        31        34        37     9      180.000000       -0.057874         4    ;  uncertainty k = 0.026088
        33        31        34        35     9        0.000000        0.363965         1    ;  uncertainty k = 0.218146
        33        31        34        35     9      180.000000       -0.327238         2    ;  uncertainty k = 0.229016
        33        31        34        35     9        0.000000        0.630585         3    ;  uncertainty k = 0.023849
        33        31        34        35     9      180.000000       -0.057874         4    ;  uncertainty k = 0.026088
        33        31        34        36     9        0.000000        0.363965         1    ;  uncertainty k = 0.218146
        33        31        34        36     9      180.000000       -0.327238         2    ;  uncertainty k = 0.229016
        33        31        34        36     9        0.000000        0.630585         3    ;  uncertainty k = 0.023849
        33        31        34        36     9      180.000000       -0.057874         4    ;  uncertainty k = 0.026088
        33        31        34        37     9        0.000000        0.363965         1    ;  uncertainty k = 0.218146
        33        31        34        37     9      180.000000       -0.327238         2    ;  uncertainty k = 0.229016
        33        31        34        37     9        0.000000        0.630585         3    ;  uncertainty k = 0.023849
        33        31        34        37     9      180.000000       -0.057874         4    ;  uncertainty k = 0.026088

[ dihedrals ] ; impropers
;       ai        aj        ak        al funct           phase               k        pn
         1         2         5         8     4      180.000000       12.616542         2    ;  uncertainty k = 0.387975
         1         5         8         2     4      180.000000       12.616542         2    ;  uncertainty k = 0.387975
         1         8         2         5     4      180.000000       12.616542         2    ;  uncertainty k = 0.387975
         2         1         3        11     4      180.000000       14.343354         2    ;  uncertainty k = 0.092046
         2         3        11         1     4      180.000000       14.343354         2    ;  uncertainty k = 0.092046
         2        11         1         3     4      180.000000       14.343354         2    ;  uncertainty k = 0.092046
         3         2         9        21     4      180.000000        3.308569         2    ;  uncertainty k = 0.185728
         3         9        21         2     4      180.000000        3.308569         2    ;  uncertainty k = 0.185728
         3        21         2         9     4      180.000000        3.308569         2    ;  uncertainty k = 0.185728
         4         6        13        16     4      180.000000       20.442509         2    ;  uncertainty k = 0.161643
         4        13        16         6     4      180.000000       20.442509         2    ;  uncertainty k = 0.161643
         4        16         6        13     4      180.000000       20.442509         2    ;  uncertainty k = 0.161643
         5         1        12        13     4      180.000000       56.020619         2    ;  uncertainty k = 0.087383
         5        12        13         1     4      180.000000       56.020619         2    ;  uncertainty k = 0.087383
         5        13         1        12     4      180.000000       56.020619         2    ;  uncertainty k = 0.087383
         6         4         7        22     4      180.000000        0.460309         2    ;  uncertainty k = 0.636565
         6         7        22         4     4      180.000000        0.460309         2    ;  uncertainty k = 0.636565
         6        22         4         7     4      180.000000        0.460309         2    ;  uncertainty k = 0.636565
         7         6        14        23     4      180.000000       14.135293         2    ;  uncertainty k = 0.128999
         7        14        23         6     4      180.000000       14.135293         2    ;  uncertainty k = 0.128999
         7        23         6        14     4      180.000000       14.135293         2    ;  uncertainty k = 0.128999
         8         1        10        20     4      180.000000       14.343354         2    ;  uncertainty k = 0.092046
         8        10        20         1     4      180.000000       14.343354         2    ;  uncertainty k = 0.092046
         8        20         1        10     4      180.000000       14.343354         2    ;  uncertainty k = 0.092046
         9         3        10        24     4      180.000000        4.523845         2    ;  uncertainty k = 0.130961
         9        10        24         3     4      180.000000        4.523845         2    ;  uncertainty k = 0.130961
         9        24         3        10     4      180.000000        4.523845         2    ;  uncertainty k = 0.130961
        10         8         9        25     4      180.000000        3.308569         2    ;  uncertainty k = 0.185728
        10         9        25         8     4      180.000000        3.308569         2    ;  uncertainty k = 0.185728
        10        25         8         9     4      180.000000        3.308569         2    ;  uncertainty k = 0.185728
        13         4         5        26     4      180.000000        0.483818         2    ;  uncertainty k = 0.576474
        13         5        26         4     4      180.000000        0.483818         2    ;  uncertainty k = 0.576474
        13        26         4         5     4      180.000000        0.483818         2    ;  uncertainty k = 0.576474
        15        14        16        17     4      180.000000       28.853619         2    ;  uncertainty k = 0.162305
        15        16        17        14     4      180.000000       28.853619         2    ;  uncertainty k = 0.162305
        15        17        14        16     4      180.000000       28.853619         2    ;  uncertainty k = 0.162305
        16         4        15        27     4      180.000000        0.966369         2    ;  uncertainty k = 0.810645
        16        15        27         4     4      180.000000        0.966369         2    ;  uncertainty k = 0.810645
        16        27         4        15     4      180.000000        0.966369         2    ;  uncertainty k = 0.810645
        17        15        18        28     4      180.000000        0.781351         2    ;  uncertainty k = 0.586954
        17        18        28        15     4      180.000000        0.781351         2    ;  uncertainty k = 0.586954
        17        28        15        18     4      180.000000        0.781351         2    ;  uncertainty k = 0.586954
        18        17        19        30     4      180.000000       61.102200         2    ;  uncertainty k = 0.039700
        18        19        30        17     4      180.000000       61.102200         2    ;  uncertainty k = 0.039700
        18        30        17        19     4      180.000000       61.102200         2    ;  uncertainty k = 0.039700
        30        18        29        31     4      180.000000        0.612148         2    ;  uncertainty k = 0.633299
        30        29        31        18     4      180.000000        0.612148         2    ;  uncertainty k = 0.633299
        30        31        18        29     4      180.000000        0.612148         2    ;  uncertainty k = 0.633299

[ pairs ]
;       ai        aj funct
         1         4     1
         1         9     1
         1        21     1
         1        25     1
         1        26     1
         2        10     1
         2        12     1
         2        13     1
         2        20     1
         2        24     1
         3         5     1
         3         8     1
         3        25     1
         4        12     1
         4        14     1
         4        17     1
         4        23     1
         5         6     1
         5        10     1
         5        11     1
         5        16     1
         5        20     1
         6        15     1
         6        26     1
         6        27     1
         7        13     1
         7        16     1
         7        17     1
         8        11     1
         8        12     1
         8        13     1
         8        24     1
         9        11     1
         9        20     1
        10        21     1
        11        21     1
        12        26     1
        13        15     1
        13        22     1
        13        27     1
        14        18     1
        14        22     1
        14        27     1
        14        28     1
        15        19     1
        15        23     1
        15        30     1
        16        18     1
        16        22     1
        16        26     1
        16        28     1
        17        27     1
        17        29     1
        17        31     1
        18        32     1
        18        33     1
        18        34     1
        19        28     1
        19        29     1
        19        31     1
        20        25     1
        21        24     1
        22        23     1
        24        25     1
        28        30     1
        29        32     1
        29        33     1
        29        34     1
        30        35     1
        30        36     1
        30        37     1
        32        35     1
        32        36     1
        32        37     1
        33        35     1
        33        36     1
        33        37     1
