; ITP file created by ByteFF-joint-25, 2026-02-17 09:33:09.296732

[ atomtypes ]
;name           bonded.type        at.num        mass        charge   ptype           sigma         epsilon
 c0bf                                   6      0.0000       0.00000       A     3.31549e-01     4.13390e-01    ;  uncertainty sigma = 0.000035, epsilon = 0.000966
 c1bf                                   6      0.0000       0.00000       A     3.31564e-01     4.13135e-01    ;  uncertainty sigma = 0.000005, epsilon = 0.000387
 c2bf                                   6      0.0000       0.00000       A     3.31525e-01     4.13295e-01    ;  uncertainty sigma = 0.000005, epsilon = 0.000577
 c3bf                                   6      0.0000       0.00000       A     3.31520e-01     4.12649e-01    ;  uncertainty sigma = 0.000010, epsilon = 0.000842
 c4bf                                   6      0.0000       0.00000       A     3.31499e-01     4.12254e-01    ;  uncertainty sigma = 0.000028, epsilon = 0.000802
 c5bf                                   6      0.0000       0.00000       A     3.31522e-01     4.13552e-01    ;  uncertainty sigma = 0.000009, epsilon = 0.000904
 c6bf                                   6      0.0000       0.00000       A     3.31525e-01     4.13403e-01    ;  uncertainty sigma = 0.000005, epsilon = 0.000549
 c7bf                                   6      0.0000       0.00000       A     3.31564e-01     4.13135e-01    ;  uncertainty sigma = 0.000005, epsilon = 0.000387
 c8bf                                   6      0.0000       0.00000       A     3.31519e-01     4.13371e-01    ;  uncertainty sigma = 0.000005, epsilon = 0.000643
 c9bf                                   6      0.0000       0.00000       A     3.31525e-01     4.13295e-01    ;  uncertainty sigma = 0.000005, epsilon = 0.000577
 cl10bf                                17      0.0000       0.00000       A     3.46613e-01     1.10356e+00    ;  uncertainty sigma = 0.000025, epsilon = 0.001519
 o11bf                                  8      0.0000       0.00000       A     3.04792e-01     6.12550e-01    ;  uncertainty sigma = 0.000022, epsilon = 0.001345
 n12bf                                  7      0.0000       0.00000       A     3.27027e-01     4.91624e-01    ;  uncertainty sigma = 0.000027, epsilon = 0.002173
 n13bf                                  7      0.0000       0.00000       A     3.38409e-01     3.92211e-01    ;  uncertainty sigma = 0.000016, epsilon = 0.000850
 c14bf                                  6      0.0000       0.00000       A     3.31547e-01     4.12317e-01    ;  uncertainty sigma = 0.000016, epsilon = 0.000762
 c15bf                                  6      0.0000       0.00000       A     3.31528e-01     4.13239e-01    ;  uncertainty sigma = 0.000022, epsilon = 0.001205
 n16bf                                  7      0.0000       0.00000       A     3.27039e-01     4.90143e-01    ;  uncertainty sigma = 0.000015, epsilon = 0.000582
 c17bf                                  6      0.0000       0.00000       A     3.31533e-01     4.13734e-01    ;  uncertainty sigma = 0.000019, epsilon = 0.001495
 o18bf                                  8      0.0000       0.00000       A     3.04841e-01     6.12651e-01    ;  uncertainty sigma = 0.000011, epsilon = 0.001440
 cl19bf                                17      0.0000       0.00000       A     3.46613e-01     1.10356e+00    ;  uncertainty sigma = 0.000025, epsilon = 0.001519
 h20bf                                  1      0.0000       0.00000       A     2.62565e-01     6.70619e-02    ;  uncertainty sigma = 0.000008, epsilon = 0.000556
 h21bf                                  1      0.0000       0.00000       A     2.62534e-01     6.69704e-02    ;  uncertainty sigma = 0.000020, epsilon = 0.000545
 h22bf                                  1      0.0000       0.00000       A     2.53656e-01     6.70482e-02    ;  uncertainty sigma = 0.000017, epsilon = 0.000573
 h23bf                                  1      0.0000       0.00000       A     2.62568e-01     6.69546e-02    ;  uncertainty sigma = 0.000006, epsilon = 0.000527
 h24bf                                  1      0.0000       0.00000       A     2.62565e-01     6.70619e-02    ;  uncertainty sigma = 0.000008, epsilon = 0.000556
 h25bf                                  1      0.0000       0.00000       A     1.10697e-01     4.15615e-02    ;  uncertainty sigma = 0.000094, epsilon = 0.000787
 h26bf                                  1      0.0000       0.00000       A     2.62531e-01     6.69228e-02    ;  uncertainty sigma = 0.000026, epsilon = 0.000688
 h27bf                                  1      0.0000       0.00000       A     1.10690e-01     4.14702e-02    ;  uncertainty sigma = 0.000119, epsilon = 0.000922
 c28bf                                  6      0.0000       0.00000       A     3.31519e-01     4.13331e-01    ;  uncertainty sigma = 0.000003, epsilon = 0.000569
 c29bf                                  6      0.0000       0.00000       A     3.31514e-01     4.13415e-01    ;  uncertainty sigma = 0.000001, epsilon = 0.000614
 c30bf                                  6      0.0000       0.00000       A     3.31524e-01     4.13465e-01    ;  uncertainty sigma = 0.000003, epsilon = 0.000552
 c31bf                                  6      0.0000       0.00000       A     3.31495e-01     4.13169e-01    ;  uncertainty sigma = 0.000008, epsilon = 0.000907
 c32bf                                  6      0.0000       0.00000       A     3.31524e-01     4.13465e-01    ;  uncertainty sigma = 0.000003, epsilon = 0.000552
 c33bf                                  6      0.0000       0.00000       A     3.31514e-01     4.13415e-01    ;  uncertainty sigma = 0.000001, epsilon = 0.000614
 h34bf                                  1      0.0000       0.00000       A     2.62552e-01     6.70646e-02    ;  uncertainty sigma = 0.000011, epsilon = 0.000453
 h35bf                                  1      0.0000       0.00000       A     2.62558e-01     6.70323e-02    ;  uncertainty sigma = 0.000010, epsilon = 0.000442
 h36bf                                  1      0.0000       0.00000       A     2.62550e-01     6.70182e-02    ;  uncertainty sigma = 0.000010, epsilon = 0.000665
 h37bf                                  1      0.0000       0.00000       A     2.62550e-01     6.70182e-02    ;  uncertainty sigma = 0.000010, epsilon = 0.000665
 h38bf                                  1      0.0000       0.00000       A     2.62558e-01     6.70322e-02    ;  uncertainty sigma = 0.000010, epsilon = 0.000442

[ moleculetype ]
;name             nrexcl
 MOL                   3

[ atoms ]
;       nr            type      resi   res      atom      cgnr      charge          mass ; qtot
         1            c0bf         1   UNL        c0         1    -0.13673       12.0110 ; qtot   -0.137
         2            c1bf         1   UNL        c1         2     0.06477       12.0110 ; qtot   -0.072
         3            c2bf         1   UNL        c2         3    -0.12372       12.0110 ; qtot   -0.196
         4            c3bf         1   UNL        c3         4     0.13647       12.0110 ; qtot   -0.059
         5            c4bf         1   UNL        c4         5     0.70160       12.0110 ; qtot    0.642
         6            c5bf         1   UNL        c5         6    -0.31812       12.0110 ; qtot    0.324
         7            c6bf         1   UNL        c6         7     0.45420       12.0110 ; qtot    0.778
         8            c7bf         1   UNL        c7         8     0.06477       12.0110 ; qtot    0.843
         9            c8bf         1   UNL        c8         9    -0.09581       12.0110 ; qtot    0.747
        10            c9bf         1   UNL        c9        10    -0.12372       12.0110 ; qtot    0.624
        11          cl10bf         1   UNL      cl10        11    -0.09667       35.4530 ; qtot    0.527
        12           o11bf         1   UNL       o11        12    -0.55036       15.9990 ; qtot   -0.023
        13           n12bf         1   UNL       n12        13    -0.46533       14.0070 ; qtot   -0.489
        14           n13bf         1   UNL       n13        14    -0.72273       14.0070 ; qtot   -1.211
        15           c14bf         1   UNL       c14        15     0.55906       12.0110 ; qtot   -0.652
        16           c15bf         1   UNL       c15        16    -0.30683       12.0110 ; qtot   -0.959
        17           n16bf         1   UNL       n16        17    -0.56098       14.0070 ; qtot   -1.520
        18           c17bf         1   UNL       c17        18     0.69646       12.0110 ; qtot   -0.824
        19           o18bf         1   UNL       o18        19    -0.56472       15.9990 ; qtot   -1.388
        20          cl19bf         1   UNL      cl19        20    -0.09667       35.4530 ; qtot   -1.485
        21           h20bf         1   UNL       h20        21     0.15894        1.0080 ; qtot   -1.326
        22           h21bf         1   UNL       h21        22     0.16313        1.0080 ; qtot   -1.163
        23           h22bf         1   UNL       h22        23     0.01919        1.0080 ; qtot   -1.144
        24           h23bf         1   UNL       h23        24     0.14278        1.0080 ; qtot   -1.001
        25           h24bf         1   UNL       h24        25     0.15894        1.0080 ; qtot   -0.842
        26           h25bf         1   UNL       h25        26     0.33920        1.0080 ; qtot   -0.503
        27           h26bf         1   UNL       h26        27     0.18166        1.0080 ; qtot   -0.321
        28           h27bf         1   UNL       h27        28     0.33533        1.0080 ; qtot    0.014
        29           c28bf         1   UNL       c28        29    -0.10530       12.0110 ; qtot   -0.091
        30           c29bf         1   UNL       c29        30    -0.13755       12.0110 ; qtot   -0.229
        31           c30bf         1   UNL       c30        31    -0.08508       12.0110 ; qtot   -0.314
        32           c31bf         1   UNL       c31        32    -0.15573       12.0110 ; qtot   -0.470
        33           c32bf         1   UNL       c32        33    -0.08508       12.0110 ; qtot   -0.555
        34           c33bf         1   UNL       c33        34    -0.13755       12.0110 ; qtot   -0.692
        35           h34bf         1   UNL       h34        35     0.13198        1.0080 ; qtot   -0.560
        36           h35bf         1   UNL       h35        36     0.13611        1.0080 ; qtot   -0.424
        37           h36bf         1   UNL       h36        37     0.14399        1.0080 ; qtot   -0.280
        38           h37bf         1   UNL       h37        38     0.14399        1.0080 ; qtot   -0.136
        39           h38bf         1   UNL       h38        39     0.13611        1.0080 ; qtot   -0.000

[ bonds ]
;       ai        aj funct               r               k
         1         2     1        0.139920   314205.988965    ;  uncertainty r = 0.000059, k = 10.355889
         1         5     1        0.151314   265032.676025    ;  uncertainty r = 0.000141, k = 25.452716
         1         8     1        0.139920   314205.988965    ;  uncertainty r = 0.000059, k = 10.355889
         2         3     1        0.139442   359146.551563    ;  uncertainty r = 0.000054, k = 3.481137
         2        11     1        0.175360   192488.234717    ;  uncertainty r = 0.000074, k = 4.279805
         3         9     1        0.139292   379946.297314    ;  uncertainty r = 0.000031, k = 1.315137
         3        21     1        0.108683   334938.061377    ;  uncertainty r = 0.000015, k = 0.960770
         4         6     1        0.140570   376090.806689    ;  uncertainty r = 0.000061, k = 6.523252
         4        13     1        0.140706   335244.481152    ;  uncertainty r = 0.000185, k = 14.115330
         4        16     1        0.139880   379635.204248    ;  uncertainty r = 0.000086, k = 3.557976
         5        12     1        0.122846   748673.427441    ;  uncertainty r = 0.000143, k = 20.391507
         5        13     1        0.137342   285190.010254    ;  uncertainty r = 0.000166, k = 14.492660
         6         7     1        0.139660   375491.680566    ;  uncertainty r = 0.000079, k = 13.453144
         6        22     1        0.108729   340462.427637    ;  uncertainty r = 0.000049, k = 2.577688
         7        14     1        0.133974   391899.477637    ;  uncertainty r = 0.000090, k = 10.418752
         7        23     1        0.108903   331910.688135    ;  uncertainty r = 0.000036, k = 1.905640
         8        10     1        0.139442   359146.551563    ;  uncertainty r = 0.000054, k = 3.481137
         8        20     1        0.175360   192488.234717    ;  uncertainty r = 0.000074, k = 4.279805
         9        10     1        0.139292   379946.297314    ;  uncertainty r = 0.000031, k = 1.315137
         9        24     1        0.108720   333853.628027    ;  uncertainty r = 0.000011, k = 1.678519
        10        25     1        0.108683   334938.061377    ;  uncertainty r = 0.000015, k = 0.960770
        13        26     1        0.101831   422627.387549    ;  uncertainty r = 0.000095, k = 5.435166
        14        15     1        0.134801   449917.798242    ;  uncertainty r = 0.000111, k = 14.788483
        15        16     1        0.140390   358460.854639    ;  uncertainty r = 0.000187, k = 20.596444
        15        17     1        0.141062   474657.077246    ;  uncertainty r = 0.000125, k = 7.849843
        16        27     1        0.108717   342869.810937    ;  uncertainty r = 0.000076, k = 4.697558
        17        18     1        0.138694   367869.210937    ;  uncertainty r = 0.000016, k = 21.519086
        17        28     1        0.101809   468434.347656    ;  uncertainty r = 0.000075, k = 5.601604
        18        19     1        0.123339   728979.974805    ;  uncertainty r = 0.000098, k = 3.071935
        18        32     1        0.149616   226490.002051    ;  uncertainty r = 0.000068, k = 4.649197
        29        30     1        0.139652   371365.292285    ;  uncertainty r = 0.000019, k = 1.047997
        29        34     1        0.139652   371365.292285    ;  uncertainty r = 0.000019, k = 1.047997
        29        35     1        0.108851   334582.431592    ;  uncertainty r = 0.000012, k = 0.680626
        30        31     1        0.139437   363746.448926    ;  uncertainty r = 0.000028, k = 1.714763
        30        36     1        0.108841   333491.052148    ;  uncertainty r = 0.000018, k = 0.926342
        31        32     1        0.140102   346723.616113    ;  uncertainty r = 0.000036, k = 1.447454
        31        37     1        0.108758   333407.852246    ;  uncertainty r = 0.000014, k = 1.133844
        32        33     1        0.140102   346723.616113    ;  uncertainty r = 0.000036, k = 1.447454
        33        34     1        0.139437   363746.448926    ;  uncertainty r = 0.000028, k = 1.714763
        33        38     1        0.108758   333407.852246    ;  uncertainty r = 0.000014, k = 1.133844
        34        39     1        0.108841   333491.052148    ;  uncertainty r = 0.000018, k = 0.926340

[ angles ]
;       ai        aj        ak funct           theta             cth
         1         2         3     1      124.614235      359.881075    ;  uncertainty theta = 0.007318, k = 0.141141
         1         2        11     1      117.122276      401.475760    ;  uncertainty theta = 0.004274, k = 0.169678
         1         5        12     1      122.451149      457.836639    ;  uncertainty theta = 0.012324, k = 0.396747
         1         5        13     1      112.777939      397.551185    ;  uncertainty theta = 0.004296, k = 0.197514
         1         8        10     1      124.614235      359.881075    ;  uncertainty theta = 0.007318, k = 0.141141
         1         8        20     1      117.122276      401.475760    ;  uncertainty theta = 0.004274, k = 0.169678
         2         1         5     1      120.701454      353.629431    ;  uncertainty theta = 0.013311, k = 0.275393
         2         1         8     1      120.699013      430.079652    ;  uncertainty theta = 0.009492, k = 0.209916
         2         3         9     1      118.495155      498.161267    ;  uncertainty theta = 0.004039, k = 0.062916
         2         3        21     1      120.521286      283.386643    ;  uncertainty theta = 0.002118, k = 0.065156
         3         2        11     1      119.919701      462.386458    ;  uncertainty theta = 0.001017, k = 0.162558
         3         9        10     1      119.368362      506.538875    ;  uncertainty theta = 0.002463, k = 0.055814
         3         9        24     1      119.878922      281.614496    ;  uncertainty theta = 0.001408, k = 0.030814
         4         6         7     1      115.739685      478.573602    ;  uncertainty theta = 0.004925, k = 0.048676
         4         6        22     1      120.342453      269.550669    ;  uncertainty theta = 0.001665, k = 0.097098
         4        13         5     1      117.316322      446.625912    ;  uncertainty theta = 0.002594, k = 0.143032
         4        13        26     1      113.569641      313.594043    ;  uncertainty theta = 0.004804, k = 0.335936
         4        16        15     1      114.608521      482.007513    ;  uncertainty theta = 0.010326, k = 0.177062
         4        16        27     1      120.971581      271.769685    ;  uncertainty theta = 0.003419, k = 0.170410
         5         1         8     1      120.701454      353.629431    ;  uncertainty theta = 0.013311, k = 0.275393
         5        13        26     1      116.863647      359.759902    ;  uncertainty theta = 0.004202, k = 0.178017
         6         4        13     1      120.717148      522.791043    ;  uncertainty theta = 0.004408, k = 0.164372
         6         4        16     1      117.395973      391.960090    ;  uncertainty theta = 0.006766, k = 0.182515
         6         7        14     1      123.527115      694.026235    ;  uncertainty theta = 0.003605, k = 0.082195
         6         7        23     1      120.074997      274.168737    ;  uncertainty theta = 0.001842, k = 0.112779
         7         6        22     1      122.550827      311.952454    ;  uncertainty theta = 0.002566, k = 0.162360
         7        14        15     1      113.230751      425.867562    ;  uncertainty theta = 0.009297, k = 0.252497
         8        10         9     1      118.495155      498.161267    ;  uncertainty theta = 0.004039, k = 0.062916
         8        10        25     1      120.521286      283.386643    ;  uncertainty theta = 0.002118, k = 0.065156
         9         3        21     1      121.431229      283.380802    ;  uncertainty theta = 0.000813, k = 0.055588
         9        10        25     1      121.431229      283.380802    ;  uncertainty theta = 0.000813, k = 0.055588
        10         8        20     1      119.919701      462.386458    ;  uncertainty theta = 0.001017, k = 0.162558
        10         9        24     1      119.878922      281.614496    ;  uncertainty theta = 0.001408, k = 0.030814
        12         5        13     1      122.021950      773.152841    ;  uncertainty theta = 0.004688, k = 0.191943
        13         4        16     1      120.287354      520.473614    ;  uncertainty theta = 0.005837, k = 0.139582
        14         7        23     1      115.963181      320.508088    ;  uncertainty theta = 0.002623, k = 0.110377
        14        15        16     1      123.023926      536.863139    ;  uncertainty theta = 0.009775, k = 0.272036
        14        15        17     1      119.792603      706.152787    ;  uncertainty theta = 0.004572, k = 0.207849
        15        16        27     1      121.616333      276.216653    ;  uncertainty theta = 0.006205, k = 0.110927
        15        17        18     1      121.458275      442.321951    ;  uncertainty theta = 0.003071, k = 0.174851
        15        17        28     1      116.506874      328.577751    ;  uncertainty theta = 0.001992, k = 0.122434
        16        15        17     1      121.442703      536.958903    ;  uncertainty theta = 0.008309, k = 0.226886
        17        18        19     1      122.425636      759.302662    ;  uncertainty theta = 0.005351, k = 0.102966
        17        18        32     1      113.418030      474.872955    ;  uncertainty theta = 0.004189, k = 0.095115
        18        17        28     1      117.365097      270.230148    ;  uncertainty theta = 0.001696, k = 0.405804
        18        32        31     1      118.328613      330.944083    ;  uncertainty theta = 0.002928, k = 0.174946
        18        32        33     1      118.328613      330.944083    ;  uncertainty theta = 0.002928, k = 0.174946
        19        18        32     1      125.216629      544.525676    ;  uncertainty theta = 0.005524, k = 0.085926
        29        30        31     1      119.871071      518.597977    ;  uncertainty theta = 0.001573, k = 0.032157
        29        30        36     1      120.687317      289.046114    ;  uncertainty theta = 0.001086, k = 0.013911
        29        34        33     1      119.871071      518.597977    ;  uncertainty theta = 0.001573, k = 0.032157
        29        34        39     1      120.687317      289.046114    ;  uncertainty theta = 0.001086, k = 0.013911
        30        29        34     1      118.527451      525.974307    ;  uncertainty theta = 0.001588, k = 0.040882
        30        29        35     1      120.501976      287.909425    ;  uncertainty theta = 0.001845, k = 0.016081
        30        31        32     1      121.468102      516.692334    ;  uncertainty theta = 0.001623, k = 0.057089
        30        31        37     1      120.319923      288.580189    ;  uncertainty theta = 0.002442, k = 0.036093
        31        30        36     1      120.144516      283.251552    ;  uncertainty theta = 0.000768, k = 0.014446
        31        32        33     1      122.296288      464.202274    ;  uncertainty theta = 0.001783, k = 0.112701
        32        31        37     1      118.675644      268.370568    ;  uncertainty theta = 0.002272, k = 0.078619
        32        33        34     1      121.468102      516.692334    ;  uncertainty theta = 0.001623, k = 0.057089
        32        33        38     1      118.675644      268.370568    ;  uncertainty theta = 0.002272, k = 0.078619
        33        34        39     1      120.144516      283.251552    ;  uncertainty theta = 0.000768, k = 0.014446
        34        29        35     1      120.501976      287.909425    ;  uncertainty theta = 0.001845, k = 0.016081
        34        33        38     1      120.319923      288.580189    ;  uncertainty theta = 0.002442, k = 0.036093

[ dihedrals ] ; propers for gromacs 4.5 or higher, use funct 9
;       ai        aj        ak        al funct           phase               k        pn
         1         2         3         9     9        0.000000        0.129562         1    ;  uncertainty k = 0.258537
         1         2         3         9     9      180.000000        9.006461         2    ;  uncertainty k = 0.178121
         1         2         3         9     9        0.000000        0.010291         3    ;  uncertainty k = 0.509158
         1         2         3         9     9      180.000000        1.179148         4    ;  uncertainty k = 0.340357
         1         2         3        21     9        0.000000        0.017749         1    ;  uncertainty k = 0.506174
         1         2         3        21     9      180.000000        5.847178         2    ;  uncertainty k = 0.808481
         1         2         3        21     9        0.000000        1.301869         3    ;  uncertainty k = 0.271599
         1         2         3        21     9      180.000000        1.572515         4    ;  uncertainty k = 0.163634
         1         5        13         4     9        0.000000        4.012883         1    ;  uncertainty k = 0.741994
         1         5        13         4     9      180.000000       10.050056         2    ;  uncertainty k = 0.176781
         1         5        13         4     9        0.000000        1.524529         3    ;  uncertainty k = 0.439697
         1         5        13         4     9      180.000000       -1.034114         4    ;  uncertainty k = 0.394406
         1         5        13        26     9        0.000000        0.286201         1    ;  uncertainty k = 0.970625
         1         5        13        26     9      180.000000        4.591571         2    ;  uncertainty k = 0.675511
         1         5        13        26     9        0.000000        1.269715         3    ;  uncertainty k = 0.289099
         1         5        13        26     9      180.000000        0.225446         4    ;  uncertainty k = 0.265035
         1         8        10         9     9        0.000000        0.129562         1    ;  uncertainty k = 0.258537
         1         8        10         9     9      180.000000        9.006461         2    ;  uncertainty k = 0.178121
         1         8        10         9     9        0.000000        0.010291         3    ;  uncertainty k = 0.509158
         1         8        10         9     9      180.000000        1.179148         4    ;  uncertainty k = 0.340357
         1         8        10        25     9        0.000000        0.017749         1    ;  uncertainty k = 0.506174
         1         8        10        25     9      180.000000        5.847178         2    ;  uncertainty k = 0.808481
         1         8        10        25     9        0.000000        1.301869         3    ;  uncertainty k = 0.271599
         1         8        10        25     9      180.000000        1.572515         4    ;  uncertainty k = 0.163634
         2         1         5        12     9        0.000000       -0.938458         1    ;  uncertainty k = 0.721948
         2         1         5        12     9      180.000000        3.726943         2    ;  uncertainty k = 0.367149
         2         1         5        12     9        0.000000        0.533107         3    ;  uncertainty k = 0.173933
         2         1         5        12     9      180.000000        0.129066         4    ;  uncertainty k = 0.152302
         2         1         5        13     9        0.000000        1.636802         1    ;  uncertainty k = 0.717500
         2         1         5        13     9      180.000000        0.794893         2    ;  uncertainty k = 0.489697
         2         1         5        13     9        0.000000        0.486371         3    ;  uncertainty k = 0.368442
         2         1         5        13     9      180.000000       -0.111126         4    ;  uncertainty k = 0.129000
         2         1         8        10     9        0.000000        0.157030         1    ;  uncertainty k = 0.251028
         2         1         8        10     9      180.000000        6.621005         2    ;  uncertainty k = 0.890169
         2         1         8        10     9        0.000000        0.446154         3    ;  uncertainty k = 0.192247
         2         1         8        10     9      180.000000        1.346016         4    ;  uncertainty k = 0.373704
         2         1         8        20     9        0.000000        0.044095         1    ;  uncertainty k = 0.788675
         2         1         8        20     9      180.000000        8.268702         2    ;  uncertainty k = 0.180496
         2         1         8        20     9        0.000000        1.453925         3    ;  uncertainty k = 0.378329
         2         1         8        20     9      180.000000        1.534665         4    ;  uncertainty k = 0.225736
         2         3         9        10     9        0.000000        0.056957         1    ;  uncertainty k = 0.125369
         2         3         9        10     9      180.000000       14.284910         2    ;  uncertainty k = 0.214373
         2         3         9        10     9        0.000000       -1.022656         3    ;  uncertainty k = 0.417280
         2         3         9        10     9      180.000000        0.771729         4    ;  uncertainty k = 0.212175
         2         3         9        24     9        0.000000        0.083384         1    ;  uncertainty k = 0.200417
         2         3         9        24     9      180.000000        7.197642         2    ;  uncertainty k = 0.253695
         2         3         9        24     9        0.000000        1.438769         3    ;  uncertainty k = 0.264288
         2         3         9        24     9      180.000000        1.864824         4    ;  uncertainty k = 0.166987
         3         2         1         5     9        0.000000        0.540121         1    ;  uncertainty k = 0.659361
         3         2         1         5     9      180.000000        6.952584         2    ;  uncertainty k = 0.900726
         3         2         1         5     9        0.000000        1.504339         3    ;  uncertainty k = 0.227715
         3         2         1         5     9      180.000000        1.691626         4    ;  uncertainty k = 0.279736
         3         2         1         8     9        0.000000        0.157030         1    ;  uncertainty k = 0.251028
         3         2         1         8     9      180.000000        6.621005         2    ;  uncertainty k = 0.890169
         3         2         1         8     9        0.000000        0.446154         3    ;  uncertainty k = 0.192247
         3         2         1         8     9      180.000000        1.346016         4    ;  uncertainty k = 0.373704
         3         9        10         8     9        0.000000        0.056957         1    ;  uncertainty k = 0.125369
         3         9        10         8     9      180.000000       14.284910         2    ;  uncertainty k = 0.214373
         3         9        10         8     9        0.000000       -1.022656         3    ;  uncertainty k = 0.417280
         3         9        10         8     9      180.000000        0.771729         4    ;  uncertainty k = 0.212175
         3         9        10        25     9        0.000000        0.071341         1    ;  uncertainty k = 0.156537
         3         9        10        25     9      180.000000        7.824333         2    ;  uncertainty k = 0.388735
         3         9        10        25     9        0.000000        1.476015         3    ;  uncertainty k = 0.262591
         3         9        10        25     9      180.000000        1.800034         4    ;  uncertainty k = 0.168947
         4         6         7        14     9        0.000000       -0.191130         1    ;  uncertainty k = 0.240028
         4         6         7        14     9      180.000000       15.646832         2    ;  uncertainty k = 0.436221
         4         6         7        14     9        0.000000       -1.145526         3    ;  uncertainty k = 0.301394
         4         6         7        14     9      180.000000        0.796266         4    ;  uncertainty k = 0.163557
         4         6         7        23     9        0.000000       -0.488021         1    ;  uncertainty k = 0.352061
         4         6         7        23     9      180.000000        6.981430         2    ;  uncertainty k = 0.581321
         4         6         7        23     9        0.000000        1.147582         3    ;  uncertainty k = 0.230024
         4         6         7        23     9      180.000000        1.407164         4    ;  uncertainty k = 0.046480
         4        13         5        12     9        0.000000        3.184547         1    ;  uncertainty k = 1.295174
         4        13         5        12     9      180.000000       13.546940         2    ;  uncertainty k = 0.231063
         4        13         5        12     9        0.000000        0.722658         3    ;  uncertainty k = 0.182961
         4        13         5        12     9      180.000000       -0.666531         4    ;  uncertainty k = 0.131850
         4        16        15        14     9        0.000000       -0.470231         1    ;  uncertainty k = 0.223465
         4        16        15        14     9      180.000000       10.317505         2    ;  uncertainty k = 0.507983
         4        16        15        14     9        0.000000       -0.487122         3    ;  uncertainty k = 0.679892
         4        16        15        14     9      180.000000        0.974020         4    ;  uncertainty k = 0.116165
         4        16        15        17     9        0.000000        0.053329         1    ;  uncertainty k = 0.641195
         4        16        15        17     9      180.000000        8.733155         2    ;  uncertainty k = 0.603053
         4        16        15        17     9        0.000000        0.960368         3    ;  uncertainty k = 0.421349
         4        16        15        17     9      180.000000        1.240088         4    ;  uncertainty k = 0.524018
         5         1         2        11     9        0.000000        0.293529         1    ;  uncertainty k = 1.201193
         5         1         2        11     9      180.000000        8.809351         2    ;  uncertainty k = 0.492509
         5         1         2        11     9        0.000000        1.507479         3    ;  uncertainty k = 0.181959
         5         1         2        11     9      180.000000        1.331521         4    ;  uncertainty k = 0.158721
         5         1         8        10     9        0.000000        0.540121         1    ;  uncertainty k = 0.659361
         5         1         8        10     9      180.000000        6.952584         2    ;  uncertainty k = 0.900726
         5         1         8        10     9        0.000000        1.504339         3    ;  uncertainty k = 0.227715
         5         1         8        10     9      180.000000        1.691626         4    ;  uncertainty k = 0.279736
         5         1         8        20     9        0.000000        0.293529         1    ;  uncertainty k = 1.201193
         5         1         8        20     9      180.000000        8.809351         2    ;  uncertainty k = 0.492509
         5         1         8        20     9        0.000000        1.507479         3    ;  uncertainty k = 0.181959
         5         1         8        20     9      180.000000        1.331521         4    ;  uncertainty k = 0.158721
         5        13         4         6     9        0.000000        0.671405         1    ;  uncertainty k = 0.779653
         5        13         4         6     9      180.000000        5.171684         2    ;  uncertainty k = 0.343054
         5        13         4         6     9        0.000000        0.900418         3    ;  uncertainty k = 0.162472
         5        13         4         6     9      180.000000        0.037683         4    ;  uncertainty k = 0.022188
         5        13         4        16     9        0.000000        0.702361         1    ;  uncertainty k = 0.555440
         5        13         4        16     9      180.000000        5.534584         2    ;  uncertainty k = 0.444031
         5        13         4        16     9        0.000000        0.877532         3    ;  uncertainty k = 0.139167
         5        13         4        16     9      180.000000        0.005713         4    ;  uncertainty k = 0.131780
         6         4        13        26     9        0.000000        1.029279         1    ;  uncertainty k = 1.463602
         6         4        13        26     9      180.000000        5.196719         2    ;  uncertainty k = 0.208685
         6         4        13        26     9        0.000000        0.851853         3    ;  uncertainty k = 0.351032
         6         4        13        26     9      180.000000        0.326889         4    ;  uncertainty k = 0.129780
         6         4        16        15     9        0.000000       -0.016182         1    ;  uncertainty k = 0.305693
         6         4        16        15     9      180.000000       10.263773         2    ;  uncertainty k = 0.420686
         6         4        16        15     9        0.000000       -0.318973         3    ;  uncertainty k = 0.115987
         6         4        16        15     9      180.000000        1.119034         4    ;  uncertainty k = 0.303533
         6         4        16        27     9        0.000000        0.486833         1    ;  uncertainty k = 0.513617
         6         4        16        27     9      180.000000        7.807601         2    ;  uncertainty k = 0.443830
         6         4        16        27     9        0.000000        1.410458         3    ;  uncertainty k = 0.260707
         6         4        16        27     9      180.000000        1.563669         4    ;  uncertainty k = 0.222205
         6         7        14        15     9        0.000000       -0.398411         1    ;  uncertainty k = 0.309255
         6         7        14        15     9      180.000000       14.542691         2    ;  uncertainty k = 0.397610
         6         7        14        15     9        0.000000        0.757491         3    ;  uncertainty k = 0.434055
         6         7        14        15     9      180.000000        1.324436         4    ;  uncertainty k = 0.256371
         7         6         4        13     9        0.000000       -0.156685         1    ;  uncertainty k = 0.327783
         7         6         4        13     9      180.000000       10.573743         2    ;  uncertainty k = 0.368407
         7         6         4        13     9        0.000000        0.699890         3    ;  uncertainty k = 0.295405
         7         6         4        13     9      180.000000        1.371703         4    ;  uncertainty k = 0.342554
         7         6         4        16     9        0.000000       -0.304339         1    ;  uncertainty k = 0.401343
         7         6         4        16     9      180.000000       10.421870         2    ;  uncertainty k = 0.258036
         7         6         4        16     9        0.000000       -0.502651         3    ;  uncertainty k = 0.481459
         7         6         4        16     9      180.000000        1.109352         4    ;  uncertainty k = 0.114606
         7        14        15        16     9        0.000000       -0.589012         1    ;  uncertainty k = 0.670564
         7        14        15        16     9      180.000000       11.786471         2    ;  uncertainty k = 0.846519
         7        14        15        16     9        0.000000        0.950819         3    ;  uncertainty k = 0.641615
         7        14        15        16     9      180.000000        1.362045         4    ;  uncertainty k = 0.288724
         7        14        15        17     9        0.000000       -0.430327         1    ;  uncertainty k = 1.266184
         7        14        15        17     9      180.000000       15.693440         2    ;  uncertainty k = 0.214690
         7        14        15        17     9        0.000000        1.977386         3    ;  uncertainty k = 0.302691
         7        14        15        17     9      180.000000        1.731943         4    ;  uncertainty k = 0.394013
         8         1         2        11     9        0.000000        0.044095         1    ;  uncertainty k = 0.788675
         8         1         2        11     9      180.000000        8.268702         2    ;  uncertainty k = 0.180496
         8         1         2        11     9        0.000000        1.453925         3    ;  uncertainty k = 0.378329
         8         1         2        11     9      180.000000        1.534665         4    ;  uncertainty k = 0.225736
         8         1         5        12     9        0.000000       -0.938458         1    ;  uncertainty k = 0.721948
         8         1         5        12     9      180.000000        3.726943         2    ;  uncertainty k = 0.367149
         8         1         5        12     9        0.000000        0.533107         3    ;  uncertainty k = 0.173933
         8         1         5        12     9      180.000000        0.129066         4    ;  uncertainty k = 0.152302
         8         1         5        13     9        0.000000        1.636802         1    ;  uncertainty k = 0.717500
         8         1         5        13     9      180.000000        0.794893         2    ;  uncertainty k = 0.489697
         8         1         5        13     9        0.000000        0.486371         3    ;  uncertainty k = 0.368442
         8         1         5        13     9      180.000000       -0.111126         4    ;  uncertainty k = 0.129000
         8        10         9        24     9        0.000000        0.083384         1    ;  uncertainty k = 0.200417
         8        10         9        24     9      180.000000        7.197642         2    ;  uncertainty k = 0.253695
         8        10         9        24     9        0.000000        1.438769         3    ;  uncertainty k = 0.264288
         8        10         9        24     9      180.000000        1.864824         4    ;  uncertainty k = 0.166987
         9         3         2        11     9        0.000000       -0.125974         1    ;  uncertainty k = 0.141879
         9         3         2        11     9      180.000000        9.826857         2    ;  uncertainty k = 0.423980
         9         3         2        11     9        0.000000        1.360528         3    ;  uncertainty k = 0.293318
         9         3         2        11     9      180.000000        1.645146         4    ;  uncertainty k = 0.120261
         9        10         8        20     9        0.000000       -0.125974         1    ;  uncertainty k = 0.141879
         9        10         8        20     9      180.000000        9.826857         2    ;  uncertainty k = 0.423980
         9        10         8        20     9        0.000000        1.360528         3    ;  uncertainty k = 0.293318
         9        10         8        20     9      180.000000        1.645146         4    ;  uncertainty k = 0.120261
        10         9         3        21     9        0.000000        0.071341         1    ;  uncertainty k = 0.156537
        10         9         3        21     9      180.000000        7.824333         2    ;  uncertainty k = 0.388735
        10         9         3        21     9        0.000000        1.476015         3    ;  uncertainty k = 0.262591
        10         9         3        21     9      180.000000        1.800034         4    ;  uncertainty k = 0.168947
        11         2         3        21     9        0.000000       -0.203688         1    ;  uncertainty k = 0.537167
        11         2         3        21     9      180.000000        7.741258         2    ;  uncertainty k = 0.413148
        11         2         3        21     9        0.000000        0.589378         3    ;  uncertainty k = 0.256365
        11         2         3        21     9      180.000000        1.098417         4    ;  uncertainty k = 0.232050
        12         5        13        26     9        0.000000        2.754751         1    ;  uncertainty k = 1.678083
        12         5        13        26     9      180.000000       15.343140         2    ;  uncertainty k = 0.287199
        12         5        13        26     9        0.000000        1.862099         3    ;  uncertainty k = 0.346350
        12         5        13        26     9      180.000000       -0.086397         4    ;  uncertainty k = 0.341591
        13         4         6        22     9        0.000000       -0.319544         1    ;  uncertainty k = 0.345314
        13         4         6        22     9      180.000000        8.037585         2    ;  uncertainty k = 0.455395
        13         4         6        22     9        0.000000        0.835277         3    ;  uncertainty k = 0.138723
        13         4         6        22     9      180.000000        1.127271         4    ;  uncertainty k = 0.123904
        13         4        16        15     9        0.000000       -0.040615         1    ;  uncertainty k = 0.559747
        13         4        16        15     9      180.000000       11.927903         2    ;  uncertainty k = 0.792773
        13         4        16        15     9        0.000000        0.819412         3    ;  uncertainty k = 0.258743
        13         4        16        15     9      180.000000        1.303286         4    ;  uncertainty k = 0.674290
        13         4        16        27     9        0.000000       -0.274450         1    ;  uncertainty k = 0.440486
        13         4        16        27     9      180.000000        8.899561         2    ;  uncertainty k = 0.430668
        13         4        16        27     9        0.000000        0.890751         3    ;  uncertainty k = 0.158629
        13         4        16        27     9      180.000000        1.194502         4    ;  uncertainty k = 0.172072
        14         7         6        22     9        0.000000        0.117761         1    ;  uncertainty k = 0.173441
        14         7         6        22     9      180.000000       10.143386         2    ;  uncertainty k = 0.403466
        14         7         6        22     9        0.000000        1.029189         3    ;  uncertainty k = 0.341538
        14         7         6        22     9      180.000000        1.734077         4    ;  uncertainty k = 0.168177
        14        15        16        27     9        0.000000        0.531089         1    ;  uncertainty k = 0.642027
        14        15        16        27     9      180.000000        7.904220         2    ;  uncertainty k = 0.862046
        14        15        16        27     9        0.000000        1.167750         3    ;  uncertainty k = 0.278537
        14        15        16        27     9      180.000000        1.403814         4    ;  uncertainty k = 0.225677
        14        15        17        18     9        0.000000        2.302707         1    ;  uncertainty k = 1.171164
        14        15        17        18     9      180.000000        6.102668         2    ;  uncertainty k = 0.433500
        14        15        17        18     9        0.000000        1.097470         3    ;  uncertainty k = 0.213750
        14        15        17        18     9      180.000000       -0.174249         4    ;  uncertainty k = 0.095924
        14        15        17        28     9        0.000000        5.216214         1    ;  uncertainty k = 1.024964
        14        15        17        28     9      180.000000        5.100454         2    ;  uncertainty k = 0.707474
        14        15        17        28     9        0.000000        0.112782         3    ;  uncertainty k = 0.318267
        14        15        17        28     9      180.000000        0.014507         4    ;  uncertainty k = 0.290416
        15        14         7        23     9        0.000000       -0.299992         1    ;  uncertainty k = 0.410660
        15        14         7        23     9      180.000000       14.932276         2    ;  uncertainty k = 0.487686
        15        14         7        23     9        0.000000        2.023635         3    ;  uncertainty k = 0.734817
        15        14         7        23     9      180.000000        1.340186         4    ;  uncertainty k = 0.415204
        15        17        18        19     9        0.000000        2.932771         1    ;  uncertainty k = 0.734156
        15        17        18        19     9      180.000000       11.904057         2    ;  uncertainty k = 0.135672
        15        17        18        19     9        0.000000        0.310769         3    ;  uncertainty k = 0.379987
        15        17        18        19     9      180.000000       -0.419110         4    ;  uncertainty k = 0.092108
        15        17        18        32     9        0.000000        4.079853         1    ;  uncertainty k = 1.068434
        15        17        18        32     9      180.000000       10.444288         2    ;  uncertainty k = 0.295431
        15        17        18        32     9        0.000000        1.500731         3    ;  uncertainty k = 0.044614
        15        17        18        32     9      180.000000       -1.068789         4    ;  uncertainty k = 0.331610
        16         4         6        22     9        0.000000        0.270253         1    ;  uncertainty k = 0.329698
        16         4         6        22     9      180.000000        7.261793         2    ;  uncertainty k = 0.623510
        16         4         6        22     9        0.000000        1.353800         3    ;  uncertainty k = 0.288680
        16         4         6        22     9      180.000000        1.468031         4    ;  uncertainty k = 0.132387
        16         4        13        26     9        0.000000        2.045676         1    ;  uncertainty k = 1.345403
        16         4        13        26     9      180.000000        5.511983         2    ;  uncertainty k = 0.423915
        16         4        13        26     9        0.000000        0.772084         3    ;  uncertainty k = 0.387433
        16         4        13        26     9      180.000000        0.259936         4    ;  uncertainty k = 0.120220
        16        15        17        18     9        0.000000       -0.039518         1    ;  uncertainty k = 1.523968
        16        15        17        18     9      180.000000        5.225270         2    ;  uncertainty k = 0.224127
        16        15        17        18     9        0.000000        0.671670         3    ;  uncertainty k = 0.148433
        16        15        17        18     9      180.000000       -0.210749         4    ;  uncertainty k = 0.094945
        16        15        17        28     9        0.000000        0.563957         1    ;  uncertainty k = 1.063428
        16        15        17        28     9      180.000000        4.796095         2    ;  uncertainty k = 0.382496
        16        15        17        28     9        0.000000        1.137678         3    ;  uncertainty k = 0.287060
        16        15        17        28     9      180.000000        0.066090         4    ;  uncertainty k = 0.177181
        17        15        16        27     9        0.000000       -0.365061         1    ;  uncertainty k = 0.481421
        17        15        16        27     9      180.000000        6.642752         2    ;  uncertainty k = 0.398260
        17        15        16        27     9        0.000000        0.773005         3    ;  uncertainty k = 0.167030
        17        15        16        27     9      180.000000        0.940252         4    ;  uncertainty k = 0.180097
        17        18        32        31     9        0.000000        0.056181         1    ;  uncertainty k = 0.563537
        17        18        32        31     9      180.000000        3.331641         2    ;  uncertainty k = 0.143114
        17        18        32        31     9        0.000000        0.048953         3    ;  uncertainty k = 0.164647
        17        18        32        31     9      180.000000       -0.184433         4    ;  uncertainty k = 0.073192
        17        18        32        33     9        0.000000        0.056181         1    ;  uncertainty k = 0.563537
        17        18        32        33     9      180.000000        3.331641         2    ;  uncertainty k = 0.143114
        17        18        32        33     9        0.000000        0.048953         3    ;  uncertainty k = 0.164647
        17        18        32        33     9      180.000000       -0.184433         4    ;  uncertainty k = 0.073192
        18        32        31        30     9        0.000000        0.285736         1    ;  uncertainty k = 0.167505
        18        32        31        30     9      180.000000        9.303179         2    ;  uncertainty k = 0.596565
        18        32        31        30     9        0.000000        1.517332         3    ;  uncertainty k = 0.274208
        18        32        31        30     9      180.000000        1.821052         4    ;  uncertainty k = 0.267727
        18        32        31        37     9        0.000000       -0.048465         1    ;  uncertainty k = 0.541340
        18        32        31        37     9      180.000000        8.215654         2    ;  uncertainty k = 0.448045
        18        32        31        37     9        0.000000        0.980938         3    ;  uncertainty k = 0.183117
        18        32        31        37     9      180.000000        1.072948         4    ;  uncertainty k = 0.214991
        18        32        33        34     9        0.000000        0.285736         1    ;  uncertainty k = 0.167505
        18        32        33        34     9      180.000000        9.303179         2    ;  uncertainty k = 0.596565
        18        32        33        34     9        0.000000        1.517332         3    ;  uncertainty k = 0.274208
        18        32        33        34     9      180.000000        1.821052         4    ;  uncertainty k = 0.267727
        18        32        33        38     9        0.000000       -0.048465         1    ;  uncertainty k = 0.541340
        18        32        33        38     9      180.000000        8.215654         2    ;  uncertainty k = 0.448045
        18        32        33        38     9        0.000000        0.980938         3    ;  uncertainty k = 0.183117
        18        32        33        38     9      180.000000        1.072948         4    ;  uncertainty k = 0.214991
        19        18        17        28     9        0.000000        2.354142         1    ;  uncertainty k = 1.045395
        19        18        17        28     9      180.000000       11.919524         2    ;  uncertainty k = 0.207298
        19        18        17        28     9        0.000000        1.137269         3    ;  uncertainty k = 0.315154
        19        18        17        28     9      180.000000       -0.520727         4    ;  uncertainty k = 0.248591
        19        18        32        31     9        0.000000       -0.427346         1    ;  uncertainty k = 0.130130
        19        18        32        31     9      180.000000        4.002298         2    ;  uncertainty k = 0.083471
        19        18        32        31     9        0.000000        0.437423         3    ;  uncertainty k = 0.223002
        19        18        32        31     9      180.000000       -0.059297         4    ;  uncertainty k = 0.047312
        19        18        32        33     9        0.000000       -0.427346         1    ;  uncertainty k = 0.130130
        19        18        32        33     9      180.000000        4.002298         2    ;  uncertainty k = 0.083471
        19        18        32        33     9        0.000000        0.437423         3    ;  uncertainty k = 0.223002
        19        18        32        33     9      180.000000       -0.059297         4    ;  uncertainty k = 0.047312
        20         8        10        25     9        0.000000       -0.203688         1    ;  uncertainty k = 0.537167
        20         8        10        25     9      180.000000        7.741258         2    ;  uncertainty k = 0.413148
        20         8        10        25     9        0.000000        0.589378         3    ;  uncertainty k = 0.256365
        20         8        10        25     9      180.000000        1.098417         4    ;  uncertainty k = 0.232050
        21         3         9        24     9        0.000000        0.001385         1    ;  uncertainty k = 0.129514
        21         3         9        24     9      180.000000        7.970131         2    ;  uncertainty k = 0.421308
        21         3         9        24     9        0.000000       -0.442113         3    ;  uncertainty k = 0.230001
        21         3         9        24     9      180.000000        0.054396         4    ;  uncertainty k = 0.177102
        22         6         7        23     9        0.000000       -0.486927         1    ;  uncertainty k = 0.274037
        22         6         7        23     9      180.000000        6.750554         2    ;  uncertainty k = 0.157763
        22         6         7        23     9        0.000000        0.049287         3    ;  uncertainty k = 0.230238
        22         6         7        23     9      180.000000        0.424459         4    ;  uncertainty k = 0.124639
        24         9        10        25     9        0.000000        0.001385         1    ;  uncertainty k = 0.129514
        24         9        10        25     9      180.000000        7.970131         2    ;  uncertainty k = 0.421308
        24         9        10        25     9        0.000000       -0.442113         3    ;  uncertainty k = 0.230001
        24         9        10        25     9      180.000000        0.054396         4    ;  uncertainty k = 0.177102
        28        17        18        32     9        0.000000       -0.764568         1    ;  uncertainty k = 0.682603
        28        17        18        32     9      180.000000        6.065637         2    ;  uncertainty k = 0.607477
        28        17        18        32     9        0.000000        2.256686         3    ;  uncertainty k = 0.270337
        28        17        18        32     9      180.000000        0.064759         4    ;  uncertainty k = 0.254934
        29        30        31        32     9        0.000000       -0.098875         1    ;  uncertainty k = 0.141095
        29        30        31        32     9      180.000000       13.615483         2    ;  uncertainty k = 0.324676
        29        30        31        32     9        0.000000       -0.697461         3    ;  uncertainty k = 0.362338
        29        30        31        32     9      180.000000        0.779712         4    ;  uncertainty k = 0.233109
        29        30        31        37     9        0.000000        0.033390         1    ;  uncertainty k = 0.057163
        29        30        31        37     9      180.000000        7.767101         2    ;  uncertainty k = 0.228712
        29        30        31        37     9        0.000000        1.374838         3    ;  uncertainty k = 0.257123
        29        30        31        37     9      180.000000        1.837066         4    ;  uncertainty k = 0.200636
        29        34        33        32     9        0.000000       -0.098875         1    ;  uncertainty k = 0.141095
        29        34        33        32     9      180.000000       13.615483         2    ;  uncertainty k = 0.324676
        29        34        33        32     9        0.000000       -0.697461         3    ;  uncertainty k = 0.362338
        29        34        33        32     9      180.000000        0.779712         4    ;  uncertainty k = 0.233109
        29        34        33        38     9        0.000000        0.033390         1    ;  uncertainty k = 0.057163
        29        34        33        38     9      180.000000        7.767101         2    ;  uncertainty k = 0.228712
        29        34        33        38     9        0.000000        1.374838         3    ;  uncertainty k = 0.257123
        29        34        33        38     9      180.000000        1.837066         4    ;  uncertainty k = 0.200636
        30        29        34        33     9        0.000000       -0.076625         1    ;  uncertainty k = 0.107098
        30        29        34        33     9      180.000000       14.765530         2    ;  uncertainty k = 0.284455
        30        29        34        33     9        0.000000       -1.064484         3    ;  uncertainty k = 0.473627
        30        29        34        33     9      180.000000        0.559319         4    ;  uncertainty k = 0.270937
        30        29        34        39     9        0.000000        0.029731         1    ;  uncertainty k = 0.073315
        30        29        34        39     9      180.000000        7.670519         2    ;  uncertainty k = 0.323320
        30        29        34        39     9        0.000000        1.427010         3    ;  uncertainty k = 0.278329
        30        29        34        39     9      180.000000        1.805226         4    ;  uncertainty k = 0.097465
        30        31        32        33     9        0.000000        0.000075         1    ;  uncertainty k = 0.159412
        30        31        32        33     9      180.000000       11.262298         2    ;  uncertainty k = 0.344157
        30        31        32        33     9        0.000000       -0.683130         3    ;  uncertainty k = 0.151649
        30        31        32        33     9      180.000000        0.939381         4    ;  uncertainty k = 0.244154
        31        30        29        34     9        0.000000       -0.076625         1    ;  uncertainty k = 0.107098
        31        30        29        34     9      180.000000       14.765530         2    ;  uncertainty k = 0.284455
        31        30        29        34     9        0.000000       -1.064484         3    ;  uncertainty k = 0.473627
        31        30        29        34     9      180.000000        0.559319         4    ;  uncertainty k = 0.270937
        31        30        29        35     9        0.000000        0.049495         1    ;  uncertainty k = 0.117857
        31        30        29        35     9      180.000000        7.399927         2    ;  uncertainty k = 0.322198
        31        30        29        35     9        0.000000        1.473416         3    ;  uncertainty k = 0.278016
        31        30        29        35     9      180.000000        1.774126         4    ;  uncertainty k = 0.097821
        31        32        33        34     9        0.000000        0.000075         1    ;  uncertainty k = 0.159412
        31        32        33        34     9      180.000000       11.262298         2    ;  uncertainty k = 0.344157
        31        32        33        34     9        0.000000       -0.683130         3    ;  uncertainty k = 0.151649
        31        32        33        34     9      180.000000        0.939381         4    ;  uncertainty k = 0.244154
        31        32        33        38     9        0.000000        0.301370         1    ;  uncertainty k = 0.289372
        31        32        33        38     9      180.000000        7.236536         2    ;  uncertainty k = 0.508873
        31        32        33        38     9        0.000000        1.242269         3    ;  uncertainty k = 0.275589
        31        32        33        38     9      180.000000        1.693451         4    ;  uncertainty k = 0.267541
        32        31        30        36     9        0.000000       -0.021363         1    ;  uncertainty k = 0.263684
        32        31        30        36     9      180.000000        8.171043         2    ;  uncertainty k = 0.284346
        32        31        30        36     9        0.000000        1.417993         3    ;  uncertainty k = 0.187032
        32        31        30        36     9      180.000000        1.788843         4    ;  uncertainty k = 0.177552
        32        33        34        39     9        0.000000       -0.021363         1    ;  uncertainty k = 0.263684
        32        33        34        39     9      180.000000        8.171043         2    ;  uncertainty k = 0.284346
        32        33        34        39     9        0.000000        1.417993         3    ;  uncertainty k = 0.187032
        32        33        34        39     9      180.000000        1.788843         4    ;  uncertainty k = 0.177552
        33        32        31        37     9        0.000000        0.301370         1    ;  uncertainty k = 0.289372
        33        32        31        37     9      180.000000        7.236536         2    ;  uncertainty k = 0.508873
        33        32        31        37     9        0.000000        1.242269         3    ;  uncertainty k = 0.275589
        33        32        31        37     9      180.000000        1.693451         4    ;  uncertainty k = 0.267541
        33        34        29        35     9        0.000000        0.049495         1    ;  uncertainty k = 0.117857
        33        34        29        35     9      180.000000        7.399927         2    ;  uncertainty k = 0.322198
        33        34        29        35     9        0.000000        1.473416         3    ;  uncertainty k = 0.278016
        33        34        29        35     9      180.000000        1.774126         4    ;  uncertainty k = 0.097821
        34        29        30        36     9        0.000000        0.029731         1    ;  uncertainty k = 0.073315
        34        29        30        36     9      180.000000        7.670519         2    ;  uncertainty k = 0.323320
        34        29        30        36     9        0.000000        1.427010         3    ;  uncertainty k = 0.278329
        34        29        30        36     9      180.000000        1.805226         4    ;  uncertainty k = 0.097465
        35        29        30        36     9        0.000000       -0.109476         1    ;  uncertainty k = 0.024993
        35        29        30        36     9      180.000000        7.823948         2    ;  uncertainty k = 0.394933
        35        29        30        36     9        0.000000       -0.406752         3    ;  uncertainty k = 0.289801
        35        29        30        36     9      180.000000        0.051016         4    ;  uncertainty k = 0.144779
        35        29        34        39     9        0.000000       -0.109476         1    ;  uncertainty k = 0.024993
        35        29        34        39     9      180.000000        7.823948         2    ;  uncertainty k = 0.394933
        35        29        34        39     9        0.000000       -0.406752         3    ;  uncertainty k = 0.289801
        35        29        34        39     9      180.000000        0.051016         4    ;  uncertainty k = 0.144779
        36        30        31        37     9        0.000000       -0.150855         1    ;  uncertainty k = 0.217422
        36        30        31        37     9      180.000000        7.817329         2    ;  uncertainty k = 0.392234
        36        30        31        37     9        0.000000       -0.376712         3    ;  uncertainty k = 0.197684
        36        30        31        37     9      180.000000        0.181269         4    ;  uncertainty k = 0.125877
        38        33        34        39     9        0.000000       -0.150855         1    ;  uncertainty k = 0.217422
        38        33        34        39     9      180.000000        7.817329         2    ;  uncertainty k = 0.392234
        38        33        34        39     9        0.000000       -0.376712         3    ;  uncertainty k = 0.197684
        38        33        34        39     9      180.000000        0.181269         4    ;  uncertainty k = 0.125877

[ dihedrals ] ; impropers
;       ai        aj        ak        al funct           phase               k        pn
         1         2         5         8     4      180.000000       12.616542         2    ;  uncertainty k = 0.387975
         1         5         8         2     4      180.000000       12.616542         2    ;  uncertainty k = 0.387975
         1         8         2         5     4      180.000000       12.616542         2    ;  uncertainty k = 0.387975
         2         1         3        11     4      180.000000       14.343354         2    ;  uncertainty k = 0.092046
         2         3        11         1     4      180.000000       14.343354         2    ;  uncertainty k = 0.092046
         2        11         1         3     4      180.000000       14.343354         2    ;  uncertainty k = 0.092046
         3         2         9        21     4      180.000000        3.308569         2    ;  uncertainty k = 0.185728
         3         9        21         2     4      180.000000        3.308569         2    ;  uncertainty k = 0.185728
         3        21         2         9     4      180.000000        3.308569         2    ;  uncertainty k = 0.185728
         4         6        13        16     4      180.000000       20.316728         2    ;  uncertainty k = 0.157319
         4        13        16         6     4      180.000000       20.316728         2    ;  uncertainty k = 0.157319
         4        16         6        13     4      180.000000       20.316728         2    ;  uncertainty k = 0.157319
         5         1        12        13     4      180.000000       56.020619         2    ;  uncertainty k = 0.087383
         5        12        13         1     4      180.000000       56.020619         2    ;  uncertainty k = 0.087383
         5        13         1        12     4      180.000000       56.020619         2    ;  uncertainty k = 0.087383
         6         4         7        22     4      180.000000        0.460309         2    ;  uncertainty k = 0.636565
         6         7        22         4     4      180.000000        0.460309         2    ;  uncertainty k = 0.636565
         6        22         4         7     4      180.000000        0.460309         2    ;  uncertainty k = 0.636565
         7         6        14        23     4      180.000000       14.104813         2    ;  uncertainty k = 0.119665
         7        14        23         6     4      180.000000       14.104813         2    ;  uncertainty k = 0.119665
         7        23         6        14     4      180.000000       14.104813         2    ;  uncertainty k = 0.119665
         8         1        10        20     4      180.000000       14.343354         2    ;  uncertainty k = 0.092046
         8        10        20         1     4      180.000000       14.343354         2    ;  uncertainty k = 0.092046
         8        20         1        10     4      180.000000       14.343354         2    ;  uncertainty k = 0.092046
         9         3        10        24     4      180.000000        4.523845         2    ;  uncertainty k = 0.130961
         9        10        24         3     4      180.000000        4.523845         2    ;  uncertainty k = 0.130961
         9        24         3        10     4      180.000000        4.523845         2    ;  uncertainty k = 0.130961
        10         8         9        25     4      180.000000        3.308569         2    ;  uncertainty k = 0.185728
        10         9        25         8     4      180.000000        3.308569         2    ;  uncertainty k = 0.185728
        10        25         8         9     4      180.000000        3.308569         2    ;  uncertainty k = 0.185728
        13         4         5        26     4      180.000000        0.483818         2    ;  uncertainty k = 0.576474
        13         5        26         4     4      180.000000        0.483818         2    ;  uncertainty k = 0.576474
        13        26         4         5     4      180.000000        0.483818         2    ;  uncertainty k = 0.576474
        15        14        16        17     4      180.000000       28.251965         2    ;  uncertainty k = 0.175709
        15        16        17        14     4      180.000000       28.251965         2    ;  uncertainty k = 0.175709
        15        17        14        16     4      180.000000       28.251965         2    ;  uncertainty k = 0.175709
        16         4        15        27     4      180.000000        1.174478         2    ;  uncertainty k = 0.949432
        16        15        27         4     4      180.000000        1.174478         2    ;  uncertainty k = 0.949432
        16        27         4        15     4      180.000000        1.174478         2    ;  uncertainty k = 0.949432
        17        15        18        28     4      180.000000        0.203794         2    ;  uncertainty k = 0.434094
        17        18        28        15     4      180.000000        0.203794         2    ;  uncertainty k = 0.434094
        17        28        15        18     4      180.000000        0.203794         2    ;  uncertainty k = 0.434094
        18        17        19        32     4      180.000000       53.433800         2    ;  uncertainty k = 0.050681
        18        19        32        17     4      180.000000       53.433800         2    ;  uncertainty k = 0.050681
        18        32        17        19     4      180.000000       53.433800         2    ;  uncertainty k = 0.050681
        29        30        34        35     4      180.000000        4.982866         2    ;  uncertainty k = 0.195039
        29        34        35        30     4      180.000000        4.982866         2    ;  uncertainty k = 0.195039
        29        35        30        34     4      180.000000        4.982866         2    ;  uncertainty k = 0.195039
        30        29        31        36     4      180.000000        3.870629         2    ;  uncertainty k = 0.083755
        30        31        36        29     4      180.000000        3.870629         2    ;  uncertainty k = 0.083755
        30        36        29        31     4      180.000000        3.870629         2    ;  uncertainty k = 0.083755
        31        30        32        37     4      180.000000        4.228178         2    ;  uncertainty k = 0.133612
        31        32        37        30     4      180.000000        4.228178         2    ;  uncertainty k = 0.133612
        31        37        30        32     4      180.000000        4.228178         2    ;  uncertainty k = 0.133612
        32        18        31        33     4      180.000000        6.950687         2    ;  uncertainty k = 0.102155
        32        31        33        18     4      180.000000        6.950687         2    ;  uncertainty k = 0.102155
        32        33        18        31     4      180.000000        6.950687         2    ;  uncertainty k = 0.102155
        33        32        34        38     4      180.000000        4.228178         2    ;  uncertainty k = 0.133612
        33        34        38        32     4      180.000000        4.228178         2    ;  uncertainty k = 0.133612
        33        38        32        34     4      180.000000        4.228178         2    ;  uncertainty k = 0.133612
        34        29        33        39     4      180.000000        3.870627         2    ;  uncertainty k = 0.083756
        34        33        39        29     4      180.000000        3.870627         2    ;  uncertainty k = 0.083756
        34        39        29        33     4      180.000000        3.870627         2    ;  uncertainty k = 0.083756

[ pairs ]
;       ai        aj funct
         1         4     1
         1         9     1
         1        21     1
         1        25     1
         1        26     1
         2        10     1
         2        12     1
         2        13     1
         2        20     1
         2        24     1
         3         5     1
         3         8     1
         3        25     1
         4        12     1
         4        14     1
         4        17     1
         4        23     1
         5         6     1
         5        10     1
         5        11     1
         5        16     1
         5        20     1
         6        15     1
         6        26     1
         6        27     1
         7        13     1
         7        16     1
         7        17     1
         8        11     1
         8        12     1
         8        13     1
         8        24     1
         9        11     1
         9        20     1
        10        21     1
        11        21     1
        12        26     1
        13        15     1
        13        22     1
        13        27     1
        14        18     1
        14        22     1
        14        27     1
        14        28     1
        15        19     1
        15        23     1
        15        32     1
        16        18     1
        16        22     1
        16        26     1
        16        28     1
        17        27     1
        17        31     1
        17        33     1
        18        30     1
        18        34     1
        18        37     1
        18        38     1
        19        28     1
        19        31     1
        19        33     1
        20        25     1
        21        24     1
        22        23     1
        24        25     1
        28        32     1
        29        32     1
        29        37     1
        29        38     1
        30        33     1
        30        39     1
        31        34     1
        31        35     1
        31        38     1
        32        36     1
        32        39     1
        33        35     1
        33        37     1
        34        36     1
        35        36     1
        35        39     1
        36        37     1
        38        39     1
