; ITP file created by ByteFF-joint-25, 2026-02-17 09:34:27.601888

[ atomtypes ]
;name           bonded.type        at.num        mass        charge   ptype           sigma         epsilon
 c0bf                                   6      0.0000       0.00000       A     3.31549e-01     4.13390e-01    ;  uncertainty sigma = 0.000035, epsilon = 0.000966
 c1bf                                   6      0.0000       0.00000       A     3.31564e-01     4.13135e-01    ;  uncertainty sigma = 0.000005, epsilon = 0.000387
 c2bf                                   6      0.0000       0.00000       A     3.31525e-01     4.13295e-01    ;  uncertainty sigma = 0.000005, epsilon = 0.000577
 c3bf                                   6      0.0000       0.00000       A     3.31520e-01     4.12649e-01    ;  uncertainty sigma = 0.000010, epsilon = 0.000842
 c4bf                                   6      0.0000       0.00000       A     3.31499e-01     4.12254e-01    ;  uncertainty sigma = 0.000028, epsilon = 0.000802
 c5bf                                   6      0.0000       0.00000       A     3.31522e-01     4.13552e-01    ;  uncertainty sigma = 0.000009, epsilon = 0.000904
 c6bf                                   6      0.0000       0.00000       A     3.31525e-01     4.13403e-01    ;  uncertainty sigma = 0.000005, epsilon = 0.000549
 c7bf                                   6      0.0000       0.00000       A     3.31564e-01     4.13135e-01    ;  uncertainty sigma = 0.000005, epsilon = 0.000387
 c8bf                                   6      0.0000       0.00000       A     3.31519e-01     4.13371e-01    ;  uncertainty sigma = 0.000005, epsilon = 0.000643
 c9bf                                   6      0.0000       0.00000       A     3.31525e-01     4.13295e-01    ;  uncertainty sigma = 0.000005, epsilon = 0.000577
 cl10bf                                17      0.0000       0.00000       A     3.46613e-01     1.10356e+00    ;  uncertainty sigma = 0.000025, epsilon = 0.001519
 o11bf                                  8      0.0000       0.00000       A     3.04792e-01     6.12550e-01    ;  uncertainty sigma = 0.000022, epsilon = 0.001345
 n12bf                                  7      0.0000       0.00000       A     3.27027e-01     4.91624e-01    ;  uncertainty sigma = 0.000027, epsilon = 0.002173
 n13bf                                  7      0.0000       0.00000       A     3.38414e-01     3.92353e-01    ;  uncertainty sigma = 0.000014, epsilon = 0.000887
 c14bf                                  6      0.0000       0.00000       A     3.31539e-01     4.12320e-01    ;  uncertainty sigma = 0.000017, epsilon = 0.000597
 c15bf                                  6      0.0000       0.00000       A     3.31527e-01     4.13270e-01    ;  uncertainty sigma = 0.000022, epsilon = 0.001274
 n16bf                                  7      0.0000       0.00000       A     3.27048e-01     4.90456e-01    ;  uncertainty sigma = 0.000036, epsilon = 0.001014
 c17bf                                  6      0.0000       0.00000       A     3.31541e-01     4.13426e-01    ;  uncertainty sigma = 0.000016, epsilon = 0.001565
 o18bf                                  8      0.0000       0.00000       A     3.04858e-01     6.12228e-01    ;  uncertainty sigma = 0.000028, epsilon = 0.001819
 c19bf                                  6      0.0000       0.00000       A     3.39700e-01     4.50615e-01    ;  uncertainty sigma = 0.000036, epsilon = 0.001265
 cl20bf                                17      0.0000       0.00000       A     3.46613e-01     1.10356e+00    ;  uncertainty sigma = 0.000025, epsilon = 0.001519
 h21bf                                  1      0.0000       0.00000       A     2.62565e-01     6.70619e-02    ;  uncertainty sigma = 0.000008, epsilon = 0.000556
 h22bf                                  1      0.0000       0.00000       A     2.62534e-01     6.69704e-02    ;  uncertainty sigma = 0.000020, epsilon = 0.000545
 h23bf                                  1      0.0000       0.00000       A     2.53656e-01     6.70482e-02    ;  uncertainty sigma = 0.000017, epsilon = 0.000573
 h24bf                                  1      0.0000       0.00000       A     2.62568e-01     6.69546e-02    ;  uncertainty sigma = 0.000006, epsilon = 0.000527
 h25bf                                  1      0.0000       0.00000       A     2.62565e-01     6.70619e-02    ;  uncertainty sigma = 0.000008, epsilon = 0.000556
 h26bf                                  1      0.0000       0.00000       A     1.10697e-01     4.15615e-02    ;  uncertainty sigma = 0.000094, epsilon = 0.000787
 h27bf                                  1      0.0000       0.00000       A     2.62531e-01     6.69228e-02    ;  uncertainty sigma = 0.000026, epsilon = 0.000688
 h28bf                                  1      0.0000       0.00000       A     1.10689e-01     4.14547e-02    ;  uncertainty sigma = 0.000123, epsilon = 0.001340
 h29bf                                  1      0.0000       0.00000       A     2.42294e-01     8.61400e-02    ;  uncertainty sigma = 0.000052, epsilon = 0.000868
 h30bf                                  1      0.0000       0.00000       A     2.42294e-01     8.61400e-02    ;  uncertainty sigma = 0.000052, epsilon = 0.000868
 o31bf                                  8      0.0000       0.00000       A     3.24228e-01     3.89157e-01    ;  uncertainty sigma = 0.000041, epsilon = 0.000865
 h32bf                                  1      0.0000       0.00000       A     5.37941e-02     1.90881e-02    ;  uncertainty sigma = 0.000120, epsilon = 0.001126

[ moleculetype ]
;name             nrexcl
 MOL                   3

[ atoms ]
;       nr            type      resi   res      atom      cgnr      charge          mass ; qtot
         1            c0bf         1   UNL        c0         1    -0.13673       12.0110 ; qtot   -0.137
         2            c1bf         1   UNL        c1         2     0.06477       12.0110 ; qtot   -0.072
         3            c2bf         1   UNL        c2         3    -0.12372       12.0110 ; qtot   -0.196
         4            c3bf         1   UNL        c3         4     0.13648       12.0110 ; qtot   -0.059
         5            c4bf         1   UNL        c4         5     0.70160       12.0110 ; qtot    0.642
         6            c5bf         1   UNL        c5         6    -0.31812       12.0110 ; qtot    0.324
         7            c6bf         1   UNL        c6         7     0.45431       12.0110 ; qtot    0.779
         8            c7bf         1   UNL        c7         8     0.06477       12.0110 ; qtot    0.843
         9            c8bf         1   UNL        c8         9    -0.09581       12.0110 ; qtot    0.748
        10            c9bf         1   UNL        c9        10    -0.12372       12.0110 ; qtot    0.624
        11          cl10bf         1   UNL      cl10        11    -0.09667       35.4530 ; qtot    0.527
        12           o11bf         1   UNL       o11        12    -0.55036       15.9990 ; qtot   -0.023
        13           n12bf         1   UNL       n12        13    -0.46533       14.0070 ; qtot   -0.489
        14           n13bf         1   UNL       n13        14    -0.72349       14.0070 ; qtot   -1.212
        15           c14bf         1   UNL       c14        15     0.56475       12.0110 ; qtot   -0.647
        16           c15bf         1   UNL       c15        16    -0.30726       12.0110 ; qtot   -0.955
        17           n16bf         1   UNL       n16        17    -0.55599       14.0070 ; qtot   -1.511
        18           c17bf         1   UNL       c17        18     0.64998       12.0110 ; qtot   -0.861
        19           o18bf         1   UNL       o18        19    -0.57198       15.9990 ; qtot   -1.433
        20           c19bf         1   UNL       c19        20     0.05014       12.0110 ; qtot   -1.382
        21          cl20bf         1   UNL      cl20        21    -0.09667       35.4530 ; qtot   -1.479
        22           h21bf         1   UNL       h21        22     0.15894        1.0080 ; qtot   -1.320
        23           h22bf         1   UNL       h22        23     0.16313        1.0080 ; qtot   -1.157
        24           h23bf         1   UNL       h23        24     0.01919        1.0080 ; qtot   -1.138
        25           h24bf         1   UNL       h24        25     0.14278        1.0080 ; qtot   -0.995
        26           h25bf         1   UNL       h25        26     0.15894        1.0080 ; qtot   -0.836
        27           h26bf         1   UNL       h26        27     0.33920        1.0080 ; qtot   -0.497
        28           h27bf         1   UNL       h27        28     0.18077        1.0080 ; qtot   -0.316
        29           h28bf         1   UNL       h28        29     0.35161        1.0080 ; qtot    0.036
        30           h29bf         1   UNL       h29        30     0.07098        1.0080 ; qtot    0.106
        31           h30bf         1   UNL       h30        31     0.07098        1.0080 ; qtot    0.177
        32           o31bf         1   UNL       o31        32    -0.60325       15.9990 ; qtot   -0.426
        33           h32bf         1   UNL       h32        33     0.42578        1.0080 ; qtot   -0.000

[ bonds ]
;       ai        aj funct               r               k
         1         2     1        0.139920   314205.988965    ;  uncertainty r = 0.000059, k = 10.355889
         1         5     1        0.151314   265032.676025    ;  uncertainty r = 0.000141, k = 25.452716
         1         8     1        0.139920   314205.988965    ;  uncertainty r = 0.000059, k = 10.355889
         2         3     1        0.139442   359146.551563    ;  uncertainty r = 0.000054, k = 3.481137
         2        11     1        0.175360   192488.234717    ;  uncertainty r = 0.000074, k = 4.279805
         3         9     1        0.139292   379946.297314    ;  uncertainty r = 0.000031, k = 1.315137
         3        22     1        0.108683   334938.061377    ;  uncertainty r = 0.000015, k = 0.960770
         4         6     1        0.140570   376090.806689    ;  uncertainty r = 0.000061, k = 6.523252
         4        13     1        0.140706   335244.481152    ;  uncertainty r = 0.000185, k = 14.115330
         4        16     1        0.139888   380122.937500    ;  uncertainty r = 0.000080, k = 3.904899
         5        12     1        0.122846   748673.427441    ;  uncertainty r = 0.000143, k = 20.391507
         5        13     1        0.137342   285190.010254    ;  uncertainty r = 0.000166, k = 14.492660
         6         7     1        0.139660   375491.680566    ;  uncertainty r = 0.000079, k = 13.453144
         6        23     1        0.108729   340462.427637    ;  uncertainty r = 0.000049, k = 2.577688
         7        14     1        0.133994   391612.466064    ;  uncertainty r = 0.000075, k = 9.938255
         7        24     1        0.108903   331910.688135    ;  uncertainty r = 0.000036, k = 1.905640
         8        10     1        0.139442   359146.551563    ;  uncertainty r = 0.000054, k = 3.481137
         8        21     1        0.175360   192488.234717    ;  uncertainty r = 0.000074, k = 4.279805
         9        10     1        0.139292   379946.297314    ;  uncertainty r = 0.000031, k = 1.315137
         9        25     1        0.108720   333853.628027    ;  uncertainty r = 0.000011, k = 1.678519
        10        26     1        0.108683   334938.061377    ;  uncertainty r = 0.000015, k = 0.960770
        13        27     1        0.101831   422627.387549    ;  uncertainty r = 0.000095, k = 5.435166
        14        15     1        0.134771   459403.966113    ;  uncertainty r = 0.000127, k = 12.515910
        15        16     1        0.140368   361322.364355    ;  uncertainty r = 0.000174, k = 21.353208
        15        17     1        0.141496   465791.869727    ;  uncertainty r = 0.000168, k = 6.462560
        16        28     1        0.108728   342650.115186    ;  uncertainty r = 0.000071, k = 4.514926
        17        18     1        0.138209   359905.105859    ;  uncertainty r = 0.000157, k = 13.973758
        17        29     1        0.102301   455204.490625    ;  uncertainty r = 0.000078, k = 6.177330
        18        19     1        0.123349   689476.467090    ;  uncertainty r = 0.000119, k = 12.610973
        18        20     1        0.151505   211817.285571    ;  uncertainty r = 0.000194, k = 18.463980
        20        30     1        0.109795   311370.144043    ;  uncertainty r = 0.000088, k = 2.062380
        20        31     1        0.109795   311370.144043    ;  uncertainty r = 0.000088, k = 2.062380
        20        32     1        0.141007   285441.218799    ;  uncertainty r = 0.000217, k = 12.278869
        32        33     1        0.096953   462556.420117    ;  uncertainty r = 0.000033, k = 5.979545

[ angles ]
;       ai        aj        ak funct           theta             cth
         1         2         3     1      124.614235      359.881075    ;  uncertainty theta = 0.007318, k = 0.141141
         1         2        11     1      117.122276      401.475760    ;  uncertainty theta = 0.004274, k = 0.169678
         1         5        12     1      122.451149      457.836639    ;  uncertainty theta = 0.012324, k = 0.396747
         1         5        13     1      112.777939      397.551185    ;  uncertainty theta = 0.004296, k = 0.197514
         1         8        10     1      124.614235      359.881075    ;  uncertainty theta = 0.007318, k = 0.141141
         1         8        21     1      117.122276      401.475760    ;  uncertainty theta = 0.004274, k = 0.169678
         2         1         5     1      120.701454      353.629431    ;  uncertainty theta = 0.013311, k = 0.275393
         2         1         8     1      120.699013      430.079652    ;  uncertainty theta = 0.009492, k = 0.209916
         2         3         9     1      118.495155      498.161267    ;  uncertainty theta = 0.004039, k = 0.062916
         2         3        22     1      120.521286      283.386643    ;  uncertainty theta = 0.002118, k = 0.065156
         3         2        11     1      119.919701      462.386458    ;  uncertainty theta = 0.001017, k = 0.162558
         3         9        10     1      119.368362      506.538875    ;  uncertainty theta = 0.002463, k = 0.055814
         3         9        25     1      119.878922      281.614496    ;  uncertainty theta = 0.001408, k = 0.030814
         4         6         7     1      115.739685      478.573602    ;  uncertainty theta = 0.004925, k = 0.048676
         4         6        23     1      120.342453      269.550669    ;  uncertainty theta = 0.001665, k = 0.097098
         4        13         5     1      117.316322      446.625912    ;  uncertainty theta = 0.002594, k = 0.143032
         4        13        27     1      113.569641      313.594043    ;  uncertainty theta = 0.004804, k = 0.335936
         4        16        15     1      114.564796      482.671478    ;  uncertainty theta = 0.010417, k = 0.179455
         4        16        28     1      120.939209      271.450854    ;  uncertainty theta = 0.003524, k = 0.170658
         5         1         8     1      120.701454      353.629431    ;  uncertainty theta = 0.013311, k = 0.275393
         5        13        27     1      116.863647      359.759902    ;  uncertainty theta = 0.004202, k = 0.178017
         6         4        13     1      120.717148      522.791043    ;  uncertainty theta = 0.004408, k = 0.164372
         6         4        16     1      117.416847      392.902218    ;  uncertainty theta = 0.006627, k = 0.175333
         6         7        14     1      123.543961      696.121300    ;  uncertainty theta = 0.003420, k = 0.078262
         6         7        24     1      120.074997      274.168737    ;  uncertainty theta = 0.001842, k = 0.112779
         7         6        23     1      122.550827      311.952454    ;  uncertainty theta = 0.002566, k = 0.162360
         7        14        15     1      113.183571      422.075588    ;  uncertainty theta = 0.009538, k = 0.231749
         8        10         9     1      118.495155      498.161267    ;  uncertainty theta = 0.004039, k = 0.062916
         8        10        26     1      120.521286      283.386643    ;  uncertainty theta = 0.002118, k = 0.065156
         9         3        22     1      121.431229      283.380802    ;  uncertainty theta = 0.000813, k = 0.055588
         9        10        26     1      121.431229      283.380802    ;  uncertainty theta = 0.000813, k = 0.055588
        10         8        21     1      119.919701      462.386458    ;  uncertainty theta = 0.001017, k = 0.162558
        10         9        25     1      119.878922      281.614496    ;  uncertainty theta = 0.001408, k = 0.030814
        12         5        13     1      122.021950      773.152841    ;  uncertainty theta = 0.004688, k = 0.191943
        13         4        16     1      120.305321      521.084110    ;  uncertainty theta = 0.005936, k = 0.131730
        14         7        24     1      115.960632      320.554885    ;  uncertainty theta = 0.002673, k = 0.119768
        14        15        16     1      123.087181      543.574419    ;  uncertainty theta = 0.009237, k = 0.214324
        14        15        17     1      120.067703      719.664216    ;  uncertainty theta = 0.003230, k = 0.072845
        15        16        28     1      121.624390      278.250556    ;  uncertainty theta = 0.004754, k = 0.115758
        15        17        18     1      120.714493      438.608472    ;  uncertainty theta = 0.002508, k = 0.219345
        15        17        29     1      117.261841      328.293650    ;  uncertainty theta = 0.002997, k = 0.268814
        16        15        17     1      121.155014      539.544791    ;  uncertainty theta = 0.006240, k = 0.264296
        17        18        19     1      124.675095      773.563094    ;  uncertainty theta = 0.001870, k = 0.118326
        17        18        20     1      112.732582      453.543563    ;  uncertainty theta = 0.003391, k = 0.089053
        18        17        29     1      116.855606      287.355749    ;  uncertainty theta = 0.004827, k = 0.480454
        18        20        30     1      107.825089      371.164615    ;  uncertainty theta = 0.002566, k = 0.075381
        18        20        31     1      107.825089      371.164615    ;  uncertainty theta = 0.002566, k = 0.075381
        18        20        32     1      108.327530      550.934150    ;  uncertainty theta = 0.005121, k = 0.234456
        19        18        20     1      123.483887      493.910328    ;  uncertainty theta = 0.005673, k = 0.390407
        20        32        33     1      107.365036      451.636452    ;  uncertainty theta = 0.005587, k = 0.087390
        30        20        31     1      108.662025      328.546500    ;  uncertainty theta = 0.007932, k = 0.136161
        30        20        32     1      108.719986      465.486535    ;  uncertainty theta = 0.003548, k = 0.063792
        31        20        32     1      108.719986      465.486535    ;  uncertainty theta = 0.003548, k = 0.063792

[ dihedrals ] ; propers for gromacs 4.5 or higher, use funct 9
;       ai        aj        ak        al funct           phase               k        pn
         1         2         3         9     9        0.000000        0.129562         1    ;  uncertainty k = 0.258537
         1         2         3         9     9      180.000000        9.006461         2    ;  uncertainty k = 0.178121
         1         2         3         9     9        0.000000        0.010291         3    ;  uncertainty k = 0.509158
         1         2         3         9     9      180.000000        1.179148         4    ;  uncertainty k = 0.340357
         1         2         3        22     9        0.000000        0.017749         1    ;  uncertainty k = 0.506174
         1         2         3        22     9      180.000000        5.847178         2    ;  uncertainty k = 0.808481
         1         2         3        22     9        0.000000        1.301869         3    ;  uncertainty k = 0.271599
         1         2         3        22     9      180.000000        1.572515         4    ;  uncertainty k = 0.163634
         1         5        13         4     9        0.000000        4.012883         1    ;  uncertainty k = 0.741994
         1         5        13         4     9      180.000000       10.050056         2    ;  uncertainty k = 0.176781
         1         5        13         4     9        0.000000        1.524529         3    ;  uncertainty k = 0.439697
         1         5        13         4     9      180.000000       -1.034114         4    ;  uncertainty k = 0.394406
         1         5        13        27     9        0.000000        0.286201         1    ;  uncertainty k = 0.970625
         1         5        13        27     9      180.000000        4.591571         2    ;  uncertainty k = 0.675511
         1         5        13        27     9        0.000000        1.269715         3    ;  uncertainty k = 0.289099
         1         5        13        27     9      180.000000        0.225446         4    ;  uncertainty k = 0.265035
         1         8        10         9     9        0.000000        0.129562         1    ;  uncertainty k = 0.258537
         1         8        10         9     9      180.000000        9.006461         2    ;  uncertainty k = 0.178121
         1         8        10         9     9        0.000000        0.010291         3    ;  uncertainty k = 0.509158
         1         8        10         9     9      180.000000        1.179148         4    ;  uncertainty k = 0.340357
         1         8        10        26     9        0.000000        0.017749         1    ;  uncertainty k = 0.506174
         1         8        10        26     9      180.000000        5.847178         2    ;  uncertainty k = 0.808481
         1         8        10        26     9        0.000000        1.301869         3    ;  uncertainty k = 0.271599
         1         8        10        26     9      180.000000        1.572515         4    ;  uncertainty k = 0.163634
         2         1         5        12     9        0.000000       -0.938458         1    ;  uncertainty k = 0.721948
         2         1         5        12     9      180.000000        3.726943         2    ;  uncertainty k = 0.367149
         2         1         5        12     9        0.000000        0.533107         3    ;  uncertainty k = 0.173933
         2         1         5        12     9      180.000000        0.129066         4    ;  uncertainty k = 0.152302
         2         1         5        13     9        0.000000        1.636802         1    ;  uncertainty k = 0.717500
         2         1         5        13     9      180.000000        0.794893         2    ;  uncertainty k = 0.489697
         2         1         5        13     9        0.000000        0.486371         3    ;  uncertainty k = 0.368442
         2         1         5        13     9      180.000000       -0.111126         4    ;  uncertainty k = 0.129000
         2         1         8        10     9        0.000000        0.157030         1    ;  uncertainty k = 0.251028
         2         1         8        10     9      180.000000        6.621005         2    ;  uncertainty k = 0.890169
         2         1         8        10     9        0.000000        0.446154         3    ;  uncertainty k = 0.192247
         2         1         8        10     9      180.000000        1.346016         4    ;  uncertainty k = 0.373704
         2         1         8        21     9        0.000000        0.044095         1    ;  uncertainty k = 0.788675
         2         1         8        21     9      180.000000        8.268702         2    ;  uncertainty k = 0.180496
         2         1         8        21     9        0.000000        1.453925         3    ;  uncertainty k = 0.378329
         2         1         8        21     9      180.000000        1.534665         4    ;  uncertainty k = 0.225736
         2         3         9        10     9        0.000000        0.056957         1    ;  uncertainty k = 0.125369
         2         3         9        10     9      180.000000       14.284910         2    ;  uncertainty k = 0.214373
         2         3         9        10     9        0.000000       -1.022656         3    ;  uncertainty k = 0.417280
         2         3         9        10     9      180.000000        0.771729         4    ;  uncertainty k = 0.212175
         2         3         9        25     9        0.000000        0.083384         1    ;  uncertainty k = 0.200417
         2         3         9        25     9      180.000000        7.197642         2    ;  uncertainty k = 0.253695
         2         3         9        25     9        0.000000        1.438769         3    ;  uncertainty k = 0.264288
         2         3         9        25     9      180.000000        1.864824         4    ;  uncertainty k = 0.166987
         3         2         1         5     9        0.000000        0.540121         1    ;  uncertainty k = 0.659361
         3         2         1         5     9      180.000000        6.952584         2    ;  uncertainty k = 0.900726
         3         2         1         5     9        0.000000        1.504339         3    ;  uncertainty k = 0.227715
         3         2         1         5     9      180.000000        1.691626         4    ;  uncertainty k = 0.279736
         3         2         1         8     9        0.000000        0.157030         1    ;  uncertainty k = 0.251028
         3         2         1         8     9      180.000000        6.621005         2    ;  uncertainty k = 0.890169
         3         2         1         8     9        0.000000        0.446154         3    ;  uncertainty k = 0.192247
         3         2         1         8     9      180.000000        1.346016         4    ;  uncertainty k = 0.373704
         3         9        10         8     9        0.000000        0.056957         1    ;  uncertainty k = 0.125369
         3         9        10         8     9      180.000000       14.284910         2    ;  uncertainty k = 0.214373
         3         9        10         8     9        0.000000       -1.022656         3    ;  uncertainty k = 0.417280
         3         9        10         8     9      180.000000        0.771729         4    ;  uncertainty k = 0.212175
         3         9        10        26     9        0.000000        0.071341         1    ;  uncertainty k = 0.156537
         3         9        10        26     9      180.000000        7.824333         2    ;  uncertainty k = 0.388735
         3         9        10        26     9        0.000000        1.476015         3    ;  uncertainty k = 0.262591
         3         9        10        26     9      180.000000        1.800034         4    ;  uncertainty k = 0.168947
         4         6         7        14     9        0.000000       -0.195407         1    ;  uncertainty k = 0.224371
         4         6         7        14     9      180.000000       15.656345         2    ;  uncertainty k = 0.436682
         4         6         7        14     9        0.000000       -1.161745         3    ;  uncertainty k = 0.312648
         4         6         7        14     9      180.000000        0.795456         4    ;  uncertainty k = 0.157453
         4         6         7        24     9        0.000000       -0.488021         1    ;  uncertainty k = 0.352061
         4         6         7        24     9      180.000000        6.981430         2    ;  uncertainty k = 0.581321
         4         6         7        24     9        0.000000        1.147582         3    ;  uncertainty k = 0.230024
         4         6         7        24     9      180.000000        1.407164         4    ;  uncertainty k = 0.046480
         4        13         5        12     9        0.000000        3.184547         1    ;  uncertainty k = 1.295174
         4        13         5        12     9      180.000000       13.546940         2    ;  uncertainty k = 0.231063
         4        13         5        12     9        0.000000        0.722658         3    ;  uncertainty k = 0.182961
         4        13         5        12     9      180.000000       -0.666531         4    ;  uncertainty k = 0.131850
         4        16        15        14     9        0.000000       -0.487273         1    ;  uncertainty k = 0.257663
         4        16        15        14     9      180.000000       10.254273         2    ;  uncertainty k = 0.464700
         4        16        15        14     9        0.000000       -0.431221         3    ;  uncertainty k = 0.663331
         4        16        15        14     9      180.000000        1.004158         4    ;  uncertainty k = 0.090954
         4        16        15        17     9        0.000000       -0.053593         1    ;  uncertainty k = 0.581237
         4        16        15        17     9      180.000000        8.718519         2    ;  uncertainty k = 0.582058
         4        16        15        17     9        0.000000        0.821430         3    ;  uncertainty k = 0.451900
         4        16        15        17     9      180.000000        1.235494         4    ;  uncertainty k = 0.503147
         5         1         2        11     9        0.000000        0.293529         1    ;  uncertainty k = 1.201193
         5         1         2        11     9      180.000000        8.809351         2    ;  uncertainty k = 0.492509
         5         1         2        11     9        0.000000        1.507479         3    ;  uncertainty k = 0.181959
         5         1         2        11     9      180.000000        1.331521         4    ;  uncertainty k = 0.158721
         5         1         8        10     9        0.000000        0.540121         1    ;  uncertainty k = 0.659361
         5         1         8        10     9      180.000000        6.952584         2    ;  uncertainty k = 0.900726
         5         1         8        10     9        0.000000        1.504339         3    ;  uncertainty k = 0.227715
         5         1         8        10     9      180.000000        1.691626         4    ;  uncertainty k = 0.279736
         5         1         8        21     9        0.000000        0.293529         1    ;  uncertainty k = 1.201193
         5         1         8        21     9      180.000000        8.809351         2    ;  uncertainty k = 0.492509
         5         1         8        21     9        0.000000        1.507479         3    ;  uncertainty k = 0.181959
         5         1         8        21     9      180.000000        1.331521         4    ;  uncertainty k = 0.158721
         5        13         4         6     9        0.000000        0.671405         1    ;  uncertainty k = 0.779653
         5        13         4         6     9      180.000000        5.171684         2    ;  uncertainty k = 0.343054
         5        13         4         6     9        0.000000        0.900418         3    ;  uncertainty k = 0.162472
         5        13         4         6     9      180.000000        0.037683         4    ;  uncertainty k = 0.022188
         5        13         4        16     9        0.000000        0.711827         1    ;  uncertainty k = 0.532347
         5        13         4        16     9      180.000000        5.530463         2    ;  uncertainty k = 0.448142
         5        13         4        16     9        0.000000        0.877052         3    ;  uncertainty k = 0.137757
         5        13         4        16     9      180.000000        0.010492         4    ;  uncertainty k = 0.127906
         6         4        13        27     9        0.000000        1.029279         1    ;  uncertainty k = 1.463602
         6         4        13        27     9      180.000000        5.196719         2    ;  uncertainty k = 0.208685
         6         4        13        27     9        0.000000        0.851853         3    ;  uncertainty k = 0.351032
         6         4        13        27     9      180.000000        0.326889         4    ;  uncertainty k = 0.129780
         6         4        16        15     9        0.000000       -0.018386         1    ;  uncertainty k = 0.310075
         6         4        16        15     9      180.000000       10.257900         2    ;  uncertainty k = 0.402389
         6         4        16        15     9        0.000000       -0.322179         3    ;  uncertainty k = 0.141601
         6         4        16        15     9      180.000000        1.131778         4    ;  uncertainty k = 0.278038
         6         4        16        28     9        0.000000        0.495810         1    ;  uncertainty k = 0.512648
         6         4        16        28     9      180.000000        7.789312         2    ;  uncertainty k = 0.437403
         6         4        16        28     9        0.000000        1.413160         3    ;  uncertainty k = 0.268514
         6         4        16        28     9      180.000000        1.568179         4    ;  uncertainty k = 0.220540
         6         7        14        15     9        0.000000       -0.399396         1    ;  uncertainty k = 0.297729
         6         7        14        15     9      180.000000       14.546678         2    ;  uncertainty k = 0.399817
         6         7        14        15     9        0.000000        0.760669         3    ;  uncertainty k = 0.437293
         6         7        14        15     9      180.000000        1.334299         4    ;  uncertainty k = 0.256861
         7         6         4        13     9        0.000000       -0.156685         1    ;  uncertainty k = 0.327783
         7         6         4        13     9      180.000000       10.573743         2    ;  uncertainty k = 0.368407
         7         6         4        13     9        0.000000        0.699890         3    ;  uncertainty k = 0.295405
         7         6         4        13     9      180.000000        1.371703         4    ;  uncertainty k = 0.342554
         7         6         4        16     9        0.000000       -0.285179         1    ;  uncertainty k = 0.405985
         7         6         4        16     9      180.000000       10.375539         2    ;  uncertainty k = 0.252930
         7         6         4        16     9        0.000000       -0.505381         3    ;  uncertainty k = 0.471184
         7         6         4        16     9      180.000000        1.111552         4    ;  uncertainty k = 0.116415
         7        14        15        16     9        0.000000       -0.496560         1    ;  uncertainty k = 0.660177
         7        14        15        16     9      180.000000       11.864271         2    ;  uncertainty k = 0.812998
         7        14        15        16     9        0.000000        0.943715         3    ;  uncertainty k = 0.658327
         7        14        15        16     9      180.000000        1.371250         4    ;  uncertainty k = 0.301537
         7        14        15        17     9        0.000000       -0.331102         1    ;  uncertainty k = 1.290232
         7        14        15        17     9      180.000000       15.743144         2    ;  uncertainty k = 0.373447
         7        14        15        17     9        0.000000        1.949893         3    ;  uncertainty k = 0.486073
         7        14        15        17     9      180.000000        1.785685         4    ;  uncertainty k = 0.422778
         8         1         2        11     9        0.000000        0.044095         1    ;  uncertainty k = 0.788675
         8         1         2        11     9      180.000000        8.268702         2    ;  uncertainty k = 0.180496
         8         1         2        11     9        0.000000        1.453925         3    ;  uncertainty k = 0.378329
         8         1         2        11     9      180.000000        1.534665         4    ;  uncertainty k = 0.225736
         8         1         5        12     9        0.000000       -0.938458         1    ;  uncertainty k = 0.721948
         8         1         5        12     9      180.000000        3.726943         2    ;  uncertainty k = 0.367149
         8         1         5        12     9        0.000000        0.533107         3    ;  uncertainty k = 0.173933
         8         1         5        12     9      180.000000        0.129066         4    ;  uncertainty k = 0.152302
         8         1         5        13     9        0.000000        1.636802         1    ;  uncertainty k = 0.717500
         8         1         5        13     9      180.000000        0.794893         2    ;  uncertainty k = 0.489697
         8         1         5        13     9        0.000000        0.486371         3    ;  uncertainty k = 0.368442
         8         1         5        13     9      180.000000       -0.111126         4    ;  uncertainty k = 0.129000
         8        10         9        25     9        0.000000        0.083384         1    ;  uncertainty k = 0.200417
         8        10         9        25     9      180.000000        7.197642         2    ;  uncertainty k = 0.253695
         8        10         9        25     9        0.000000        1.438769         3    ;  uncertainty k = 0.264288
         8        10         9        25     9      180.000000        1.864824         4    ;  uncertainty k = 0.166987
         9         3         2        11     9        0.000000       -0.125974         1    ;  uncertainty k = 0.141879
         9         3         2        11     9      180.000000        9.826857         2    ;  uncertainty k = 0.423980
         9         3         2        11     9        0.000000        1.360528         3    ;  uncertainty k = 0.293318
         9         3         2        11     9      180.000000        1.645146         4    ;  uncertainty k = 0.120261
         9        10         8        21     9        0.000000       -0.125974         1    ;  uncertainty k = 0.141879
         9        10         8        21     9      180.000000        9.826857         2    ;  uncertainty k = 0.423980
         9        10         8        21     9        0.000000        1.360528         3    ;  uncertainty k = 0.293318
         9        10         8        21     9      180.000000        1.645146         4    ;  uncertainty k = 0.120261
        10         9         3        22     9        0.000000        0.071341         1    ;  uncertainty k = 0.156537
        10         9         3        22     9      180.000000        7.824333         2    ;  uncertainty k = 0.388735
        10         9         3        22     9        0.000000        1.476015         3    ;  uncertainty k = 0.262591
        10         9         3        22     9      180.000000        1.800034         4    ;  uncertainty k = 0.168947
        11         2         3        22     9        0.000000       -0.203688         1    ;  uncertainty k = 0.537167
        11         2         3        22     9      180.000000        7.741258         2    ;  uncertainty k = 0.413148
        11         2         3        22     9        0.000000        0.589378         3    ;  uncertainty k = 0.256365
        11         2         3        22     9      180.000000        1.098417         4    ;  uncertainty k = 0.232050
        12         5        13        27     9        0.000000        2.754751         1    ;  uncertainty k = 1.678083
        12         5        13        27     9      180.000000       15.343140         2    ;  uncertainty k = 0.287199
        12         5        13        27     9        0.000000        1.862099         3    ;  uncertainty k = 0.346350
        12         5        13        27     9      180.000000       -0.086397         4    ;  uncertainty k = 0.341591
        13         4         6        23     9        0.000000       -0.319544         1    ;  uncertainty k = 0.345314
        13         4         6        23     9      180.000000        8.037585         2    ;  uncertainty k = 0.455395
        13         4         6        23     9        0.000000        0.835277         3    ;  uncertainty k = 0.138723
        13         4         6        23     9      180.000000        1.127271         4    ;  uncertainty k = 0.123904
        13         4        16        15     9        0.000000       -0.041330         1    ;  uncertainty k = 0.528664
        13         4        16        15     9      180.000000       11.986910         2    ;  uncertainty k = 0.802131
        13         4        16        15     9        0.000000        0.814980         3    ;  uncertainty k = 0.297098
        13         4        16        15     9      180.000000        1.312460         4    ;  uncertainty k = 0.674626
        13         4        16        28     9        0.000000       -0.284940         1    ;  uncertainty k = 0.433757
        13         4        16        28     9      180.000000        8.866330         2    ;  uncertainty k = 0.437510
        13         4        16        28     9        0.000000        0.893476         3    ;  uncertainty k = 0.163359
        13         4        16        28     9      180.000000        1.196102         4    ;  uncertainty k = 0.184028
        14         7         6        23     9        0.000000        0.122843         1    ;  uncertainty k = 0.167730
        14         7         6        23     9      180.000000       10.140002         2    ;  uncertainty k = 0.394062
        14         7         6        23     9        0.000000        1.030077         3    ;  uncertainty k = 0.344283
        14         7         6        23     9      180.000000        1.733914         4    ;  uncertainty k = 0.164436
        14        15        16        28     9        0.000000        0.567151         1    ;  uncertainty k = 0.640388
        14        15        16        28     9      180.000000        7.879071         2    ;  uncertainty k = 0.827163
        14        15        16        28     9        0.000000        1.200780         3    ;  uncertainty k = 0.271019
        14        15        16        28     9      180.000000        1.424587         4    ;  uncertainty k = 0.212072
        14        15        17        18     9        0.000000        2.424903         1    ;  uncertainty k = 0.968900
        14        15        17        18     9      180.000000        6.296338         2    ;  uncertainty k = 0.359167
        14        15        17        18     9        0.000000        0.784399         3    ;  uncertainty k = 0.303043
        14        15        17        18     9      180.000000       -0.189454         4    ;  uncertainty k = 0.177407
        14        15        17        29     9        0.000000        6.205858         1    ;  uncertainty k = 0.477689
        14        15        17        29     9      180.000000        4.416911         2    ;  uncertainty k = 0.425769
        14        15        17        29     9        0.000000        0.108722         3    ;  uncertainty k = 0.203785
        14        15        17        29     9      180.000000        0.160144         4    ;  uncertainty k = 0.299821
        15        14         7        24     9        0.000000       -0.318560         1    ;  uncertainty k = 0.365811
        15        14         7        24     9      180.000000       15.038215         2    ;  uncertainty k = 0.482579
        15        14         7        24     9        0.000000        2.042011         3    ;  uncertainty k = 0.731265
        15        14         7        24     9      180.000000        1.324492         4    ;  uncertainty k = 0.416322
        15        17        18        19     9        0.000000        4.946388         1    ;  uncertainty k = 0.700288
        15        17        18        19     9      180.000000       18.172806         2    ;  uncertainty k = 0.268830
        15        17        18        19     9        0.000000        0.497019         3    ;  uncertainty k = 0.248044
        15        17        18        19     9      180.000000       -1.413896         4    ;  uncertainty k = 0.216982
        15        17        18        20     9        0.000000        6.189797         1    ;  uncertainty k = 0.845115
        15        17        18        20     9      180.000000        8.842104         2    ;  uncertainty k = 0.562282
        15        17        18        20     9        0.000000        1.346859         3    ;  uncertainty k = 0.365998
        15        17        18        20     9      180.000000       -0.440634         4    ;  uncertainty k = 0.376954
        16         4         6        23     9        0.000000        0.271532         1    ;  uncertainty k = 0.336428
        16         4         6        23     9      180.000000        7.226426         2    ;  uncertainty k = 0.631095
        16         4         6        23     9        0.000000        1.360809         3    ;  uncertainty k = 0.281224
        16         4         6        23     9      180.000000        1.471445         4    ;  uncertainty k = 0.135494
        16         4        13        27     9        0.000000        2.082977         1    ;  uncertainty k = 1.379272
        16         4        13        27     9      180.000000        5.485332         2    ;  uncertainty k = 0.410084
        16         4        13        27     9        0.000000        0.777949         3    ;  uncertainty k = 0.387063
        16         4        13        27     9      180.000000        0.268009         4    ;  uncertainty k = 0.118801
        16        15        17        18     9        0.000000        0.056129         1    ;  uncertainty k = 0.836330
        16        15        17        18     9      180.000000        5.031720         2    ;  uncertainty k = 0.102818
        16        15        17        18     9        0.000000        0.770688         3    ;  uncertainty k = 0.181578
        16        15        17        18     9      180.000000       -0.265265         4    ;  uncertainty k = 0.121484
        16        15        17        29     9        0.000000        1.109101         1    ;  uncertainty k = 0.955083
        16        15        17        29     9      180.000000        4.494031         2    ;  uncertainty k = 0.690132
        16        15        17        29     9        0.000000        1.165002         3    ;  uncertainty k = 0.346428
        16        15        17        29     9      180.000000        0.254250         4    ;  uncertainty k = 0.199667
        17        15        16        28     9        0.000000       -0.268989         1    ;  uncertainty k = 0.370023
        17        15        16        28     9      180.000000        6.701956         2    ;  uncertainty k = 0.212008
        17        15        16        28     9        0.000000        0.909658         3    ;  uncertainty k = 0.228448
        17        15        16        28     9      180.000000        0.962740         4    ;  uncertainty k = 0.213058
        17        18        20        30     9        0.000000       -1.445737         1    ;  uncertainty k = 0.663339
        17        18        20        30     9      180.000000        2.339236         2    ;  uncertainty k = 0.419209
        17        18        20        30     9        0.000000        0.409155         3    ;  uncertainty k = 0.100440
        17        18        20        30     9      180.000000        0.137390         4    ;  uncertainty k = 0.062371
        17        18        20        31     9        0.000000       -1.445737         1    ;  uncertainty k = 0.663339
        17        18        20        31     9      180.000000        2.339236         2    ;  uncertainty k = 0.419209
        17        18        20        31     9        0.000000        0.409155         3    ;  uncertainty k = 0.100440
        17        18        20        31     9      180.000000        0.137390         4    ;  uncertainty k = 0.062371
        17        18        20        32     9        0.000000        1.321709         1    ;  uncertainty k = 1.742475
        17        18        20        32     9      180.000000        3.256687         2    ;  uncertainty k = 0.750240
        17        18        20        32     9        0.000000        0.611312         3    ;  uncertainty k = 0.257422
        17        18        20        32     9      180.000000        0.330188         4    ;  uncertainty k = 0.035084
        18        20        32        33     9        0.000000       11.960531         1    ;  uncertainty k = 0.705147
        18        20        32        33     9      180.000000       -5.080103         2    ;  uncertainty k = 0.915720
        18        20        32        33     9        0.000000        0.401556         3    ;  uncertainty k = 0.148199
        18        20        32        33     9      180.000000        0.269354         4    ;  uncertainty k = 0.167685
        19        18        17        29     9        0.000000        2.789297         1    ;  uncertainty k = 1.390016
        19        18        17        29     9      180.000000       15.119836         2    ;  uncertainty k = 0.134636
        19        18        17        29     9        0.000000        1.327628         3    ;  uncertainty k = 0.212644
        19        18        17        29     9      180.000000       -0.289685         4    ;  uncertainty k = 0.181874
        19        18        20        30     9        0.000000       -0.862972         1    ;  uncertainty k = 0.618355
        19        18        20        30     9      180.000000        2.085860         2    ;  uncertainty k = 0.348783
        19        18        20        30     9        0.000000        0.542639         3    ;  uncertainty k = 0.346882
        19        18        20        30     9      180.000000        0.387197         4    ;  uncertainty k = 0.046776
        19        18        20        31     9        0.000000       -0.862972         1    ;  uncertainty k = 0.618355
        19        18        20        31     9      180.000000        2.085860         2    ;  uncertainty k = 0.348783
        19        18        20        31     9        0.000000        0.542639         3    ;  uncertainty k = 0.346882
        19        18        20        31     9      180.000000        0.387197         4    ;  uncertainty k = 0.046776
        19        18        20        32     9        0.000000       -0.393657         1    ;  uncertainty k = 0.300784
        19        18        20        32     9      180.000000        7.670475         2    ;  uncertainty k = 0.435880
        19        18        20        32     9        0.000000        0.450849         3    ;  uncertainty k = 0.485542
        19        18        20        32     9      180.000000        0.350975         4    ;  uncertainty k = 0.074365
        20        18        17        29     9        0.000000        1.519627         1    ;  uncertainty k = 1.269742
        20        18        17        29     9      180.000000        5.307131         2    ;  uncertainty k = 0.726967
        20        18        17        29     9        0.000000        1.501710         3    ;  uncertainty k = 0.392268
        20        18        17        29     9      180.000000        0.042319         4    ;  uncertainty k = 0.274355
        21         8        10        26     9        0.000000       -0.203688         1    ;  uncertainty k = 0.537167
        21         8        10        26     9      180.000000        7.741258         2    ;  uncertainty k = 0.413148
        21         8        10        26     9        0.000000        0.589378         3    ;  uncertainty k = 0.256365
        21         8        10        26     9      180.000000        1.098417         4    ;  uncertainty k = 0.232050
        22         3         9        25     9        0.000000        0.001385         1    ;  uncertainty k = 0.129514
        22         3         9        25     9      180.000000        7.970131         2    ;  uncertainty k = 0.421308
        22         3         9        25     9        0.000000       -0.442113         3    ;  uncertainty k = 0.230001
        22         3         9        25     9      180.000000        0.054396         4    ;  uncertainty k = 0.177102
        23         6         7        24     9        0.000000       -0.486927         1    ;  uncertainty k = 0.274037
        23         6         7        24     9      180.000000        6.750554         2    ;  uncertainty k = 0.157763
        23         6         7        24     9        0.000000        0.049287         3    ;  uncertainty k = 0.230238
        23         6         7        24     9      180.000000        0.424459         4    ;  uncertainty k = 0.124639
        25         9        10        26     9        0.000000        0.001385         1    ;  uncertainty k = 0.129514
        25         9        10        26     9      180.000000        7.970131         2    ;  uncertainty k = 0.421308
        25         9        10        26     9        0.000000       -0.442113         3    ;  uncertainty k = 0.230001
        25         9        10        26     9      180.000000        0.054396         4    ;  uncertainty k = 0.177102
        30        20        32        33     9        0.000000       11.761112         1    ;  uncertainty k = 0.313902
        30        20        32        33     9      180.000000       -1.690570         2    ;  uncertainty k = 0.714987
        30        20        32        33     9        0.000000        0.700168         3    ;  uncertainty k = 0.269888
        30        20        32        33     9      180.000000        0.051222         4    ;  uncertainty k = 0.063249
        31        20        32        33     9        0.000000       11.761111         1    ;  uncertainty k = 0.313900
        31        20        32        33     9      180.000000       -1.690570         2    ;  uncertainty k = 0.714989
        31        20        32        33     9        0.000000        0.700169         3    ;  uncertainty k = 0.269887
        31        20        32        33     9      180.000000        0.051222         4    ;  uncertainty k = 0.063249

[ dihedrals ] ; impropers
;       ai        aj        ak        al funct           phase               k        pn
         1         2         5         8     4      180.000000       12.616542         2    ;  uncertainty k = 0.387975
         1         5         8         2     4      180.000000       12.616542         2    ;  uncertainty k = 0.387975
         1         8         2         5     4      180.000000       12.616542         2    ;  uncertainty k = 0.387975
         2         1         3        11     4      180.000000       14.343354         2    ;  uncertainty k = 0.092046
         2         3        11         1     4      180.000000       14.343354         2    ;  uncertainty k = 0.092046
         2        11         1         3     4      180.000000       14.343354         2    ;  uncertainty k = 0.092046
         3         2         9        22     4      180.000000        3.308569         2    ;  uncertainty k = 0.185728
         3         9        22         2     4      180.000000        3.308569         2    ;  uncertainty k = 0.185728
         3        22         2         9     4      180.000000        3.308569         2    ;  uncertainty k = 0.185728
         4         6        13        16     4      180.000000       20.381320         2    ;  uncertainty k = 0.160244
         4        13        16         6     4      180.000000       20.381320         2    ;  uncertainty k = 0.160244
         4        16         6        13     4      180.000000       20.381320         2    ;  uncertainty k = 0.160244
         5         1        12        13     4      180.000000       56.020619         2    ;  uncertainty k = 0.087383
         5        12        13         1     4      180.000000       56.020619         2    ;  uncertainty k = 0.087383
         5        13         1        12     4      180.000000       56.020619         2    ;  uncertainty k = 0.087383
         6         4         7        23     4      180.000000        0.460309         2    ;  uncertainty k = 0.636565
         6         7        23         4     4      180.000000        0.460309         2    ;  uncertainty k = 0.636565
         6        23         4         7     4      180.000000        0.460309         2    ;  uncertainty k = 0.636565
         7         6        14        24     4      180.000000       14.099144         2    ;  uncertainty k = 0.120134
         7        14        24         6     4      180.000000       14.099144         2    ;  uncertainty k = 0.120134
         7        24         6        14     4      180.000000       14.099144         2    ;  uncertainty k = 0.120134
         8         1        10        21     4      180.000000       14.343354         2    ;  uncertainty k = 0.092046
         8        10        21         1     4      180.000000       14.343354         2    ;  uncertainty k = 0.092046
         8        21         1        10     4      180.000000       14.343354         2    ;  uncertainty k = 0.092046
         9         3        10        25     4      180.000000        4.523845         2    ;  uncertainty k = 0.130961
         9        10        25         3     4      180.000000        4.523845         2    ;  uncertainty k = 0.130961
         9        25         3        10     4      180.000000        4.523845         2    ;  uncertainty k = 0.130961
        10         8         9        26     4      180.000000        3.308569         2    ;  uncertainty k = 0.185728
        10         9        26         8     4      180.000000        3.308569         2    ;  uncertainty k = 0.185728
        10        26         8         9     4      180.000000        3.308569         2    ;  uncertainty k = 0.185728
        13         4         5        27     4      180.000000        0.483818         2    ;  uncertainty k = 0.576474
        13         5        27         4     4      180.000000        0.483818         2    ;  uncertainty k = 0.576474
        13        27         4         5     4      180.000000        0.483818         2    ;  uncertainty k = 0.576474
        15        14        16        17     4      180.000000       27.923374         2    ;  uncertainty k = 0.161521
        15        16        17        14     4      180.000000       27.923374         2    ;  uncertainty k = 0.161521
        15        17        14        16     4      180.000000       27.923374         2    ;  uncertainty k = 0.161521
        16         4        15        28     4      180.000000        1.147545         2    ;  uncertainty k = 0.905587
        16        15        28         4     4      180.000000        1.147545         2    ;  uncertainty k = 0.905587
        16        28         4        15     4      180.000000        1.147545         2    ;  uncertainty k = 0.905587
        17        15        18        29     4      180.000000        0.142960         2    ;  uncertainty k = 0.319669
        17        18        29        15     4      180.000000        0.142960         2    ;  uncertainty k = 0.319669
        17        29        15        18     4      180.000000        0.142960         2    ;  uncertainty k = 0.319669
        18        17        19        20     4      180.000000       53.008559         2    ;  uncertainty k = 0.034024
        18        19        20        17     4      180.000000       53.008559         2    ;  uncertainty k = 0.034024
        18        20        17        19     4      180.000000       53.008559         2    ;  uncertainty k = 0.034024

[ pairs ]
;       ai        aj funct
         1         4     1
         1         9     1
         1        22     1
         1        26     1
         1        27     1
         2        10     1
         2        12     1
         2        13     1
         2        21     1
         2        25     1
         3         5     1
         3         8     1
         3        26     1
         4        12     1
         4        14     1
         4        17     1
         4        24     1
         5         6     1
         5        10     1
         5        11     1
         5        16     1
         5        21     1
         6        15     1
         6        27     1
         6        28     1
         7        13     1
         7        16     1
         7        17     1
         8        11     1
         8        12     1
         8        13     1
         8        25     1
         9        11     1
         9        21     1
        10        22     1
        11        22     1
        12        27     1
        13        15     1
        13        23     1
        13        28     1
        14        18     1
        14        23     1
        14        28     1
        14        29     1
        15        19     1
        15        20     1
        15        24     1
        16        18     1
        16        23     1
        16        27     1
        16        29     1
        17        28     1
        17        30     1
        17        31     1
        17        32     1
        18        33     1
        19        29     1
        19        30     1
        19        31     1
        19        32     1
        20        29     1
        21        26     1
        22        25     1
        23        24     1
        25        26     1
        30        33     1
        31        33     1
