; ITP file created by ByteFF-joint-25, 2026-02-17 09:33:21.497362

[ atomtypes ]
;name           bonded.type        at.num        mass        charge   ptype           sigma         epsilon
 c0bf                                   6      0.0000       0.00000       A     3.31549e-01     4.13390e-01    ;  uncertainty sigma = 0.000035, epsilon = 0.000966
 c1bf                                   6      0.0000       0.00000       A     3.31564e-01     4.13135e-01    ;  uncertainty sigma = 0.000005, epsilon = 0.000387
 c2bf                                   6      0.0000       0.00000       A     3.31525e-01     4.13295e-01    ;  uncertainty sigma = 0.000005, epsilon = 0.000577
 c3bf                                   6      0.0000       0.00000       A     3.31520e-01     4.12649e-01    ;  uncertainty sigma = 0.000010, epsilon = 0.000842
 c4bf                                   6      0.0000       0.00000       A     3.31499e-01     4.12254e-01    ;  uncertainty sigma = 0.000028, epsilon = 0.000802
 c5bf                                   6      0.0000       0.00000       A     3.31522e-01     4.13552e-01    ;  uncertainty sigma = 0.000009, epsilon = 0.000904
 c6bf                                   6      0.0000       0.00000       A     3.31525e-01     4.13403e-01    ;  uncertainty sigma = 0.000005, epsilon = 0.000549
 c7bf                                   6      0.0000       0.00000       A     3.31564e-01     4.13135e-01    ;  uncertainty sigma = 0.000005, epsilon = 0.000387
 c8bf                                   6      0.0000       0.00000       A     3.31519e-01     4.13371e-01    ;  uncertainty sigma = 0.000005, epsilon = 0.000643
 c9bf                                   6      0.0000       0.00000       A     3.31525e-01     4.13295e-01    ;  uncertainty sigma = 0.000005, epsilon = 0.000577
 cl10bf                                17      0.0000       0.00000       A     3.46613e-01     1.10356e+00    ;  uncertainty sigma = 0.000025, epsilon = 0.001519
 o11bf                                  8      0.0000       0.00000       A     3.04792e-01     6.12550e-01    ;  uncertainty sigma = 0.000022, epsilon = 0.001345
 n12bf                                  7      0.0000       0.00000       A     3.27027e-01     4.91624e-01    ;  uncertainty sigma = 0.000027, epsilon = 0.002173
 n13bf                                  7      0.0000       0.00000       A     3.38410e-01     3.92263e-01    ;  uncertainty sigma = 0.000015, epsilon = 0.000857
 c14bf                                  6      0.0000       0.00000       A     3.31545e-01     4.12408e-01    ;  uncertainty sigma = 0.000016, epsilon = 0.000765
 c15bf                                  6      0.0000       0.00000       A     3.31530e-01     4.13228e-01    ;  uncertainty sigma = 0.000023, epsilon = 0.001237
 n16bf                                  7      0.0000       0.00000       A     3.27026e-01     4.90515e-01    ;  uncertainty sigma = 0.000036, epsilon = 0.000575
 c17bf                                  6      0.0000       0.00000       A     3.31510e-01     4.13035e-01    ;  uncertainty sigma = 0.000028, epsilon = 0.001157
 o18bf                                  8      0.0000       0.00000       A     3.04818e-01     6.11863e-01    ;  uncertainty sigma = 0.000019, epsilon = 0.001693
 cl19bf                                17      0.0000       0.00000       A     3.46613e-01     1.10356e+00    ;  uncertainty sigma = 0.000025, epsilon = 0.001519
 h20bf                                  1      0.0000       0.00000       A     2.62565e-01     6.70619e-02    ;  uncertainty sigma = 0.000008, epsilon = 0.000556
 h21bf                                  1      0.0000       0.00000       A     2.62534e-01     6.69704e-02    ;  uncertainty sigma = 0.000020, epsilon = 0.000545
 h22bf                                  1      0.0000       0.00000       A     2.53656e-01     6.70482e-02    ;  uncertainty sigma = 0.000017, epsilon = 0.000573
 h23bf                                  1      0.0000       0.00000       A     2.62568e-01     6.69546e-02    ;  uncertainty sigma = 0.000006, epsilon = 0.000527
 h24bf                                  1      0.0000       0.00000       A     2.62565e-01     6.70619e-02    ;  uncertainty sigma = 0.000008, epsilon = 0.000556
 h25bf                                  1      0.0000       0.00000       A     1.10697e-01     4.15615e-02    ;  uncertainty sigma = 0.000094, epsilon = 0.000787
 h26bf                                  1      0.0000       0.00000       A     2.62531e-01     6.69228e-02    ;  uncertainty sigma = 0.000026, epsilon = 0.000688
 h27bf                                  1      0.0000       0.00000       A     1.10648e-01     4.13453e-02    ;  uncertainty sigma = 0.000129, epsilon = 0.001260
 h28bf                                  1      0.0000       0.00000       A     2.60002e-01     8.63563e-02    ;  uncertainty sigma = 0.000051, epsilon = 0.001390
 c29bf                                  6      0.0000       0.00000       A     3.39782e-01     4.50775e-01    ;  uncertainty sigma = 0.000014, epsilon = 0.000443
 c30bf                                  6      0.0000       0.00000       A     3.39779e-01     4.50553e-01    ;  uncertainty sigma = 0.000011, epsilon = 0.001058
 c31bf                                  6      0.0000       0.00000       A     3.39759e-01     4.51350e-01    ;  uncertainty sigma = 0.000015, epsilon = 0.000866
 c32bf                                  6      0.0000       0.00000       A     3.39779e-01     4.50553e-01    ;  uncertainty sigma = 0.000011, epsilon = 0.001058
 h33bf                                  1      0.0000       0.00000       A     2.60025e-01     8.68321e-02    ;  uncertainty sigma = 0.000015, epsilon = 0.000759
 h34bf                                  1      0.0000       0.00000       A     2.60025e-01     8.68321e-02    ;  uncertainty sigma = 0.000015, epsilon = 0.000759
 h35bf                                  1      0.0000       0.00000       A     2.60029e-01     8.68752e-02    ;  uncertainty sigma = 0.000016, epsilon = 0.000843
 h36bf                                  1      0.0000       0.00000       A     2.60029e-01     8.68753e-02    ;  uncertainty sigma = 0.000016, epsilon = 0.000843
 h37bf                                  1      0.0000       0.00000       A     2.60025e-01     8.68321e-02    ;  uncertainty sigma = 0.000015, epsilon = 0.000759
 h38bf                                  1      0.0000       0.00000       A     2.60025e-01     8.68319e-02    ;  uncertainty sigma = 0.000015, epsilon = 0.000759

[ moleculetype ]
;name             nrexcl
 MOL                   3

[ atoms ]
;       nr            type      resi   res      atom      cgnr      charge          mass ; qtot
         1            c0bf         1   UNL        c0         1    -0.13673       12.0110 ; qtot   -0.137
         2            c1bf         1   UNL        c1         2     0.06477       12.0110 ; qtot   -0.072
         3            c2bf         1   UNL        c2         3    -0.12372       12.0110 ; qtot   -0.196
         4            c3bf         1   UNL        c3         4     0.13616       12.0110 ; qtot   -0.060
         5            c4bf         1   UNL        c4         5     0.70160       12.0110 ; qtot    0.642
         6            c5bf         1   UNL        c5         6    -0.31812       12.0110 ; qtot    0.324
         7            c6bf         1   UNL        c6         7     0.45396       12.0110 ; qtot    0.778
         8            c7bf         1   UNL        c7         8     0.06477       12.0110 ; qtot    0.843
         9            c8bf         1   UNL        c8         9    -0.09581       12.0110 ; qtot    0.747
        10            c9bf         1   UNL        c9        10    -0.12372       12.0110 ; qtot    0.623
        11          cl10bf         1   UNL      cl10        11    -0.09667       35.4530 ; qtot    0.526
        12           o11bf         1   UNL       o11        12    -0.55036       15.9990 ; qtot   -0.024
        13           n12bf         1   UNL       n12        13    -0.46533       14.0070 ; qtot   -0.489
        14           n13bf         1   UNL       n13        14    -0.72287       14.0070 ; qtot   -1.212
        15           c14bf         1   UNL       c14        15     0.56129       12.0110 ; qtot   -0.651
        16           c15bf         1   UNL       c15        16    -0.30726       12.0110 ; qtot   -0.958
        17           n16bf         1   UNL       n16        17    -0.56621       14.0070 ; qtot   -1.524
        18           c17bf         1   UNL       c17        18     0.69069       12.0110 ; qtot   -0.834
        19           o18bf         1   UNL       o18        19    -0.56411       15.9990 ; qtot   -1.398
        20          cl19bf         1   UNL      cl19        20    -0.09667       35.4530 ; qtot   -1.494
        21           h20bf         1   UNL       h20        21     0.15894        1.0080 ; qtot   -1.335
        22           h21bf         1   UNL       h21        22     0.16313        1.0080 ; qtot   -1.172
        23           h22bf         1   UNL       h22        23     0.01919        1.0080 ; qtot   -1.153
        24           h23bf         1   UNL       h23        24     0.14278        1.0080 ; qtot   -1.010
        25           h24bf         1   UNL       h24        25     0.15894        1.0080 ; qtot   -0.851
        26           h25bf         1   UNL       h25        26     0.33920        1.0080 ; qtot   -0.512
        27           h26bf         1   UNL       h26        27     0.18143        1.0080 ; qtot   -0.331
        28           h27bf         1   UNL       h27        28     0.33409        1.0080 ; qtot    0.003
        29           h28bf         1   UNL       h28        29     0.07443        1.0080 ; qtot    0.078
        30           c29bf         1   UNL       c29        30    -0.17683       12.0110 ; qtot   -0.099
        31           c30bf         1   UNL       c30        31    -0.07358       12.0110 ; qtot   -0.173
        32           c31bf         1   UNL       c31        32    -0.09147       12.0110 ; qtot   -0.264
        33           c32bf         1   UNL       c32        33    -0.07358       12.0110 ; qtot   -0.338
        34           h33bf         1   UNL       h33        34     0.05821        1.0080 ; qtot   -0.279
        35           h34bf         1   UNL       h34        35     0.05821        1.0080 ; qtot   -0.221
        36           h35bf         1   UNL       h35        36     0.05244        1.0080 ; qtot   -0.169
        37           h36bf         1   UNL       h36        37     0.05244        1.0080 ; qtot   -0.116
        38           h37bf         1   UNL       h37        38     0.05821        1.0080 ; qtot   -0.058
        39           h38bf         1   UNL       h38        39     0.05816        1.0080 ; qtot   -0.000

[ bonds ]
;       ai        aj funct               r               k
         1         2     1        0.139920   314205.988965    ;  uncertainty r = 0.000059, k = 10.355889
         1         5     1        0.151314   265032.676025    ;  uncertainty r = 0.000141, k = 25.452716
         1         8     1        0.139920   314205.988965    ;  uncertainty r = 0.000059, k = 10.355889
         2         3     1        0.139442   359146.551563    ;  uncertainty r = 0.000054, k = 3.481137
         2        11     1        0.175360   192488.234717    ;  uncertainty r = 0.000074, k = 4.279805
         3         9     1        0.139292   379946.297314    ;  uncertainty r = 0.000031, k = 1.315137
         3        21     1        0.108683   334938.061377    ;  uncertainty r = 0.000015, k = 0.960770
         4         6     1        0.140570   376090.806689    ;  uncertainty r = 0.000061, k = 6.523252
         4        13     1        0.140706   335244.481152    ;  uncertainty r = 0.000185, k = 14.115330
         4        16     1        0.139872   380361.403027    ;  uncertainty r = 0.000078, k = 4.088131
         5        12     1        0.122846   748673.427441    ;  uncertainty r = 0.000143, k = 20.391507
         5        13     1        0.137342   285190.010254    ;  uncertainty r = 0.000166, k = 14.492660
         6         7     1        0.139660   375491.680566    ;  uncertainty r = 0.000079, k = 13.453144
         6        22     1        0.108729   340462.427637    ;  uncertainty r = 0.000049, k = 2.577688
         7        14     1        0.133964   392118.432813    ;  uncertainty r = 0.000083, k = 10.317420
         7        23     1        0.108903   331910.688135    ;  uncertainty r = 0.000036, k = 1.905640
         8        10     1        0.139442   359146.551563    ;  uncertainty r = 0.000054, k = 3.481137
         8        20     1        0.175360   192488.234717    ;  uncertainty r = 0.000074, k = 4.279805
         9        10     1        0.139292   379946.297314    ;  uncertainty r = 0.000031, k = 1.315137
         9        24     1        0.108720   333853.628027    ;  uncertainty r = 0.000011, k = 1.678519
        10        25     1        0.108683   334938.061377    ;  uncertainty r = 0.000015, k = 0.960770
        13        26     1        0.101831   422627.387549    ;  uncertainty r = 0.000095, k = 5.435166
        14        15     1        0.134774   453464.238770    ;  uncertainty r = 0.000126, k = 14.124059
        15        16     1        0.140373   358769.164160    ;  uncertainty r = 0.000178, k = 22.105736
        15        17     1        0.141235   464300.093945    ;  uncertainty r = 0.000086, k = 5.914377
        16        27     1        0.108718   342809.058154    ;  uncertainty r = 0.000075, k = 4.673213
        17        18     1        0.138613   365308.426221    ;  uncertainty r = 0.000134, k = 33.549674
        17        28     1        0.101861   467123.476758    ;  uncertainty r = 0.000053, k = 4.583509
        18        19     1        0.122938   723539.753320    ;  uncertainty r = 0.000071, k = 8.826851
        18        30     1        0.151199   210600.582764    ;  uncertainty r = 0.000131, k = 18.210919
        29        30     1        0.109467   308446.630225    ;  uncertainty r = 0.000035, k = 6.630110
        30        31     1        0.156102   228177.060107    ;  uncertainty r = 0.000059, k = 12.898076
        30        33     1        0.156102   228177.085645    ;  uncertainty r = 0.000059, k = 12.898075
        31        32     1        0.155421   256941.191846    ;  uncertainty r = 0.000039, k = 8.491504
        31        34     1        0.109351   306225.769971    ;  uncertainty r = 0.000017, k = 2.744598
        31        35     1        0.109351   306225.769971    ;  uncertainty r = 0.000017, k = 2.744598
        32        33     1        0.155421   256941.191846    ;  uncertainty r = 0.000039, k = 8.491504
        32        36     1        0.109363   306466.201855    ;  uncertainty r = 0.000013, k = 3.361990
        32        37     1        0.109363   306466.201855    ;  uncertainty r = 0.000013, k = 3.361990
        33        38     1        0.109351   306225.769971    ;  uncertainty r = 0.000017, k = 2.744598
        33        39     1        0.109351   306225.769971    ;  uncertainty r = 0.000017, k = 2.744608

[ angles ]
;       ai        aj        ak funct           theta             cth
         1         2         3     1      124.614235      359.881075    ;  uncertainty theta = 0.007318, k = 0.141141
         1         2        11     1      117.122276      401.475760    ;  uncertainty theta = 0.004274, k = 0.169678
         1         5        12     1      122.451149      457.836639    ;  uncertainty theta = 0.012324, k = 0.396747
         1         5        13     1      112.777939      397.551185    ;  uncertainty theta = 0.004296, k = 0.197514
         1         8        10     1      124.614235      359.881075    ;  uncertainty theta = 0.007318, k = 0.141141
         1         8        20     1      117.122276      401.475760    ;  uncertainty theta = 0.004274, k = 0.169678
         2         1         5     1      120.701454      353.629431    ;  uncertainty theta = 0.013311, k = 0.275393
         2         1         8     1      120.699013      430.079652    ;  uncertainty theta = 0.009492, k = 0.209916
         2         3         9     1      118.495155      498.161267    ;  uncertainty theta = 0.004039, k = 0.062916
         2         3        21     1      120.521286      283.386643    ;  uncertainty theta = 0.002118, k = 0.065156
         3         2        11     1      119.919701      462.386458    ;  uncertainty theta = 0.001017, k = 0.162558
         3         9        10     1      119.368362      506.538875    ;  uncertainty theta = 0.002463, k = 0.055814
         3         9        24     1      119.878922      281.614496    ;  uncertainty theta = 0.001408, k = 0.030814
         4         6         7     1      115.739685      478.573602    ;  uncertainty theta = 0.004925, k = 0.048676
         4         6        22     1      120.342453      269.550669    ;  uncertainty theta = 0.001665, k = 0.097098
         4        13         5     1      117.316322      446.625912    ;  uncertainty theta = 0.002594, k = 0.143032
         4        13        26     1      113.569641      313.594043    ;  uncertainty theta = 0.004804, k = 0.335936
         4        16        15     1      114.598877      481.902875    ;  uncertainty theta = 0.010191, k = 0.182597
         4        16        27     1      120.966141      271.813481    ;  uncertainty theta = 0.003657, k = 0.173452
         5         1         8     1      120.701454      353.629431    ;  uncertainty theta = 0.013311, k = 0.275393
         5        13        26     1      116.863647      359.759902    ;  uncertainty theta = 0.004202, k = 0.178017
         6         4        13     1      120.717148      522.791043    ;  uncertainty theta = 0.004408, k = 0.164372
         6         4        16     1      117.407791      392.335198    ;  uncertainty theta = 0.006705, k = 0.178299
         6         7        14     1      123.541855      694.723462    ;  uncertainty theta = 0.003523, k = 0.078021
         6         7        23     1      120.074997      274.168737    ;  uncertainty theta = 0.001842, k = 0.112779
         7         6        22     1      122.550827      311.952454    ;  uncertainty theta = 0.002566, k = 0.162360
         7        14        15     1      113.219040      423.928082    ;  uncertainty theta = 0.009660, k = 0.231366
         8        10         9     1      118.495155      498.161267    ;  uncertainty theta = 0.004039, k = 0.062916
         8        10        25     1      120.521286      283.386643    ;  uncertainty theta = 0.002118, k = 0.065156
         9         3        21     1      121.431229      283.380802    ;  uncertainty theta = 0.000813, k = 0.055588
         9        10        25     1      121.431229      283.380802    ;  uncertainty theta = 0.000813, k = 0.055588
        10         8        20     1      119.919701      462.386458    ;  uncertainty theta = 0.001017, k = 0.162558
        10         9        24     1      119.878922      281.614496    ;  uncertainty theta = 0.001408, k = 0.030814
        12         5        13     1      122.021950      773.152841    ;  uncertainty theta = 0.004688, k = 0.191943
        13         4        16     1      120.294777      520.068084    ;  uncertainty theta = 0.005859, k = 0.136473
        14         7        23     1      115.957863      320.099558    ;  uncertainty theta = 0.002586, k = 0.115114
        14        15        16     1      123.004845      540.828158    ;  uncertainty theta = 0.009332, k = 0.258217
        14        15        17     1      120.069687      727.163571    ;  uncertainty theta = 0.003831, k = 0.141984
        15        16        27     1      121.647476      276.633993    ;  uncertainty theta = 0.005399, k = 0.119248
        15        17        18     1      121.496178      443.082829    ;  uncertainty theta = 0.002136, k = 0.190851
        15        17        28     1      116.694565      333.476949    ;  uncertainty theta = 0.001497, k = 0.200888
        16        15        17     1      121.495316      542.380176    ;  uncertainty theta = 0.007348, k = 0.238146
        17        18        19     1      122.730431      753.238875    ;  uncertainty theta = 0.002929, k = 0.051650
        17        18        30     1      113.495163      479.061871    ;  uncertainty theta = 0.005518, k = 0.269004
        18        17        28     1      117.122154      272.297154    ;  uncertainty theta = 0.004680, k = 0.323246
        18        30        29     1      108.175354      345.353397    ;  uncertainty theta = 0.003704, k = 0.198673
        18        30        31     1      114.004562      471.153635    ;  uncertainty theta = 0.002135, k = 0.335071
        18        30        33     1      114.004562      471.153635    ;  uncertainty theta = 0.002135, k = 0.335071
        19        18        30     1      124.790085      513.990508    ;  uncertainty theta = 0.004289, k = 0.207324
        29        30        31     1      112.750877      406.791149    ;  uncertainty theta = 0.002556, k = 0.200741
        29        30        33     1      112.750877      406.791149    ;  uncertainty theta = 0.002556, k = 0.200741
        30        31        32     1       89.079857      671.405974    ;  uncertainty theta = 0.004395, k = 0.104476
        30        31        34     1      112.566429      385.624589    ;  uncertainty theta = 0.001977, k = 0.066656
        30        31        35     1      112.566429      385.624589    ;  uncertainty theta = 0.001977, k = 0.066656
        30        33        32     1       89.079857      671.405974    ;  uncertainty theta = 0.004395, k = 0.104476
        30        33        38     1      112.566429      385.624589    ;  uncertainty theta = 0.001977, k = 0.066656
        30        33        39     1      112.566429      385.624589    ;  uncertainty theta = 0.001977, k = 0.066656
        31        30        33     1       89.081253      668.426879    ;  uncertainty theta = 0.003244, k = 0.228111
        31        32        33     1       88.669304      694.496373    ;  uncertainty theta = 0.004427, k = 0.053328
        31        32        36     1      113.865601      404.749840    ;  uncertainty theta = 0.001953, k = 0.034839
        31        32        37     1      113.865601      404.749840    ;  uncertainty theta = 0.001953, k = 0.034839
        32        31        34     1      114.309532      410.061527    ;  uncertainty theta = 0.001948, k = 0.088208
        32        31        35     1      114.309532      410.061527    ;  uncertainty theta = 0.001948, k = 0.088208
        32        33        38     1      114.309532      410.061527    ;  uncertainty theta = 0.001948, k = 0.088208
        32        33        39     1      114.309532      410.061527    ;  uncertainty theta = 0.001948, k = 0.088208
        33        32        36     1      113.865601      404.749840    ;  uncertainty theta = 0.001953, k = 0.034839
        33        32        37     1      113.865601      404.749840    ;  uncertainty theta = 0.001953, k = 0.034839
        34        31        35     1      108.100426      280.014149    ;  uncertainty theta = 0.003737, k = 0.140838
        36        32        37     1      107.680954      274.245571    ;  uncertainty theta = 0.002616, k = 0.118477
        38        33        39     1      108.100426      280.014149    ;  uncertainty theta = 0.003737, k = 0.140838

[ dihedrals ] ; propers for gromacs 4.5 or higher, use funct 9
;       ai        aj        ak        al funct           phase               k        pn
         1         2         3         9     9        0.000000        0.129562         1    ;  uncertainty k = 0.258537
         1         2         3         9     9      180.000000        9.006461         2    ;  uncertainty k = 0.178121
         1         2         3         9     9        0.000000        0.010291         3    ;  uncertainty k = 0.509158
         1         2         3         9     9      180.000000        1.179148         4    ;  uncertainty k = 0.340357
         1         2         3        21     9        0.000000        0.017749         1    ;  uncertainty k = 0.506174
         1         2         3        21     9      180.000000        5.847178         2    ;  uncertainty k = 0.808481
         1         2         3        21     9        0.000000        1.301869         3    ;  uncertainty k = 0.271599
         1         2         3        21     9      180.000000        1.572515         4    ;  uncertainty k = 0.163634
         1         5        13         4     9        0.000000        4.012883         1    ;  uncertainty k = 0.741994
         1         5        13         4     9      180.000000       10.050056         2    ;  uncertainty k = 0.176781
         1         5        13         4     9        0.000000        1.524529         3    ;  uncertainty k = 0.439697
         1         5        13         4     9      180.000000       -1.034114         4    ;  uncertainty k = 0.394406
         1         5        13        26     9        0.000000        0.286201         1    ;  uncertainty k = 0.970625
         1         5        13        26     9      180.000000        4.591571         2    ;  uncertainty k = 0.675511
         1         5        13        26     9        0.000000        1.269715         3    ;  uncertainty k = 0.289099
         1         5        13        26     9      180.000000        0.225446         4    ;  uncertainty k = 0.265035
         1         8        10         9     9        0.000000        0.129562         1    ;  uncertainty k = 0.258537
         1         8        10         9     9      180.000000        9.006461         2    ;  uncertainty k = 0.178121
         1         8        10         9     9        0.000000        0.010291         3    ;  uncertainty k = 0.509158
         1         8        10         9     9      180.000000        1.179148         4    ;  uncertainty k = 0.340357
         1         8        10        25     9        0.000000        0.017749         1    ;  uncertainty k = 0.506174
         1         8        10        25     9      180.000000        5.847178         2    ;  uncertainty k = 0.808481
         1         8        10        25     9        0.000000        1.301869         3    ;  uncertainty k = 0.271599
         1         8        10        25     9      180.000000        1.572515         4    ;  uncertainty k = 0.163634
         2         1         5        12     9        0.000000       -0.938458         1    ;  uncertainty k = 0.721948
         2         1         5        12     9      180.000000        3.726943         2    ;  uncertainty k = 0.367149
         2         1         5        12     9        0.000000        0.533107         3    ;  uncertainty k = 0.173933
         2         1         5        12     9      180.000000        0.129066         4    ;  uncertainty k = 0.152302
         2         1         5        13     9        0.000000        1.636802         1    ;  uncertainty k = 0.717500
         2         1         5        13     9      180.000000        0.794893         2    ;  uncertainty k = 0.489697
         2         1         5        13     9        0.000000        0.486371         3    ;  uncertainty k = 0.368442
         2         1         5        13     9      180.000000       -0.111126         4    ;  uncertainty k = 0.129000
         2         1         8        10     9        0.000000        0.157030         1    ;  uncertainty k = 0.251028
         2         1         8        10     9      180.000000        6.621005         2    ;  uncertainty k = 0.890169
         2         1         8        10     9        0.000000        0.446154         3    ;  uncertainty k = 0.192247
         2         1         8        10     9      180.000000        1.346016         4    ;  uncertainty k = 0.373704
         2         1         8        20     9        0.000000        0.044095         1    ;  uncertainty k = 0.788675
         2         1         8        20     9      180.000000        8.268702         2    ;  uncertainty k = 0.180496
         2         1         8        20     9        0.000000        1.453925         3    ;  uncertainty k = 0.378329
         2         1         8        20     9      180.000000        1.534665         4    ;  uncertainty k = 0.225736
         2         3         9        10     9        0.000000        0.056957         1    ;  uncertainty k = 0.125369
         2         3         9        10     9      180.000000       14.284910         2    ;  uncertainty k = 0.214373
         2         3         9        10     9        0.000000       -1.022656         3    ;  uncertainty k = 0.417280
         2         3         9        10     9      180.000000        0.771729         4    ;  uncertainty k = 0.212175
         2         3         9        24     9        0.000000        0.083384         1    ;  uncertainty k = 0.200417
         2         3         9        24     9      180.000000        7.197642         2    ;  uncertainty k = 0.253695
         2         3         9        24     9        0.000000        1.438769         3    ;  uncertainty k = 0.264288
         2         3         9        24     9      180.000000        1.864824         4    ;  uncertainty k = 0.166987
         3         2         1         5     9        0.000000        0.540121         1    ;  uncertainty k = 0.659361
         3         2         1         5     9      180.000000        6.952584         2    ;  uncertainty k = 0.900726
         3         2         1         5     9        0.000000        1.504339         3    ;  uncertainty k = 0.227715
         3         2         1         5     9      180.000000        1.691626         4    ;  uncertainty k = 0.279736
         3         2         1         8     9        0.000000        0.157030         1    ;  uncertainty k = 0.251028
         3         2         1         8     9      180.000000        6.621005         2    ;  uncertainty k = 0.890169
         3         2         1         8     9        0.000000        0.446154         3    ;  uncertainty k = 0.192247
         3         2         1         8     9      180.000000        1.346016         4    ;  uncertainty k = 0.373704
         3         9        10         8     9        0.000000        0.056957         1    ;  uncertainty k = 0.125369
         3         9        10         8     9      180.000000       14.284910         2    ;  uncertainty k = 0.214373
         3         9        10         8     9        0.000000       -1.022656         3    ;  uncertainty k = 0.417280
         3         9        10         8     9      180.000000        0.771729         4    ;  uncertainty k = 0.212175
         3         9        10        25     9        0.000000        0.071341         1    ;  uncertainty k = 0.156537
         3         9        10        25     9      180.000000        7.824333         2    ;  uncertainty k = 0.388735
         3         9        10        25     9        0.000000        1.476015         3    ;  uncertainty k = 0.262591
         3         9        10        25     9      180.000000        1.800034         4    ;  uncertainty k = 0.168947
         4         6         7        14     9        0.000000       -0.192621         1    ;  uncertainty k = 0.237110
         4         6         7        14     9      180.000000       15.644844         2    ;  uncertainty k = 0.434445
         4         6         7        14     9        0.000000       -1.142728         3    ;  uncertainty k = 0.299953
         4         6         7        14     9      180.000000        0.796883         4    ;  uncertainty k = 0.161625
         4         6         7        23     9        0.000000       -0.488021         1    ;  uncertainty k = 0.352061
         4         6         7        23     9      180.000000        6.981430         2    ;  uncertainty k = 0.581321
         4         6         7        23     9        0.000000        1.147582         3    ;  uncertainty k = 0.230024
         4         6         7        23     9      180.000000        1.407164         4    ;  uncertainty k = 0.046480
         4        13         5        12     9        0.000000        3.184547         1    ;  uncertainty k = 1.295174
         4        13         5        12     9      180.000000       13.546940         2    ;  uncertainty k = 0.231063
         4        13         5        12     9        0.000000        0.722658         3    ;  uncertainty k = 0.182961
         4        13         5        12     9      180.000000       -0.666531         4    ;  uncertainty k = 0.131850
         4        16        15        14     9        0.000000       -0.457546         1    ;  uncertainty k = 0.244635
         4        16        15        14     9      180.000000       10.246404         2    ;  uncertainty k = 0.451229
         4        16        15        14     9        0.000000       -0.455890         3    ;  uncertainty k = 0.672631
         4        16        15        14     9      180.000000        0.996160         4    ;  uncertainty k = 0.097663
         4        16        15        17     9        0.000000        0.042810         1    ;  uncertainty k = 0.579571
         4        16        15        17     9      180.000000        8.579712         2    ;  uncertainty k = 0.519303
         4        16        15        17     9        0.000000        0.890412         3    ;  uncertainty k = 0.361170
         4        16        15        17     9      180.000000        1.239480         4    ;  uncertainty k = 0.497414
         5         1         2        11     9        0.000000        0.293529         1    ;  uncertainty k = 1.201193
         5         1         2        11     9      180.000000        8.809351         2    ;  uncertainty k = 0.492509
         5         1         2        11     9        0.000000        1.507479         3    ;  uncertainty k = 0.181959
         5         1         2        11     9      180.000000        1.331521         4    ;  uncertainty k = 0.158721
         5         1         8        10     9        0.000000        0.540121         1    ;  uncertainty k = 0.659361
         5         1         8        10     9      180.000000        6.952584         2    ;  uncertainty k = 0.900726
         5         1         8        10     9        0.000000        1.504339         3    ;  uncertainty k = 0.227715
         5         1         8        10     9      180.000000        1.691626         4    ;  uncertainty k = 0.279736
         5         1         8        20     9        0.000000        0.293529         1    ;  uncertainty k = 1.201193
         5         1         8        20     9      180.000000        8.809351         2    ;  uncertainty k = 0.492509
         5         1         8        20     9        0.000000        1.507479         3    ;  uncertainty k = 0.181959
         5         1         8        20     9      180.000000        1.331521         4    ;  uncertainty k = 0.158721
         5        13         4         6     9        0.000000        0.671405         1    ;  uncertainty k = 0.779653
         5        13         4         6     9      180.000000        5.171684         2    ;  uncertainty k = 0.343054
         5        13         4         6     9        0.000000        0.900418         3    ;  uncertainty k = 0.162472
         5        13         4         6     9      180.000000        0.037683         4    ;  uncertainty k = 0.022188
         5        13         4        16     9        0.000000        0.704889         1    ;  uncertainty k = 0.560006
         5        13         4        16     9      180.000000        5.532280         2    ;  uncertainty k = 0.442309
         5        13         4        16     9        0.000000        0.875210         3    ;  uncertainty k = 0.142203
         5        13         4        16     9      180.000000        0.010429         4    ;  uncertainty k = 0.125660
         6         4        13        26     9        0.000000        1.029279         1    ;  uncertainty k = 1.463602
         6         4        13        26     9      180.000000        5.196719         2    ;  uncertainty k = 0.208685
         6         4        13        26     9        0.000000        0.851853         3    ;  uncertainty k = 0.351032
         6         4        13        26     9      180.000000        0.326889         4    ;  uncertainty k = 0.129780
         6         4        16        15     9        0.000000       -0.008228         1    ;  uncertainty k = 0.310754
         6         4        16        15     9      180.000000       10.265714         2    ;  uncertainty k = 0.428626
         6         4        16        15     9        0.000000       -0.313880         3    ;  uncertainty k = 0.133887
         6         4        16        15     9      180.000000        1.132702         4    ;  uncertainty k = 0.293733
         6         4        16        27     9        0.000000        0.491897         1    ;  uncertainty k = 0.516271
         6         4        16        27     9      180.000000        7.804960         2    ;  uncertainty k = 0.435782
         6         4        16        27     9        0.000000        1.410026         3    ;  uncertainty k = 0.263053
         6         4        16        27     9      180.000000        1.567697         4    ;  uncertainty k = 0.221858
         6         7        14        15     9        0.000000       -0.412066         1    ;  uncertainty k = 0.308692
         6         7        14        15     9      180.000000       14.573818         2    ;  uncertainty k = 0.392543
         6         7        14        15     9        0.000000        0.756077         3    ;  uncertainty k = 0.430970
         6         7        14        15     9      180.000000        1.331290         4    ;  uncertainty k = 0.248417
         7         6         4        13     9        0.000000       -0.156685         1    ;  uncertainty k = 0.327783
         7         6         4        13     9      180.000000       10.573743         2    ;  uncertainty k = 0.368407
         7         6         4        13     9        0.000000        0.699890         3    ;  uncertainty k = 0.295405
         7         6         4        13     9      180.000000        1.371703         4    ;  uncertainty k = 0.342554
         7         6         4        16     9        0.000000       -0.296559         1    ;  uncertainty k = 0.407066
         7         6         4        16     9      180.000000       10.400162         2    ;  uncertainty k = 0.254697
         7         6         4        16     9        0.000000       -0.502688         3    ;  uncertainty k = 0.482404
         7         6         4        16     9      180.000000        1.109046         4    ;  uncertainty k = 0.116750
         7        14        15        16     9        0.000000       -0.550490         1    ;  uncertainty k = 0.698563
         7        14        15        16     9      180.000000       11.769098         2    ;  uncertainty k = 0.829569
         7        14        15        16     9        0.000000        0.968404         3    ;  uncertainty k = 0.654867
         7        14        15        16     9      180.000000        1.353760         4    ;  uncertainty k = 0.302462
         7        14        15        17     9        0.000000       -0.321341         1    ;  uncertainty k = 1.332058
         7        14        15        17     9      180.000000       15.883906         2    ;  uncertainty k = 0.295468
         7        14        15        17     9        0.000000        2.032731         3    ;  uncertainty k = 0.356433
         7        14        15        17     9      180.000000        1.751565         4    ;  uncertainty k = 0.406623
         8         1         2        11     9        0.000000        0.044095         1    ;  uncertainty k = 0.788675
         8         1         2        11     9      180.000000        8.268702         2    ;  uncertainty k = 0.180496
         8         1         2        11     9        0.000000        1.453925         3    ;  uncertainty k = 0.378329
         8         1         2        11     9      180.000000        1.534665         4    ;  uncertainty k = 0.225736
         8         1         5        12     9        0.000000       -0.938458         1    ;  uncertainty k = 0.721948
         8         1         5        12     9      180.000000        3.726943         2    ;  uncertainty k = 0.367149
         8         1         5        12     9        0.000000        0.533107         3    ;  uncertainty k = 0.173933
         8         1         5        12     9      180.000000        0.129066         4    ;  uncertainty k = 0.152302
         8         1         5        13     9        0.000000        1.636802         1    ;  uncertainty k = 0.717500
         8         1         5        13     9      180.000000        0.794893         2    ;  uncertainty k = 0.489697
         8         1         5        13     9        0.000000        0.486371         3    ;  uncertainty k = 0.368442
         8         1         5        13     9      180.000000       -0.111126         4    ;  uncertainty k = 0.129000
         8        10         9        24     9        0.000000        0.083384         1    ;  uncertainty k = 0.200417
         8        10         9        24     9      180.000000        7.197642         2    ;  uncertainty k = 0.253695
         8        10         9        24     9        0.000000        1.438769         3    ;  uncertainty k = 0.264288
         8        10         9        24     9      180.000000        1.864824         4    ;  uncertainty k = 0.166987
         9         3         2        11     9        0.000000       -0.125974         1    ;  uncertainty k = 0.141879
         9         3         2        11     9      180.000000        9.826857         2    ;  uncertainty k = 0.423980
         9         3         2        11     9        0.000000        1.360528         3    ;  uncertainty k = 0.293318
         9         3         2        11     9      180.000000        1.645146         4    ;  uncertainty k = 0.120261
         9        10         8        20     9        0.000000       -0.125974         1    ;  uncertainty k = 0.141879
         9        10         8        20     9      180.000000        9.826857         2    ;  uncertainty k = 0.423980
         9        10         8        20     9        0.000000        1.360528         3    ;  uncertainty k = 0.293318
         9        10         8        20     9      180.000000        1.645146         4    ;  uncertainty k = 0.120261
        10         9         3        21     9        0.000000        0.071341         1    ;  uncertainty k = 0.156537
        10         9         3        21     9      180.000000        7.824333         2    ;  uncertainty k = 0.388735
        10         9         3        21     9        0.000000        1.476015         3    ;  uncertainty k = 0.262591
        10         9         3        21     9      180.000000        1.800034         4    ;  uncertainty k = 0.168947
        11         2         3        21     9        0.000000       -0.203688         1    ;  uncertainty k = 0.537167
        11         2         3        21     9      180.000000        7.741258         2    ;  uncertainty k = 0.413148
        11         2         3        21     9        0.000000        0.589378         3    ;  uncertainty k = 0.256365
        11         2         3        21     9      180.000000        1.098417         4    ;  uncertainty k = 0.232050
        12         5        13        26     9        0.000000        2.754751         1    ;  uncertainty k = 1.678083
        12         5        13        26     9      180.000000       15.343140         2    ;  uncertainty k = 0.287199
        12         5        13        26     9        0.000000        1.862099         3    ;  uncertainty k = 0.346350
        12         5        13        26     9      180.000000       -0.086397         4    ;  uncertainty k = 0.341591
        13         4         6        22     9        0.000000       -0.319544         1    ;  uncertainty k = 0.345314
        13         4         6        22     9      180.000000        8.037585         2    ;  uncertainty k = 0.455395
        13         4         6        22     9        0.000000        0.835277         3    ;  uncertainty k = 0.138723
        13         4         6        22     9      180.000000        1.127271         4    ;  uncertainty k = 0.123904
        13         4        16        15     9        0.000000       -0.039915         1    ;  uncertainty k = 0.554186
        13         4        16        15     9      180.000000       11.984987         2    ;  uncertainty k = 0.835832
        13         4        16        15     9        0.000000        0.821738         3    ;  uncertainty k = 0.279616
        13         4        16        15     9      180.000000        1.293915         4    ;  uncertainty k = 0.699753
        13         4        16        27     9        0.000000       -0.273029         1    ;  uncertainty k = 0.438323
        13         4        16        27     9      180.000000        8.884328         2    ;  uncertainty k = 0.432253
        13         4        16        27     9        0.000000        0.890072         3    ;  uncertainty k = 0.164195
        13         4        16        27     9      180.000000        1.195561         4    ;  uncertainty k = 0.177846
        14         7         6        22     9        0.000000        0.118559         1    ;  uncertainty k = 0.165708
        14         7         6        22     9      180.000000       10.143422         2    ;  uncertainty k = 0.403650
        14         7         6        22     9        0.000000        1.029600         3    ;  uncertainty k = 0.341025
        14         7         6        22     9      180.000000        1.733950         4    ;  uncertainty k = 0.165748
        14        15        16        27     9        0.000000        0.586379         1    ;  uncertainty k = 0.672876
        14        15        16        27     9      180.000000        7.853777         2    ;  uncertainty k = 0.845397
        14        15        16        27     9        0.000000        1.200953         3    ;  uncertainty k = 0.258470
        14        15        16        27     9      180.000000        1.420555         4    ;  uncertainty k = 0.223941
        14        15        17        18     9        0.000000        1.606224         1    ;  uncertainty k = 0.677687
        14        15        17        18     9      180.000000        5.729839         2    ;  uncertainty k = 0.357744
        14        15        17        18     9        0.000000        0.937707         3    ;  uncertainty k = 0.156688
        14        15        17        18     9      180.000000       -0.124158         4    ;  uncertainty k = 0.150602
        14        15        17        28     9        0.000000        6.146874         1    ;  uncertainty k = 0.785173
        14        15        17        28     9      180.000000        4.746013         2    ;  uncertainty k = 0.652177
        14        15        17        28     9        0.000000        0.100760         3    ;  uncertainty k = 0.330275
        14        15        17        28     9      180.000000        0.109319         4    ;  uncertainty k = 0.269648
        15        14         7        23     9        0.000000       -0.316627         1    ;  uncertainty k = 0.326593
        15        14         7        23     9      180.000000       15.078391         2    ;  uncertainty k = 0.492228
        15        14         7        23     9        0.000000        2.033805         3    ;  uncertainty k = 0.724286
        15        14         7        23     9      180.000000        1.310847         4    ;  uncertainty k = 0.433398
        15        17        18        19     9        0.000000        4.579206         1    ;  uncertainty k = 0.462270
        15        17        18        19     9      180.000000       16.999300         2    ;  uncertainty k = 0.228372
        15        17        18        19     9        0.000000        0.464577         3    ;  uncertainty k = 0.197954
        15        17        18        19     9      180.000000       -1.301585         4    ;  uncertainty k = 0.169845
        15        17        18        30     9        0.000000        4.519205         1    ;  uncertainty k = 0.492242
        15        17        18        30     9      180.000000        7.390565         2    ;  uncertainty k = 0.376749
        15        17        18        30     9        0.000000        0.898009         3    ;  uncertainty k = 0.128031
        15        17        18        30     9      180.000000       -0.313370         4    ;  uncertainty k = 0.235073
        16         4         6        22     9        0.000000        0.269702         1    ;  uncertainty k = 0.335738
        16         4         6        22     9      180.000000        7.241824         2    ;  uncertainty k = 0.622323
        16         4         6        22     9        0.000000        1.351394         3    ;  uncertainty k = 0.284636
        16         4         6        22     9      180.000000        1.469646         4    ;  uncertainty k = 0.132076
        16         4        13        26     9        0.000000        2.046924         1    ;  uncertainty k = 1.374276
        16         4        13        26     9      180.000000        5.500114         2    ;  uncertainty k = 0.424916
        16         4        13        26     9        0.000000        0.770166         3    ;  uncertainty k = 0.380996
        16         4        13        26     9      180.000000        0.261670         4    ;  uncertainty k = 0.124224
        16        15        17        18     9        0.000000       -0.019067         1    ;  uncertainty k = 0.972546
        16        15        17        18     9      180.000000        4.673244         2    ;  uncertainty k = 0.137206
        16        15        17        18     9        0.000000        0.498743         3    ;  uncertainty k = 0.108975
        16        15        17        18     9      180.000000       -0.141186         4    ;  uncertainty k = 0.164843
        16        15        17        28     9        0.000000        0.842400         1    ;  uncertainty k = 1.019252
        16        15        17        28     9      180.000000        4.590564         2    ;  uncertainty k = 0.437108
        16        15        17        28     9        0.000000        1.200842         3    ;  uncertainty k = 0.354778
        16        15        17        28     9      180.000000        0.165537         4    ;  uncertainty k = 0.167461
        17        15        16        27     9        0.000000       -0.341779         1    ;  uncertainty k = 0.487059
        17        15        16        27     9      180.000000        6.546419         2    ;  uncertainty k = 0.295344
        17        15        16        27     9        0.000000        0.805996         3    ;  uncertainty k = 0.219789
        17        15        16        27     9      180.000000        0.959408         4    ;  uncertainty k = 0.207688
        17        18        30        29     9        0.000000       -1.406088         1    ;  uncertainty k = 0.245770
        17        18        30        29     9      180.000000        1.394869         2    ;  uncertainty k = 0.390882
        17        18        30        29     9        0.000000        0.410612         3    ;  uncertainty k = 0.101588
        17        18        30        29     9      180.000000        0.162634         4    ;  uncertainty k = 0.130803
        17        18        30        31     9        0.000000       -0.764560         1    ;  uncertainty k = 0.530687
        17        18        30        31     9      180.000000        1.432622         2    ;  uncertainty k = 0.480993
        17        18        30        31     9        0.000000        0.590146         3    ;  uncertainty k = 0.210462
        17        18        30        31     9      180.000000        0.232127         4    ;  uncertainty k = 0.094167
        17        18        30        33     9        0.000000       -0.764560         1    ;  uncertainty k = 0.530687
        17        18        30        33     9      180.000000        1.432622         2    ;  uncertainty k = 0.480993
        17        18        30        33     9        0.000000        0.590146         3    ;  uncertainty k = 0.210462
        17        18        30        33     9      180.000000        0.232127         4    ;  uncertainty k = 0.094167
        18        30        31        32     9        0.000000       -0.908207         1    ;  uncertainty k = 2.582223
        18        30        31        32     9      180.000000        4.420783         2    ;  uncertainty k = 1.075607
        18        30        31        32     9        0.000000        1.391611         3    ;  uncertainty k = 0.266318
        18        30        31        32     9      180.000000        1.030977         4    ;  uncertainty k = 0.323159
        18        30        31        34     9        0.000000        0.536582         1    ;  uncertainty k = 1.012405
        18        30        31        34     9      180.000000       -1.431366         2    ;  uncertainty k = 0.781522
        18        30        31        34     9        0.000000        1.735386         3    ;  uncertainty k = 0.347337
        18        30        31        34     9      180.000000        0.111607         4    ;  uncertainty k = 0.209199
        18        30        31        35     9        0.000000        0.536582         1    ;  uncertainty k = 1.012405
        18        30        31        35     9      180.000000       -1.431366         2    ;  uncertainty k = 0.781522
        18        30        31        35     9        0.000000        1.735386         3    ;  uncertainty k = 0.347337
        18        30        31        35     9      180.000000        0.111607         4    ;  uncertainty k = 0.209199
        18        30        33        32     9        0.000000       -0.908207         1    ;  uncertainty k = 2.582223
        18        30        33        32     9      180.000000        4.420783         2    ;  uncertainty k = 1.075607
        18        30        33        32     9        0.000000        1.391611         3    ;  uncertainty k = 0.266318
        18        30        33        32     9      180.000000        1.030977         4    ;  uncertainty k = 0.323159
        18        30        33        38     9        0.000000        0.536582         1    ;  uncertainty k = 1.012405
        18        30        33        38     9      180.000000       -1.431366         2    ;  uncertainty k = 0.781522
        18        30        33        38     9        0.000000        1.735386         3    ;  uncertainty k = 0.347337
        18        30        33        38     9      180.000000        0.111607         4    ;  uncertainty k = 0.209199
        18        30        33        39     9        0.000000        0.536582         1    ;  uncertainty k = 1.012405
        18        30        33        39     9      180.000000       -1.431366         2    ;  uncertainty k = 0.781522
        18        30        33        39     9        0.000000        1.735386         3    ;  uncertainty k = 0.347337
        18        30        33        39     9      180.000000        0.111607         4    ;  uncertainty k = 0.209199
        19        18        17        28     9        0.000000        3.069975         1    ;  uncertainty k = 0.663969
        19        18        17        28     9      180.000000       14.861718         2    ;  uncertainty k = 0.366352
        19        18        17        28     9        0.000000        0.832497         3    ;  uncertainty k = 0.359964
        19        18        17        28     9      180.000000       -0.182954         4    ;  uncertainty k = 0.198807
        19        18        30        29     9        0.000000        0.883504         1    ;  uncertainty k = 0.611543
        19        18        30        29     9      180.000000        1.162436         2    ;  uncertainty k = 0.480930
        19        18        30        29     9        0.000000        0.677812         3    ;  uncertainty k = 0.151443
        19        18        30        29     9      180.000000        0.341754         4    ;  uncertainty k = 0.143315
        19        18        30        31     9        0.000000       -1.914335         1    ;  uncertainty k = 0.574055
        19        18        30        31     9      180.000000        3.537230         2    ;  uncertainty k = 0.537868
        19        18        30        31     9        0.000000        0.977130         3    ;  uncertainty k = 0.195789
        19        18        30        31     9      180.000000        0.315669         4    ;  uncertainty k = 0.119572
        19        18        30        33     9        0.000000       -1.914335         1    ;  uncertainty k = 0.574055
        19        18        30        33     9      180.000000        3.537230         2    ;  uncertainty k = 0.537868
        19        18        30        33     9        0.000000        0.977130         3    ;  uncertainty k = 0.195789
        19        18        30        33     9      180.000000        0.315669         4    ;  uncertainty k = 0.119572
        20         8        10        25     9        0.000000       -0.203688         1    ;  uncertainty k = 0.537167
        20         8        10        25     9      180.000000        7.741258         2    ;  uncertainty k = 0.413148
        20         8        10        25     9        0.000000        0.589378         3    ;  uncertainty k = 0.256365
        20         8        10        25     9      180.000000        1.098417         4    ;  uncertainty k = 0.232050
        21         3         9        24     9        0.000000        0.001385         1    ;  uncertainty k = 0.129514
        21         3         9        24     9      180.000000        7.970131         2    ;  uncertainty k = 0.421308
        21         3         9        24     9        0.000000       -0.442113         3    ;  uncertainty k = 0.230001
        21         3         9        24     9      180.000000        0.054396         4    ;  uncertainty k = 0.177102
        22         6         7        23     9        0.000000       -0.486927         1    ;  uncertainty k = 0.274037
        22         6         7        23     9      180.000000        6.750554         2    ;  uncertainty k = 0.157763
        22         6         7        23     9        0.000000        0.049287         3    ;  uncertainty k = 0.230238
        22         6         7        23     9      180.000000        0.424459         4    ;  uncertainty k = 0.124639
        24         9        10        25     9        0.000000        0.001385         1    ;  uncertainty k = 0.129514
        24         9        10        25     9      180.000000        7.970131         2    ;  uncertainty k = 0.421308
        24         9        10        25     9        0.000000       -0.442113         3    ;  uncertainty k = 0.230001
        24         9        10        25     9      180.000000        0.054396         4    ;  uncertainty k = 0.177102
        28        17        18        30     9        0.000000       -0.473238         1    ;  uncertainty k = 0.786607
        28        17        18        30     9      180.000000        4.791203         2    ;  uncertainty k = 0.546329
        28        17        18        30     9        0.000000        1.823479         3    ;  uncertainty k = 0.355750
        28        17        18        30     9      180.000000        0.134729         4    ;  uncertainty k = 0.181521
        29        30        31        32     9        0.000000       -0.089971         1    ;  uncertainty k = 0.872528
        29        30        31        32     9      180.000000        1.736833         2    ;  uncertainty k = 0.754379
        29        30        31        32     9        0.000000        0.731098         3    ;  uncertainty k = 0.232629
        29        30        31        32     9      180.000000        0.402427         4    ;  uncertainty k = 0.240461
        29        30        31        34     9        0.000000       -0.076895         1    ;  uncertainty k = 0.623289
        29        30        31        34     9      180.000000       -1.798847         2    ;  uncertainty k = 0.436513
        29        30        31        34     9        0.000000        1.493998         3    ;  uncertainty k = 0.046981
        29        30        31        34     9      180.000000        0.280368         4    ;  uncertainty k = 0.082124
        29        30        31        35     9        0.000000       -0.076895         1    ;  uncertainty k = 0.623289
        29        30        31        35     9      180.000000       -1.798847         2    ;  uncertainty k = 0.436513
        29        30        31        35     9        0.000000        1.493998         3    ;  uncertainty k = 0.046981
        29        30        31        35     9      180.000000        0.280368         4    ;  uncertainty k = 0.082124
        29        30        33        32     9        0.000000       -0.089971         1    ;  uncertainty k = 0.872528
        29        30        33        32     9      180.000000        1.736833         2    ;  uncertainty k = 0.754379
        29        30        33        32     9        0.000000        0.731098         3    ;  uncertainty k = 0.232629
        29        30        33        32     9      180.000000        0.402427         4    ;  uncertainty k = 0.240461
        29        30        33        38     9        0.000000       -0.076895         1    ;  uncertainty k = 0.623289
        29        30        33        38     9      180.000000       -1.798847         2    ;  uncertainty k = 0.436513
        29        30        33        38     9        0.000000        1.493998         3    ;  uncertainty k = 0.046981
        29        30        33        38     9      180.000000        0.280368         4    ;  uncertainty k = 0.082124
        29        30        33        39     9        0.000000       -0.076895         1    ;  uncertainty k = 0.623289
        29        30        33        39     9      180.000000       -1.798847         2    ;  uncertainty k = 0.436513
        29        30        33        39     9        0.000000        1.493998         3    ;  uncertainty k = 0.046981
        29        30        33        39     9      180.000000        0.280368         4    ;  uncertainty k = 0.082124
        30        31        32        33     9        0.000000        1.099253         1    ;  uncertainty k = 1.885630
        30        31        32        33     9      180.000000       20.858065         2    ;  uncertainty k = 0.549244
        30        31        32        33     9        0.000000       -1.169617         3    ;  uncertainty k = 0.475984
        30        31        32        33     9      180.000000        0.802872         4    ;  uncertainty k = 0.349264
        30        31        32        36     9        0.000000        0.040301         1    ;  uncertainty k = 0.591318
        30        31        32        36     9      180.000000        0.278843         2    ;  uncertainty k = 0.572728
        30        31        32        36     9        0.000000        0.413530         3    ;  uncertainty k = 0.218516
        30        31        32        36     9      180.000000        0.200687         4    ;  uncertainty k = 0.172062
        30        31        32        37     9        0.000000        0.040301         1    ;  uncertainty k = 0.591318
        30        31        32        37     9      180.000000        0.278843         2    ;  uncertainty k = 0.572728
        30        31        32        37     9        0.000000        0.413530         3    ;  uncertainty k = 0.218516
        30        31        32        37     9      180.000000        0.200687         4    ;  uncertainty k = 0.172062
        30        33        32        31     9        0.000000        1.099253         1    ;  uncertainty k = 1.885630
        30        33        32        31     9      180.000000       20.858065         2    ;  uncertainty k = 0.549244
        30        33        32        31     9        0.000000       -1.169617         3    ;  uncertainty k = 0.475984
        30        33        32        31     9      180.000000        0.802872         4    ;  uncertainty k = 0.349264
        30        33        32        36     9        0.000000        0.040301         1    ;  uncertainty k = 0.591318
        30        33        32        36     9      180.000000        0.278843         2    ;  uncertainty k = 0.572728
        30        33        32        36     9        0.000000        0.413530         3    ;  uncertainty k = 0.218516
        30        33        32        36     9      180.000000        0.200687         4    ;  uncertainty k = 0.172062
        30        33        32        37     9        0.000000        0.040301         1    ;  uncertainty k = 0.591318
        30        33        32        37     9      180.000000        0.278843         2    ;  uncertainty k = 0.572728
        30        33        32        37     9        0.000000        0.413530         3    ;  uncertainty k = 0.218516
        30        33        32        37     9      180.000000        0.200687         4    ;  uncertainty k = 0.172062
        31        30        33        32     9        0.000000        1.238915         1    ;  uncertainty k = 2.122835
        31        30        33        32     9      180.000000       17.253637         2    ;  uncertainty k = 0.435650
        31        30        33        32     9        0.000000       -1.045169         3    ;  uncertainty k = 0.413505
        31        30        33        32     9      180.000000        1.931888         4    ;  uncertainty k = 0.333481
        31        30        33        38     9        0.000000       -0.056888         1    ;  uncertainty k = 0.434728
        31        30        33        38     9      180.000000        0.428718         2    ;  uncertainty k = 0.391428
        31        30        33        38     9        0.000000        0.394592         3    ;  uncertainty k = 0.246553
        31        30        33        38     9      180.000000        0.173863         4    ;  uncertainty k = 0.159391
        31        30        33        39     9        0.000000       -0.056888         1    ;  uncertainty k = 0.434728
        31        30        33        39     9      180.000000        0.428718         2    ;  uncertainty k = 0.391428
        31        30        33        39     9        0.000000        0.394592         3    ;  uncertainty k = 0.246553
        31        30        33        39     9      180.000000        0.173863         4    ;  uncertainty k = 0.159391
        31        32        33        38     9        0.000000        0.041021         1    ;  uncertainty k = 0.822469
        31        32        33        38     9      180.000000        0.378851         2    ;  uncertainty k = 0.288128
        31        32        33        38     9        0.000000        0.465099         3    ;  uncertainty k = 0.235698
        31        32        33        38     9      180.000000        0.284935         4    ;  uncertainty k = 0.173307
        31        32        33        39     9        0.000000        0.041021         1    ;  uncertainty k = 0.822469
        31        32        33        39     9      180.000000        0.378851         2    ;  uncertainty k = 0.288128
        31        32        33        39     9        0.000000        0.465099         3    ;  uncertainty k = 0.235698
        31        32        33        39     9      180.000000        0.284935         4    ;  uncertainty k = 0.173307
        32        31        30        33     9        0.000000        1.238915         1    ;  uncertainty k = 2.122835
        32        31        30        33     9      180.000000       17.253637         2    ;  uncertainty k = 0.435650
        32        31        30        33     9        0.000000       -1.045169         3    ;  uncertainty k = 0.413505
        32        31        30        33     9      180.000000        1.931888         4    ;  uncertainty k = 0.333481
        33        30        31        34     9        0.000000       -0.056888         1    ;  uncertainty k = 0.434728
        33        30        31        34     9      180.000000        0.428718         2    ;  uncertainty k = 0.391428
        33        30        31        34     9        0.000000        0.394592         3    ;  uncertainty k = 0.246553
        33        30        31        34     9      180.000000        0.173863         4    ;  uncertainty k = 0.159391
        33        30        31        35     9        0.000000       -0.056888         1    ;  uncertainty k = 0.434728
        33        30        31        35     9      180.000000        0.428718         2    ;  uncertainty k = 0.391428
        33        30        31        35     9        0.000000        0.394592         3    ;  uncertainty k = 0.246553
        33        30        31        35     9      180.000000        0.173863         4    ;  uncertainty k = 0.159391
        33        32        31        34     9        0.000000        0.041021         1    ;  uncertainty k = 0.822469
        33        32        31        34     9      180.000000        0.378851         2    ;  uncertainty k = 0.288128
        33        32        31        34     9        0.000000        0.465099         3    ;  uncertainty k = 0.235698
        33        32        31        34     9      180.000000        0.284935         4    ;  uncertainty k = 0.173307
        33        32        31        35     9        0.000000        0.041021         1    ;  uncertainty k = 0.822469
        33        32        31        35     9      180.000000        0.378851         2    ;  uncertainty k = 0.288128
        33        32        31        35     9        0.000000        0.465099         3    ;  uncertainty k = 0.235698
        33        32        31        35     9      180.000000        0.284935         4    ;  uncertainty k = 0.173307
        34        31        32        36     9        0.000000        0.108608         1    ;  uncertainty k = 0.419023
        34        31        32        36     9      180.000000       -1.694131         2    ;  uncertainty k = 0.715082
        34        31        32        36     9        0.000000        1.761791         3    ;  uncertainty k = 0.080783
        34        31        32        36     9      180.000000        0.134629         4    ;  uncertainty k = 0.073320
        34        31        32        37     9        0.000000        0.108608         1    ;  uncertainty k = 0.419023
        34        31        32        37     9      180.000000       -1.694131         2    ;  uncertainty k = 0.715082
        34        31        32        37     9        0.000000        1.761791         3    ;  uncertainty k = 0.080783
        34        31        32        37     9      180.000000        0.134629         4    ;  uncertainty k = 0.073320
        35        31        32        36     9        0.000000        0.108608         1    ;  uncertainty k = 0.419023
        35        31        32        36     9      180.000000       -1.694131         2    ;  uncertainty k = 0.715082
        35        31        32        36     9        0.000000        1.761791         3    ;  uncertainty k = 0.080783
        35        31        32        36     9      180.000000        0.134629         4    ;  uncertainty k = 0.073320
        35        31        32        37     9        0.000000        0.108608         1    ;  uncertainty k = 0.419023
        35        31        32        37     9      180.000000       -1.694131         2    ;  uncertainty k = 0.715082
        35        31        32        37     9        0.000000        1.761791         3    ;  uncertainty k = 0.080783
        35        31        32        37     9      180.000000        0.134629         4    ;  uncertainty k = 0.073320
        36        32        33        38     9        0.000000        0.108608         1    ;  uncertainty k = 0.419023
        36        32        33        38     9      180.000000       -1.694131         2    ;  uncertainty k = 0.715082
        36        32        33        38     9        0.000000        1.761791         3    ;  uncertainty k = 0.080783
        36        32        33        38     9      180.000000        0.134629         4    ;  uncertainty k = 0.073320
        36        32        33        39     9        0.000000        0.108608         1    ;  uncertainty k = 0.419023
        36        32        33        39     9      180.000000       -1.694131         2    ;  uncertainty k = 0.715082
        36        32        33        39     9        0.000000        1.761791         3    ;  uncertainty k = 0.080783
        36        32        33        39     9      180.000000        0.134629         4    ;  uncertainty k = 0.073320
        37        32        33        38     9        0.000000        0.108608         1    ;  uncertainty k = 0.419023
        37        32        33        38     9      180.000000       -1.694131         2    ;  uncertainty k = 0.715082
        37        32        33        38     9        0.000000        1.761791         3    ;  uncertainty k = 0.080783
        37        32        33        38     9      180.000000        0.134629         4    ;  uncertainty k = 0.073320
        37        32        33        39     9        0.000000        0.108608         1    ;  uncertainty k = 0.419023
        37        32        33        39     9      180.000000       -1.694131         2    ;  uncertainty k = 0.715082
        37        32        33        39     9        0.000000        1.761791         3    ;  uncertainty k = 0.080783
        37        32        33        39     9      180.000000        0.134629         4    ;  uncertainty k = 0.073320

[ dihedrals ] ; impropers
;       ai        aj        ak        al funct           phase               k        pn
         1         2         5         8     4      180.000000       12.616542         2    ;  uncertainty k = 0.387975
         1         5         8         2     4      180.000000       12.616542         2    ;  uncertainty k = 0.387975
         1         8         2         5     4      180.000000       12.616542         2    ;  uncertainty k = 0.387975
         2         1         3        11     4      180.000000       14.343354         2    ;  uncertainty k = 0.092046
         2         3        11         1     4      180.000000       14.343354         2    ;  uncertainty k = 0.092046
         2        11         1         3     4      180.000000       14.343354         2    ;  uncertainty k = 0.092046
         3         2         9        21     4      180.000000        3.308569         2    ;  uncertainty k = 0.185728
         3         9        21         2     4      180.000000        3.308569         2    ;  uncertainty k = 0.185728
         3        21         2         9     4      180.000000        3.308569         2    ;  uncertainty k = 0.185728
         4         6        13        16     4      180.000000       20.332458         2    ;  uncertainty k = 0.158210
         4        13        16         6     4      180.000000       20.332458         2    ;  uncertainty k = 0.158210
         4        16         6        13     4      180.000000       20.332458         2    ;  uncertainty k = 0.158210
         5         1        12        13     4      180.000000       56.020619         2    ;  uncertainty k = 0.087383
         5        12        13         1     4      180.000000       56.020619         2    ;  uncertainty k = 0.087383
         5        13         1        12     4      180.000000       56.020619         2    ;  uncertainty k = 0.087383
         6         4         7        22     4      180.000000        0.460309         2    ;  uncertainty k = 0.636565
         6         7        22         4     4      180.000000        0.460309         2    ;  uncertainty k = 0.636565
         6        22         4         7     4      180.000000        0.460309         2    ;  uncertainty k = 0.636565
         7         6        14        23     4      180.000000       14.083375         2    ;  uncertainty k = 0.120871
         7        14        23         6     4      180.000000       14.083375         2    ;  uncertainty k = 0.120871
         7        23         6        14     4      180.000000       14.083375         2    ;  uncertainty k = 0.120871
         8         1        10        20     4      180.000000       14.343354         2    ;  uncertainty k = 0.092046
         8        10        20         1     4      180.000000       14.343354         2    ;  uncertainty k = 0.092046
         8        20         1        10     4      180.000000       14.343354         2    ;  uncertainty k = 0.092046
         9         3        10        24     4      180.000000        4.523845         2    ;  uncertainty k = 0.130961
         9        10        24         3     4      180.000000        4.523845         2    ;  uncertainty k = 0.130961
         9        24         3        10     4      180.000000        4.523845         2    ;  uncertainty k = 0.130961
        10         8         9        25     4      180.000000        3.308569         2    ;  uncertainty k = 0.185728
        10         9        25         8     4      180.000000        3.308569         2    ;  uncertainty k = 0.185728
        10        25         8         9     4      180.000000        3.308569         2    ;  uncertainty k = 0.185728
        13         4         5        26     4      180.000000        0.483818         2    ;  uncertainty k = 0.576474
        13         5        26         4     4      180.000000        0.483818         2    ;  uncertainty k = 0.576474
        13        26         4         5     4      180.000000        0.483818         2    ;  uncertainty k = 0.576474
        15        14        16        17     4      180.000000       28.097806         2    ;  uncertainty k = 0.156421
        15        16        17        14     4      180.000000       28.097806         2    ;  uncertainty k = 0.156421
        15        17        14        16     4      180.000000       28.097806         2    ;  uncertainty k = 0.156421
        16         4        15        27     4      180.000000        1.185424         2    ;  uncertainty k = 0.949343
        16        15        27         4     4      180.000000        1.185424         2    ;  uncertainty k = 0.949343
        16        27         4        15     4      180.000000        1.185424         2    ;  uncertainty k = 0.949343
        17        15        18        28     4      180.000000        0.103780         2    ;  uncertainty k = 0.232060
        17        18        28        15     4      180.000000        0.103780         2    ;  uncertainty k = 0.232060
        17        28        15        18     4      180.000000        0.103780         2    ;  uncertainty k = 0.232060
        18        17        19        30     4      180.000000       53.539880         2    ;  uncertainty k = 0.012035
        18        19        30        17     4      180.000000       53.539880         2    ;  uncertainty k = 0.012035
        18        30        17        19     4      180.000000       53.539880         2    ;  uncertainty k = 0.012035

[ pairs ]
;       ai        aj funct
         1         4     1
         1         9     1
         1        21     1
         1        25     1
         1        26     1
         2        10     1
         2        12     1
         2        13     1
         2        20     1
         2        24     1
         3         5     1
         3         8     1
         3        25     1
         4        12     1
         4        14     1
         4        17     1
         4        23     1
         5         6     1
         5        10     1
         5        11     1
         5        16     1
         5        20     1
         6        15     1
         6        26     1
         6        27     1
         7        13     1
         7        16     1
         7        17     1
         8        11     1
         8        12     1
         8        13     1
         8        24     1
         9        11     1
         9        20     1
        10        21     1
        11        21     1
        12        26     1
        13        15     1
        13        22     1
        13        27     1
        14        18     1
        14        22     1
        14        27     1
        14        28     1
        15        19     1
        15        23     1
        15        30     1
        16        18     1
        16        22     1
        16        26     1
        16        28     1
        17        27     1
        17        29     1
        17        31     1
        17        33     1
        18        32     1
        18        34     1
        18        35     1
        18        38     1
        18        39     1
        19        28     1
        19        29     1
        19        31     1
        19        33     1
        20        25     1
        21        24     1
        22        23     1
        24        25     1
        28        30     1
        29        32     1
        29        34     1
        29        35     1
        29        38     1
        29        39     1
        30        36     1
        30        37     1
        31        38     1
        31        39     1
        33        34     1
        33        35     1
        34        36     1
        34        37     1
        35        36     1
        35        37     1
        36        38     1
        36        39     1
        37        38     1
        37        39     1
