; ITP file created by ByteFF-joint-25, 2026-02-17 09:33:39.998336

[ atomtypes ]
;name           bonded.type        at.num        mass        charge   ptype           sigma         epsilon
 c0bf                                   6      0.0000       0.00000       A     3.31549e-01     4.13390e-01    ;  uncertainty sigma = 0.000035, epsilon = 0.000966
 c1bf                                   6      0.0000       0.00000       A     3.31564e-01     4.13135e-01    ;  uncertainty sigma = 0.000005, epsilon = 0.000387
 c2bf                                   6      0.0000       0.00000       A     3.31525e-01     4.13295e-01    ;  uncertainty sigma = 0.000005, epsilon = 0.000577
 c3bf                                   6      0.0000       0.00000       A     3.31520e-01     4.12649e-01    ;  uncertainty sigma = 0.000010, epsilon = 0.000842
 c4bf                                   6      0.0000       0.00000       A     3.31499e-01     4.12254e-01    ;  uncertainty sigma = 0.000028, epsilon = 0.000802
 c5bf                                   6      0.0000       0.00000       A     3.31522e-01     4.13552e-01    ;  uncertainty sigma = 0.000009, epsilon = 0.000904
 c6bf                                   6      0.0000       0.00000       A     3.31525e-01     4.13403e-01    ;  uncertainty sigma = 0.000005, epsilon = 0.000549
 c7bf                                   6      0.0000       0.00000       A     3.31564e-01     4.13135e-01    ;  uncertainty sigma = 0.000005, epsilon = 0.000387
 c8bf                                   6      0.0000       0.00000       A     3.31519e-01     4.13371e-01    ;  uncertainty sigma = 0.000005, epsilon = 0.000643
 c9bf                                   6      0.0000       0.00000       A     3.31525e-01     4.13295e-01    ;  uncertainty sigma = 0.000005, epsilon = 0.000577
 cl10bf                                17      0.0000       0.00000       A     3.46613e-01     1.10356e+00    ;  uncertainty sigma = 0.000025, epsilon = 0.001519
 o11bf                                  8      0.0000       0.00000       A     3.04792e-01     6.12550e-01    ;  uncertainty sigma = 0.000022, epsilon = 0.001345
 n12bf                                  7      0.0000       0.00000       A     3.27027e-01     4.91624e-01    ;  uncertainty sigma = 0.000027, epsilon = 0.002173
 n13bf                                  7      0.0000       0.00000       A     3.38417e-01     3.92477e-01    ;  uncertainty sigma = 0.000014, epsilon = 0.000959
 c14bf                                  6      0.0000       0.00000       A     3.31527e-01     4.12768e-01    ;  uncertainty sigma = 0.000017, epsilon = 0.000627
 c15bf                                  6      0.0000       0.00000       A     3.31526e-01     4.13184e-01    ;  uncertainty sigma = 0.000020, epsilon = 0.001195
 n16bf                                  7      0.0000       0.00000       A     3.27023e-01     4.91449e-01    ;  uncertainty sigma = 0.000037, epsilon = 0.001058
 c17bf                                  6      0.0000       0.00000       A     3.31541e-01     4.12539e-01    ;  uncertainty sigma = 0.000015, epsilon = 0.000510
 o18bf                                  8      0.0000       0.00000       A     3.04828e-01     6.12273e-01    ;  uncertainty sigma = 0.000028, epsilon = 0.001529
 cl19bf                                17      0.0000       0.00000       A     3.46613e-01     1.10356e+00    ;  uncertainty sigma = 0.000025, epsilon = 0.001519
 h20bf                                  1      0.0000       0.00000       A     2.62565e-01     6.70619e-02    ;  uncertainty sigma = 0.000008, epsilon = 0.000556
 h21bf                                  1      0.0000       0.00000       A     2.62534e-01     6.69704e-02    ;  uncertainty sigma = 0.000020, epsilon = 0.000545
 h22bf                                  1      0.0000       0.00000       A     2.53656e-01     6.70482e-02    ;  uncertainty sigma = 0.000017, epsilon = 0.000573
 h23bf                                  1      0.0000       0.00000       A     2.62568e-01     6.69546e-02    ;  uncertainty sigma = 0.000006, epsilon = 0.000527
 h24bf                                  1      0.0000       0.00000       A     2.62565e-01     6.70619e-02    ;  uncertainty sigma = 0.000008, epsilon = 0.000556
 h25bf                                  1      0.0000       0.00000       A     1.10697e-01     4.15615e-02    ;  uncertainty sigma = 0.000094, epsilon = 0.000787
 h26bf                                  1      0.0000       0.00000       A     2.62531e-01     6.69228e-02    ;  uncertainty sigma = 0.000026, epsilon = 0.000688
 h27bf                                  1      0.0000       0.00000       A     1.10666e-01     4.06341e-02    ;  uncertainty sigma = 0.000121, epsilon = 0.000890
 o28bf                                  8      0.0000       0.00000       A     3.15611e-01     3.04236e-01    ;  uncertainty sigma = 0.000009, epsilon = 0.000858
 c29bf                                  6      0.0000       0.00000       A     3.39769e-01     4.50651e-01    ;  uncertainty sigma = 0.000008, epsilon = 0.000758
 h30bf                                  1      0.0000       0.00000       A     2.42195e-01     8.66825e-02    ;  uncertainty sigma = 0.000018, epsilon = 0.000633
 h31bf                                  1      0.0000       0.00000       A     2.42195e-01     8.66825e-02    ;  uncertainty sigma = 0.000018, epsilon = 0.000633
 h32bf                                  1      0.0000       0.00000       A     2.42195e-01     8.66827e-02    ;  uncertainty sigma = 0.000018, epsilon = 0.000633

[ moleculetype ]
;name             nrexcl
 MOL                   3

[ atoms ]
;       nr            type      resi   res      atom      cgnr      charge          mass ; qtot
         1            c0bf         1   UNL        c0         1    -0.13673       12.0110 ; qtot   -0.137
         2            c1bf         1   UNL        c1         2     0.06477       12.0110 ; qtot   -0.072
         3            c2bf         1   UNL        c2         3    -0.12372       12.0110 ; qtot   -0.196
         4            c3bf         1   UNL        c3         4     0.13685       12.0110 ; qtot   -0.059
         5            c4bf         1   UNL        c4         5     0.70160       12.0110 ; qtot    0.643
         6            c5bf         1   UNL        c5         6    -0.31812       12.0110 ; qtot    0.325
         7            c6bf         1   UNL        c6         7     0.45507       12.0110 ; qtot    0.780
         8            c7bf         1   UNL        c7         8     0.06477       12.0110 ; qtot    0.844
         9            c8bf         1   UNL        c8         9    -0.09581       12.0110 ; qtot    0.749
        10            c9bf         1   UNL        c9        10    -0.12372       12.0110 ; qtot    0.625
        11          cl10bf         1   UNL      cl10        11    -0.09667       35.4530 ; qtot    0.528
        12           o11bf         1   UNL       o11        12    -0.55036       15.9990 ; qtot   -0.022
        13           n12bf         1   UNL       n12        13    -0.46533       14.0070 ; qtot   -0.487
        14           n13bf         1   UNL       n13        14    -0.72513       14.0070 ; qtot   -1.213
        15           c14bf         1   UNL       c14        15     0.57828       12.0110 ; qtot   -0.634
        16           c15bf         1   UNL       c15        16    -0.31335       12.0110 ; qtot   -0.948
        17           n16bf         1   UNL       n16        17    -0.55548       14.0070 ; qtot   -1.503
        18           c17bf         1   UNL       c17        18     0.75957       12.0110 ; qtot   -0.744
        19           o18bf         1   UNL       o18        19    -0.54327       15.9990 ; qtot   -1.287
        20          cl19bf         1   UNL      cl19        20    -0.09667       35.4530 ; qtot   -1.383
        21           h20bf         1   UNL       h20        21     0.15894        1.0080 ; qtot   -1.225
        22           h21bf         1   UNL       h21        22     0.16313        1.0080 ; qtot   -1.061
        23           h22bf         1   UNL       h22        23     0.01919        1.0080 ; qtot   -1.042
        24           h23bf         1   UNL       h23        24     0.14278        1.0080 ; qtot   -0.899
        25           h24bf         1   UNL       h24        25     0.15894        1.0080 ; qtot   -0.740
        26           h25bf         1   UNL       h25        26     0.33920        1.0080 ; qtot   -0.401
        27           h26bf         1   UNL       h26        27     0.17909        1.0080 ; qtot   -0.222
        28           h27bf         1   UNL       h27        28     0.34723        1.0080 ; qtot    0.125
        29           o28bf         1   UNL       o28        29    -0.43046       15.9990 ; qtot   -0.305
        30           c29bf         1   UNL       c29        30     0.14350       12.0110 ; qtot   -0.162
        31           h30bf         1   UNL       h30        31     0.05398        1.0080 ; qtot   -0.108
        32           h31bf         1   UNL       h31        32     0.05398        1.0080 ; qtot   -0.054
        33           h32bf         1   UNL       h32        33     0.05395        1.0080 ; qtot   -0.000

[ bonds ]
;       ai        aj funct               r               k
         1         2     1        0.139920   314205.988965    ;  uncertainty r = 0.000059, k = 10.355889
         1         5     1        0.151314   265032.676025    ;  uncertainty r = 0.000141, k = 25.452716
         1         8     1        0.139920   314205.988965    ;  uncertainty r = 0.000059, k = 10.355889
         2         3     1        0.139442   359146.551563    ;  uncertainty r = 0.000054, k = 3.481137
         2        11     1        0.175360   192488.234717    ;  uncertainty r = 0.000074, k = 4.279805
         3         9     1        0.139292   379946.297314    ;  uncertainty r = 0.000031, k = 1.315137
         3        21     1        0.108683   334938.061377    ;  uncertainty r = 0.000015, k = 0.960770
         4         6     1        0.140570   376090.806689    ;  uncertainty r = 0.000061, k = 6.523252
         4        13     1        0.140706   335244.481152    ;  uncertainty r = 0.000185, k = 14.115330
         4        16     1        0.139876   381725.084668    ;  uncertainty r = 0.000076, k = 5.295710
         5        12     1        0.122846   748673.427441    ;  uncertainty r = 0.000143, k = 20.391507
         5        13     1        0.137342   285190.010254    ;  uncertainty r = 0.000166, k = 14.492660
         6         7     1        0.139660   375491.680566    ;  uncertainty r = 0.000079, k = 13.453144
         6        22     1        0.108729   340462.427637    ;  uncertainty r = 0.000049, k = 2.577688
         7        14     1        0.134028   391142.455566    ;  uncertainty r = 0.000074, k = 8.676482
         7        23     1        0.108903   331910.688135    ;  uncertainty r = 0.000036, k = 1.905640
         8        10     1        0.139442   359146.551563    ;  uncertainty r = 0.000054, k = 3.481137
         8        20     1        0.175360   192488.234717    ;  uncertainty r = 0.000074, k = 4.279805
         9        10     1        0.139292   379946.297314    ;  uncertainty r = 0.000031, k = 1.315137
         9        24     1        0.108720   333853.628027    ;  uncertainty r = 0.000011, k = 1.678519
        10        25     1        0.108683   334938.061377    ;  uncertainty r = 0.000015, k = 0.960770
        13        26     1        0.101831   422627.387549    ;  uncertainty r = 0.000095, k = 5.435166
        14        15     1        0.134654   460449.659668    ;  uncertainty r = 0.000114, k = 14.604669
        15        16     1        0.140419   361454.621045    ;  uncertainty r = 0.000172, k = 19.855954
        15        17     1        0.141141   480654.058789    ;  uncertainty r = 0.000259, k = 23.505608
        16        27     1        0.108749   342592.758838    ;  uncertainty r = 0.000052, k = 4.517040
        17        18     1        0.138774   436234.504297    ;  uncertainty r = 0.000207, k = 9.109087
        17        28     1        0.102119   471371.677051    ;  uncertainty r = 0.000065, k = 9.055800
        18        19     1        0.122100   639337.876953    ;  uncertainty r = 0.000091, k = 21.644999
        18        29     1        0.135704   300245.974902    ;  uncertainty r = 0.000153, k = 12.019818
        29        30     1        0.144047   242908.371484    ;  uncertainty r = 0.000058, k = 3.470373
        30        31     1        0.109237   309570.135352    ;  uncertainty r = 0.000014, k = 1.506794
        30        32     1        0.109237   309570.160889    ;  uncertainty r = 0.000014, k = 1.506789
        30        33     1        0.109237   309570.160889    ;  uncertainty r = 0.000014, k = 1.506796

[ angles ]
;       ai        aj        ak funct           theta             cth
         1         2         3     1      124.614235      359.881075    ;  uncertainty theta = 0.007318, k = 0.141141
         1         2        11     1      117.122276      401.475760    ;  uncertainty theta = 0.004274, k = 0.169678
         1         5        12     1      122.451149      457.836639    ;  uncertainty theta = 0.012324, k = 0.396747
         1         5        13     1      112.777939      397.551185    ;  uncertainty theta = 0.004296, k = 0.197514
         1         8        10     1      124.614235      359.881075    ;  uncertainty theta = 0.007318, k = 0.141141
         1         8        20     1      117.122276      401.475760    ;  uncertainty theta = 0.004274, k = 0.169678
         2         1         5     1      120.701454      353.629431    ;  uncertainty theta = 0.013311, k = 0.275393
         2         1         8     1      120.699013      430.079652    ;  uncertainty theta = 0.009492, k = 0.209916
         2         3         9     1      118.495155      498.161267    ;  uncertainty theta = 0.004039, k = 0.062916
         2         3        21     1      120.521286      283.386643    ;  uncertainty theta = 0.002118, k = 0.065156
         3         2        11     1      119.919701      462.386458    ;  uncertainty theta = 0.001017, k = 0.162558
         3         9        10     1      119.368362      506.538875    ;  uncertainty theta = 0.002463, k = 0.055814
         3         9        24     1      119.878922      281.614496    ;  uncertainty theta = 0.001408, k = 0.030814
         4         6         7     1      115.739685      478.573602    ;  uncertainty theta = 0.004925, k = 0.048676
         4         6        22     1      120.342453      269.550669    ;  uncertainty theta = 0.001665, k = 0.097098
         4        13         5     1      117.316322      446.625912    ;  uncertainty theta = 0.002594, k = 0.143032
         4        13        26     1      113.569641      313.594043    ;  uncertainty theta = 0.004804, k = 0.335936
         4        16        15     1      114.638931      489.835116    ;  uncertainty theta = 0.009327, k = 0.145013
         4        16        27     1      120.836014      271.362464    ;  uncertainty theta = 0.002900, k = 0.170254
         5         1         8     1      120.701454      353.629431    ;  uncertainty theta = 0.013311, k = 0.275393
         5        13        26     1      116.863647      359.759902    ;  uncertainty theta = 0.004202, k = 0.178017
         6         4        13     1      120.717148      522.791043    ;  uncertainty theta = 0.004408, k = 0.164372
         6         4        16     1      117.397499      390.854844    ;  uncertainty theta = 0.006453, k = 0.142507
         6         7        14     1      123.586708      700.538070    ;  uncertainty theta = 0.003258, k = 0.081563
         6         7        23     1      120.074997      274.168737    ;  uncertainty theta = 0.001842, k = 0.112779
         7         6        22     1      122.550827      311.952454    ;  uncertainty theta = 0.002566, k = 0.162360
         7        14        15     1      113.089394      414.614283    ;  uncertainty theta = 0.007979, k = 0.222231
         8        10         9     1      118.495155      498.161267    ;  uncertainty theta = 0.004039, k = 0.062916
         8        10        25     1      120.521286      283.386643    ;  uncertainty theta = 0.002118, k = 0.065156
         9         3        21     1      121.431229      283.380802    ;  uncertainty theta = 0.000813, k = 0.055588
         9        10        25     1      121.431229      283.380802    ;  uncertainty theta = 0.000813, k = 0.055588
        10         8        20     1      119.919701      462.386458    ;  uncertainty theta = 0.001017, k = 0.162558
        10         9        24     1      119.878922      281.614496    ;  uncertainty theta = 0.001408, k = 0.030814
        12         5        13     1      122.021950      773.152841    ;  uncertainty theta = 0.004688, k = 0.191943
        13         4        16     1      120.331810      521.265424    ;  uncertainty theta = 0.005696, k = 0.135517
        14         7        23     1      115.924026      321.125894    ;  uncertainty theta = 0.002627, k = 0.133182
        14        15        16     1      123.058815      547.559740    ;  uncertainty theta = 0.007966, k = 0.213790
        14        15        17     1      120.013649      755.415914    ;  uncertainty theta = 0.004510, k = 0.119930
        15        16        27     1      121.982483      280.971631    ;  uncertainty theta = 0.005360, k = 0.143919
        15        17        18     1      120.692184      455.472381    ;  uncertainty theta = 0.008096, k = 0.217590
        15        17        28     1      117.002075      334.106662    ;  uncertainty theta = 0.004613, k = 0.228860
        16        15        17     1      121.034691      566.752091    ;  uncertainty theta = 0.006382, k = 0.202648
        17        18        19     1      125.193237      680.661900    ;  uncertainty theta = 0.004546, k = 0.134528
        17        18        29     1      111.195702      638.065235    ;  uncertainty theta = 0.006997, k = 0.115776
        18        17        28     1      116.616760      337.106890    ;  uncertainty theta = 0.004633, k = 0.112471
        18        29        30     1      112.085670      523.410062    ;  uncertainty theta = 0.001633, k = 0.177306
        19        18        29     1      125.219421      638.770123    ;  uncertainty theta = 0.003449, k = 0.114755
        29        30        31     1      108.265121      436.482476    ;  uncertainty theta = 0.001511, k = 0.025367
        29        30        32     1      108.265121      436.482476    ;  uncertainty theta = 0.001511, k = 0.025367
        29        30        33     1      108.265121      436.482476    ;  uncertainty theta = 0.001511, k = 0.025367
        31        30        32     1      109.068802      325.094904    ;  uncertainty theta = 0.001793, k = 0.038833
        31        30        33     1      109.068802      325.094904    ;  uncertainty theta = 0.001793, k = 0.038833
        32        30        33     1      109.068787      325.094904    ;  uncertainty theta = 0.001793, k = 0.038833

[ dihedrals ] ; propers for gromacs 4.5 or higher, use funct 9
;       ai        aj        ak        al funct           phase               k        pn
         1         2         3         9     9        0.000000        0.129562         1    ;  uncertainty k = 0.258537
         1         2         3         9     9      180.000000        9.006461         2    ;  uncertainty k = 0.178121
         1         2         3         9     9        0.000000        0.010291         3    ;  uncertainty k = 0.509158
         1         2         3         9     9      180.000000        1.179148         4    ;  uncertainty k = 0.340357
         1         2         3        21     9        0.000000        0.017749         1    ;  uncertainty k = 0.506174
         1         2         3        21     9      180.000000        5.847178         2    ;  uncertainty k = 0.808481
         1         2         3        21     9        0.000000        1.301869         3    ;  uncertainty k = 0.271599
         1         2         3        21     9      180.000000        1.572515         4    ;  uncertainty k = 0.163634
         1         5        13         4     9        0.000000        4.012883         1    ;  uncertainty k = 0.741994
         1         5        13         4     9      180.000000       10.050056         2    ;  uncertainty k = 0.176781
         1         5        13         4     9        0.000000        1.524529         3    ;  uncertainty k = 0.439697
         1         5        13         4     9      180.000000       -1.034114         4    ;  uncertainty k = 0.394406
         1         5        13        26     9        0.000000        0.286201         1    ;  uncertainty k = 0.970625
         1         5        13        26     9      180.000000        4.591571         2    ;  uncertainty k = 0.675511
         1         5        13        26     9        0.000000        1.269715         3    ;  uncertainty k = 0.289099
         1         5        13        26     9      180.000000        0.225446         4    ;  uncertainty k = 0.265035
         1         8        10         9     9        0.000000        0.129562         1    ;  uncertainty k = 0.258537
         1         8        10         9     9      180.000000        9.006461         2    ;  uncertainty k = 0.178121
         1         8        10         9     9        0.000000        0.010291         3    ;  uncertainty k = 0.509158
         1         8        10         9     9      180.000000        1.179148         4    ;  uncertainty k = 0.340357
         1         8        10        25     9        0.000000        0.017749         1    ;  uncertainty k = 0.506174
         1         8        10        25     9      180.000000        5.847178         2    ;  uncertainty k = 0.808481
         1         8        10        25     9        0.000000        1.301869         3    ;  uncertainty k = 0.271599
         1         8        10        25     9      180.000000        1.572515         4    ;  uncertainty k = 0.163634
         2         1         5        12     9        0.000000       -0.938458         1    ;  uncertainty k = 0.721948
         2         1         5        12     9      180.000000        3.726943         2    ;  uncertainty k = 0.367149
         2         1         5        12     9        0.000000        0.533107         3    ;  uncertainty k = 0.173933
         2         1         5        12     9      180.000000        0.129066         4    ;  uncertainty k = 0.152302
         2         1         5        13     9        0.000000        1.636802         1    ;  uncertainty k = 0.717500
         2         1         5        13     9      180.000000        0.794893         2    ;  uncertainty k = 0.489697
         2         1         5        13     9        0.000000        0.486371         3    ;  uncertainty k = 0.368442
         2         1         5        13     9      180.000000       -0.111126         4    ;  uncertainty k = 0.129000
         2         1         8        10     9        0.000000        0.157030         1    ;  uncertainty k = 0.251028
         2         1         8        10     9      180.000000        6.621005         2    ;  uncertainty k = 0.890169
         2         1         8        10     9        0.000000        0.446154         3    ;  uncertainty k = 0.192247
         2         1         8        10     9      180.000000        1.346016         4    ;  uncertainty k = 0.373704
         2         1         8        20     9        0.000000        0.044095         1    ;  uncertainty k = 0.788675
         2         1         8        20     9      180.000000        8.268702         2    ;  uncertainty k = 0.180496
         2         1         8        20     9        0.000000        1.453925         3    ;  uncertainty k = 0.378329
         2         1         8        20     9      180.000000        1.534665         4    ;  uncertainty k = 0.225736
         2         3         9        10     9        0.000000        0.056957         1    ;  uncertainty k = 0.125369
         2         3         9        10     9      180.000000       14.284910         2    ;  uncertainty k = 0.214373
         2         3         9        10     9        0.000000       -1.022656         3    ;  uncertainty k = 0.417280
         2         3         9        10     9      180.000000        0.771729         4    ;  uncertainty k = 0.212175
         2         3         9        24     9        0.000000        0.083384         1    ;  uncertainty k = 0.200417
         2         3         9        24     9      180.000000        7.197642         2    ;  uncertainty k = 0.253695
         2         3         9        24     9        0.000000        1.438769         3    ;  uncertainty k = 0.264288
         2         3         9        24     9      180.000000        1.864824         4    ;  uncertainty k = 0.166987
         3         2         1         5     9        0.000000        0.540121         1    ;  uncertainty k = 0.659361
         3         2         1         5     9      180.000000        6.952584         2    ;  uncertainty k = 0.900726
         3         2         1         5     9        0.000000        1.504339         3    ;  uncertainty k = 0.227715
         3         2         1         5     9      180.000000        1.691626         4    ;  uncertainty k = 0.279736
         3         2         1         8     9        0.000000        0.157030         1    ;  uncertainty k = 0.251028
         3         2         1         8     9      180.000000        6.621005         2    ;  uncertainty k = 0.890169
         3         2         1         8     9        0.000000        0.446154         3    ;  uncertainty k = 0.192247
         3         2         1         8     9      180.000000        1.346016         4    ;  uncertainty k = 0.373704
         3         9        10         8     9        0.000000        0.056957         1    ;  uncertainty k = 0.125369
         3         9        10         8     9      180.000000       14.284910         2    ;  uncertainty k = 0.214373
         3         9        10         8     9        0.000000       -1.022656         3    ;  uncertainty k = 0.417280
         3         9        10         8     9      180.000000        0.771729         4    ;  uncertainty k = 0.212175
         3         9        10        25     9        0.000000        0.071341         1    ;  uncertainty k = 0.156537
         3         9        10        25     9      180.000000        7.824333         2    ;  uncertainty k = 0.388735
         3         9        10        25     9        0.000000        1.476015         3    ;  uncertainty k = 0.262591
         3         9        10        25     9      180.000000        1.800034         4    ;  uncertainty k = 0.168947
         4         6         7        14     9        0.000000       -0.184762         1    ;  uncertainty k = 0.196284
         4         6         7        14     9      180.000000       15.647395         2    ;  uncertainty k = 0.434943
         4         6         7        14     9        0.000000       -1.160027         3    ;  uncertainty k = 0.307777
         4         6         7        14     9      180.000000        0.814904         4    ;  uncertainty k = 0.161987
         4         6         7        23     9        0.000000       -0.488021         1    ;  uncertainty k = 0.352061
         4         6         7        23     9      180.000000        6.981430         2    ;  uncertainty k = 0.581321
         4         6         7        23     9        0.000000        1.147582         3    ;  uncertainty k = 0.230024
         4         6         7        23     9      180.000000        1.407164         4    ;  uncertainty k = 0.046480
         4        13         5        12     9        0.000000        3.184547         1    ;  uncertainty k = 1.295174
         4        13         5        12     9      180.000000       13.546940         2    ;  uncertainty k = 0.231063
         4        13         5        12     9        0.000000        0.722658         3    ;  uncertainty k = 0.182961
         4        13         5        12     9      180.000000       -0.666531         4    ;  uncertainty k = 0.131850
         4        16        15        14     9        0.000000       -0.419654         1    ;  uncertainty k = 0.214950
         4        16        15        14     9      180.000000       10.105779         2    ;  uncertainty k = 0.454965
         4        16        15        14     9        0.000000       -0.346702         3    ;  uncertainty k = 0.659390
         4        16        15        14     9      180.000000        1.046668         4    ;  uncertainty k = 0.077517
         4        16        15        17     9        0.000000        0.044256         1    ;  uncertainty k = 0.527945
         4        16        15        17     9      180.000000        8.400113         2    ;  uncertainty k = 0.616537
         4        16        15        17     9        0.000000        0.929647         3    ;  uncertainty k = 0.431834
         4        16        15        17     9      180.000000        1.220591         4    ;  uncertainty k = 0.492734
         5         1         2        11     9        0.000000        0.293529         1    ;  uncertainty k = 1.201193
         5         1         2        11     9      180.000000        8.809351         2    ;  uncertainty k = 0.492509
         5         1         2        11     9        0.000000        1.507479         3    ;  uncertainty k = 0.181959
         5         1         2        11     9      180.000000        1.331521         4    ;  uncertainty k = 0.158721
         5         1         8        10     9        0.000000        0.540121         1    ;  uncertainty k = 0.659361
         5         1         8        10     9      180.000000        6.952584         2    ;  uncertainty k = 0.900726
         5         1         8        10     9        0.000000        1.504339         3    ;  uncertainty k = 0.227715
         5         1         8        10     9      180.000000        1.691626         4    ;  uncertainty k = 0.279736
         5         1         8        20     9        0.000000        0.293529         1    ;  uncertainty k = 1.201193
         5         1         8        20     9      180.000000        8.809351         2    ;  uncertainty k = 0.492509
         5         1         8        20     9        0.000000        1.507479         3    ;  uncertainty k = 0.181959
         5         1         8        20     9      180.000000        1.331521         4    ;  uncertainty k = 0.158721
         5        13         4         6     9        0.000000        0.671405         1    ;  uncertainty k = 0.779653
         5        13         4         6     9      180.000000        5.171684         2    ;  uncertainty k = 0.343054
         5        13         4         6     9        0.000000        0.900418         3    ;  uncertainty k = 0.162472
         5        13         4         6     9      180.000000        0.037683         4    ;  uncertainty k = 0.022188
         5        13         4        16     9        0.000000        0.676820         1    ;  uncertainty k = 0.507091
         5        13         4        16     9      180.000000        5.532464         2    ;  uncertainty k = 0.438553
         5        13         4        16     9        0.000000        0.885358         3    ;  uncertainty k = 0.133263
         5        13         4        16     9      180.000000        0.016821         4    ;  uncertainty k = 0.113271
         6         4        13        26     9        0.000000        1.029279         1    ;  uncertainty k = 1.463602
         6         4        13        26     9      180.000000        5.196719         2    ;  uncertainty k = 0.208685
         6         4        13        26     9        0.000000        0.851853         3    ;  uncertainty k = 0.351032
         6         4        13        26     9      180.000000        0.326889         4    ;  uncertainty k = 0.129780
         6         4        16        15     9        0.000000       -0.035029         1    ;  uncertainty k = 0.315634
         6         4        16        15     9      180.000000       10.233710         2    ;  uncertainty k = 0.431603
         6         4        16        15     9        0.000000       -0.299422         3    ;  uncertainty k = 0.104407
         6         4        16        15     9      180.000000        1.157433         4    ;  uncertainty k = 0.319372
         6         4        16        27     9        0.000000        0.498758         1    ;  uncertainty k = 0.515511
         6         4        16        27     9      180.000000        7.795740         2    ;  uncertainty k = 0.428660
         6         4        16        27     9        0.000000        1.416869         3    ;  uncertainty k = 0.270275
         6         4        16        27     9      180.000000        1.572310         4    ;  uncertainty k = 0.221776
         6         7        14        15     9        0.000000       -0.443696         1    ;  uncertainty k = 0.314128
         6         7        14        15     9      180.000000       14.573663         2    ;  uncertainty k = 0.386983
         6         7        14        15     9        0.000000        0.661260         3    ;  uncertainty k = 0.452597
         6         7        14        15     9      180.000000        1.322630         4    ;  uncertainty k = 0.249158
         7         6         4        13     9        0.000000       -0.156685         1    ;  uncertainty k = 0.327783
         7         6         4        13     9      180.000000       10.573743         2    ;  uncertainty k = 0.368407
         7         6         4        13     9        0.000000        0.699890         3    ;  uncertainty k = 0.295405
         7         6         4        13     9      180.000000        1.371703         4    ;  uncertainty k = 0.342554
         7         6         4        16     9        0.000000       -0.262038         1    ;  uncertainty k = 0.398982
         7         6         4        16     9      180.000000       10.360996         2    ;  uncertainty k = 0.262076
         7         6         4        16     9        0.000000       -0.515559         3    ;  uncertainty k = 0.464775
         7         6         4        16     9      180.000000        1.114517         4    ;  uncertainty k = 0.121830
         7        14        15        16     9        0.000000       -0.449888         1    ;  uncertainty k = 0.660019
         7        14        15        16     9      180.000000       11.651703         2    ;  uncertainty k = 0.737626
         7        14        15        16     9        0.000000        1.008971         3    ;  uncertainty k = 0.649364
         7        14        15        16     9      180.000000        1.364086         4    ;  uncertainty k = 0.298864
         7        14        15        17     9        0.000000       -0.058434         1    ;  uncertainty k = 1.173227
         7        14        15        17     9      180.000000       15.615122         2    ;  uncertainty k = 0.274669
         7        14        15        17     9        0.000000        2.076004         3    ;  uncertainty k = 0.311559
         7        14        15        17     9      180.000000        1.714320         4    ;  uncertainty k = 0.379132
         8         1         2        11     9        0.000000        0.044095         1    ;  uncertainty k = 0.788675
         8         1         2        11     9      180.000000        8.268702         2    ;  uncertainty k = 0.180496
         8         1         2        11     9        0.000000        1.453925         3    ;  uncertainty k = 0.378329
         8         1         2        11     9      180.000000        1.534665         4    ;  uncertainty k = 0.225736
         8         1         5        12     9        0.000000       -0.938458         1    ;  uncertainty k = 0.721948
         8         1         5        12     9      180.000000        3.726943         2    ;  uncertainty k = 0.367149
         8         1         5        12     9        0.000000        0.533107         3    ;  uncertainty k = 0.173933
         8         1         5        12     9      180.000000        0.129066         4    ;  uncertainty k = 0.152302
         8         1         5        13     9        0.000000        1.636802         1    ;  uncertainty k = 0.717500
         8         1         5        13     9      180.000000        0.794893         2    ;  uncertainty k = 0.489697
         8         1         5        13     9        0.000000        0.486371         3    ;  uncertainty k = 0.368442
         8         1         5        13     9      180.000000       -0.111126         4    ;  uncertainty k = 0.129000
         8        10         9        24     9        0.000000        0.083384         1    ;  uncertainty k = 0.200417
         8        10         9        24     9      180.000000        7.197642         2    ;  uncertainty k = 0.253695
         8        10         9        24     9        0.000000        1.438769         3    ;  uncertainty k = 0.264288
         8        10         9        24     9      180.000000        1.864824         4    ;  uncertainty k = 0.166987
         9         3         2        11     9        0.000000       -0.125974         1    ;  uncertainty k = 0.141879
         9         3         2        11     9      180.000000        9.826857         2    ;  uncertainty k = 0.423980
         9         3         2        11     9        0.000000        1.360528         3    ;  uncertainty k = 0.293318
         9         3         2        11     9      180.000000        1.645146         4    ;  uncertainty k = 0.120261
         9        10         8        20     9        0.000000       -0.125974         1    ;  uncertainty k = 0.141879
         9        10         8        20     9      180.000000        9.826857         2    ;  uncertainty k = 0.423980
         9        10         8        20     9        0.000000        1.360528         3    ;  uncertainty k = 0.293318
         9        10         8        20     9      180.000000        1.645146         4    ;  uncertainty k = 0.120261
        10         9         3        21     9        0.000000        0.071341         1    ;  uncertainty k = 0.156537
        10         9         3        21     9      180.000000        7.824333         2    ;  uncertainty k = 0.388735
        10         9         3        21     9        0.000000        1.476015         3    ;  uncertainty k = 0.262591
        10         9         3        21     9      180.000000        1.800034         4    ;  uncertainty k = 0.168947
        11         2         3        21     9        0.000000       -0.203688         1    ;  uncertainty k = 0.537167
        11         2         3        21     9      180.000000        7.741258         2    ;  uncertainty k = 0.413148
        11         2         3        21     9        0.000000        0.589378         3    ;  uncertainty k = 0.256365
        11         2         3        21     9      180.000000        1.098417         4    ;  uncertainty k = 0.232050
        12         5        13        26     9        0.000000        2.754751         1    ;  uncertainty k = 1.678083
        12         5        13        26     9      180.000000       15.343140         2    ;  uncertainty k = 0.287199
        12         5        13        26     9        0.000000        1.862099         3    ;  uncertainty k = 0.346350
        12         5        13        26     9      180.000000       -0.086397         4    ;  uncertainty k = 0.341591
        13         4         6        22     9        0.000000       -0.319544         1    ;  uncertainty k = 0.345314
        13         4         6        22     9      180.000000        8.037585         2    ;  uncertainty k = 0.455395
        13         4         6        22     9        0.000000        0.835277         3    ;  uncertainty k = 0.138723
        13         4         6        22     9      180.000000        1.127271         4    ;  uncertainty k = 0.123904
        13         4        16        15     9        0.000000       -0.097124         1    ;  uncertainty k = 0.559057
        13         4        16        15     9      180.000000       12.115166         2    ;  uncertainty k = 0.764905
        13         4        16        15     9        0.000000        0.860627         3    ;  uncertainty k = 0.259851
        13         4        16        15     9      180.000000        1.289173         4    ;  uncertainty k = 0.641103
        13         4        16        27     9        0.000000       -0.292369         1    ;  uncertainty k = 0.443460
        13         4        16        27     9      180.000000        8.856850         2    ;  uncertainty k = 0.419916
        13         4        16        27     9        0.000000        0.889847         3    ;  uncertainty k = 0.171976
        13         4        16        27     9      180.000000        1.191449         4    ;  uncertainty k = 0.205426
        14         7         6        22     9        0.000000        0.105832         1    ;  uncertainty k = 0.144573
        14         7         6        22     9      180.000000       10.094759         2    ;  uncertainty k = 0.406193
        14         7         6        22     9        0.000000        1.029154         3    ;  uncertainty k = 0.346462
        14         7         6        22     9      180.000000        1.739350         4    ;  uncertainty k = 0.167683
        14        15        16        27     9        0.000000        0.524272         1    ;  uncertainty k = 0.565471
        14        15        16        27     9      180.000000        7.839267         2    ;  uncertainty k = 0.788306
        14        15        16        27     9        0.000000        1.181009         3    ;  uncertainty k = 0.298475
        14        15        16        27     9      180.000000        1.401427         4    ;  uncertainty k = 0.229381
        14        15        17        18     9        0.000000        1.719639         1    ;  uncertainty k = 1.773922
        14        15        17        18     9      180.000000        6.652570         2    ;  uncertainty k = 0.299696
        14        15        17        18     9        0.000000        1.141270         3    ;  uncertainty k = 0.267881
        14        15        17        18     9      180.000000       -0.126721         4    ;  uncertainty k = 0.192877
        14        15        17        28     9        0.000000        6.398607         1    ;  uncertainty k = 0.723928
        14        15        17        28     9      180.000000        5.084747         2    ;  uncertainty k = 0.647801
        14        15        17        28     9        0.000000        0.296462         3    ;  uncertainty k = 0.197167
        14        15        17        28     9      180.000000        0.034204         4    ;  uncertainty k = 0.216873
        15        14         7        23     9        0.000000       -0.305005         1    ;  uncertainty k = 0.491146
        15        14         7        23     9      180.000000       15.031185         2    ;  uncertainty k = 0.476005
        15        14         7        23     9        0.000000        1.998128         3    ;  uncertainty k = 0.780751
        15        14         7        23     9      180.000000        1.331403         4    ;  uncertainty k = 0.348222
        15        17        18        19     9        0.000000        4.720560         1    ;  uncertainty k = 0.827341
        15        17        18        19     9      180.000000       11.452570         2    ;  uncertainty k = 0.283139
        15        17        18        19     9        0.000000        0.393705         3    ;  uncertainty k = 0.155631
        15        17        18        19     9      180.000000       -0.855117         4    ;  uncertainty k = 0.255546
        15        17        18        29     9        0.000000        4.727887         1    ;  uncertainty k = 0.724221
        15        17        18        29     9      180.000000        9.209496         2    ;  uncertainty k = 0.492431
        15        17        18        29     9        0.000000        1.349704         3    ;  uncertainty k = 0.348044
        15        17        18        29     9      180.000000       -0.364032         4    ;  uncertainty k = 0.290992
        16         4         6        22     9        0.000000        0.278850         1    ;  uncertainty k = 0.336474
        16         4         6        22     9      180.000000        7.218262         2    ;  uncertainty k = 0.645425
        16         4         6        22     9        0.000000        1.365862         3    ;  uncertainty k = 0.271937
        16         4         6        22     9      180.000000        1.477237         4    ;  uncertainty k = 0.136994
        16         4        13        26     9        0.000000        2.109279         1    ;  uncertainty k = 1.451757
        16         4        13        26     9      180.000000        5.460142         2    ;  uncertainty k = 0.392613
        16         4        13        26     9        0.000000        0.780099         3    ;  uncertainty k = 0.387253
        16         4        13        26     9      180.000000        0.272138         4    ;  uncertainty k = 0.124055
        16        15        17        18     9        0.000000        0.566001         1    ;  uncertainty k = 0.982579
        16        15        17        18     9      180.000000        5.364643         2    ;  uncertainty k = 0.277176
        16        15        17        18     9        0.000000        0.518617         3    ;  uncertainty k = 0.227261
        16        15        17        18     9      180.000000       -0.097681         4    ;  uncertainty k = 0.102678
        16        15        17        28     9        0.000000        0.763750         1    ;  uncertainty k = 1.140352
        16        15        17        28     9      180.000000        4.550395         2    ;  uncertainty k = 0.503632
        16        15        17        28     9        0.000000        1.202158         3    ;  uncertainty k = 0.286549
        16        15        17        28     9      180.000000        0.092176         4    ;  uncertainty k = 0.158534
        17        15        16        27     9        0.000000       -0.096243         1    ;  uncertainty k = 0.328059
        17        15        16        27     9      180.000000        6.717464         2    ;  uncertainty k = 0.469059
        17        15        16        27     9        0.000000        0.813030         3    ;  uncertainty k = 0.163639
        17        15        16        27     9      180.000000        0.909132         4    ;  uncertainty k = 0.277576
        17        18        29        30     9        0.000000        2.375770         1    ;  uncertainty k = 0.701394
        17        18        29        30     9      180.000000        8.764509         2    ;  uncertainty k = 0.277763
        17        18        29        30     9        0.000000        0.365168         3    ;  uncertainty k = 0.275262
        17        18        29        30     9      180.000000        0.410890         4    ;  uncertainty k = 0.400272
        18        29        30        31     9        0.000000        5.176086         1    ;  uncertainty k = 0.144485
        18        29        30        31     9      180.000000       -0.227946         2    ;  uncertainty k = 0.205858
        18        29        30        31     9        0.000000        0.383906         3    ;  uncertainty k = 0.127281
        18        29        30        31     9      180.000000        0.739394         4    ;  uncertainty k = 0.169105
        18        29        30        32     9        0.000000        5.176086         1    ;  uncertainty k = 0.144485
        18        29        30        32     9      180.000000       -0.227946         2    ;  uncertainty k = 0.205858
        18        29        30        32     9        0.000000        0.383906         3    ;  uncertainty k = 0.127281
        18        29        30        32     9      180.000000        0.739394         4    ;  uncertainty k = 0.169105
        18        29        30        33     9        0.000000        5.176086         1    ;  uncertainty k = 0.144484
        18        29        30        33     9      180.000000       -0.227946         2    ;  uncertainty k = 0.205858
        18        29        30        33     9        0.000000        0.383906         3    ;  uncertainty k = 0.127281
        18        29        30        33     9      180.000000        0.739394         4    ;  uncertainty k = 0.169105
        19        18        17        28     9        0.000000        2.797038         1    ;  uncertainty k = 0.885509
        19        18        17        28     9      180.000000       12.517012         2    ;  uncertainty k = 0.413591
        19        18        17        28     9        0.000000        1.147606         3    ;  uncertainty k = 0.266084
        19        18        17        28     9      180.000000       -0.530490         4    ;  uncertainty k = 0.308616
        19        18        29        30     9        0.000000        4.519965         1    ;  uncertainty k = 1.003561
        19        18        29        30     9      180.000000       10.459074         2    ;  uncertainty k = 0.342396
        19        18        29        30     9        0.000000        0.801194         3    ;  uncertainty k = 0.413629
        19        18        29        30     9      180.000000        0.283874         4    ;  uncertainty k = 0.229152
        20         8        10        25     9        0.000000       -0.203688         1    ;  uncertainty k = 0.537167
        20         8        10        25     9      180.000000        7.741257         2    ;  uncertainty k = 0.413148
        20         8        10        25     9        0.000000        0.589378         3    ;  uncertainty k = 0.256365
        20         8        10        25     9      180.000000        1.098417         4    ;  uncertainty k = 0.232050
        21         3         9        24     9        0.000000        0.001385         1    ;  uncertainty k = 0.129514
        21         3         9        24     9      180.000000        7.970132         2    ;  uncertainty k = 0.421308
        21         3         9        24     9        0.000000       -0.442113         3    ;  uncertainty k = 0.230001
        21         3         9        24     9      180.000000        0.054396         4    ;  uncertainty k = 0.177102
        22         6         7        23     9        0.000000       -0.486927         1    ;  uncertainty k = 0.274037
        22         6         7        23     9      180.000000        6.750554         2    ;  uncertainty k = 0.157763
        22         6         7        23     9        0.000000        0.049287         3    ;  uncertainty k = 0.230238
        22         6         7        23     9      180.000000        0.424459         4    ;  uncertainty k = 0.124639
        24         9        10        25     9        0.000000        0.001385         1    ;  uncertainty k = 0.129514
        24         9        10        25     9      180.000000        7.970132         2    ;  uncertainty k = 0.421308
        24         9        10        25     9        0.000000       -0.442113         3    ;  uncertainty k = 0.230001
        24         9        10        25     9      180.000000        0.054396         4    ;  uncertainty k = 0.177102
        28        17        18        29     9        0.000000        2.873396         1    ;  uncertainty k = 1.159071
        28        17        18        29     9      180.000000        7.148140         2    ;  uncertainty k = 0.544069
        28        17        18        29     9        0.000000        1.619806         3    ;  uncertainty k = 0.264104
        28        17        18        29     9      180.000000       -0.147925         4    ;  uncertainty k = 0.286876

[ dihedrals ] ; impropers
;       ai        aj        ak        al funct           phase               k        pn
         1         2         5         8     4      180.000000       12.616542         2    ;  uncertainty k = 0.387975
         1         5         8         2     4      180.000000       12.616542         2    ;  uncertainty k = 0.387975
         1         8         2         5     4      180.000000       12.616542         2    ;  uncertainty k = 0.387975
         2         1         3        11     4      180.000000       14.343354         2    ;  uncertainty k = 0.092046
         2         3        11         1     4      180.000000       14.343354         2    ;  uncertainty k = 0.092046
         2        11         1         3     4      180.000000       14.343354         2    ;  uncertainty k = 0.092046
         3         2         9        21     4      180.000000        3.308569         2    ;  uncertainty k = 0.185728
         3         9        21         2     4      180.000000        3.308569         2    ;  uncertainty k = 0.185728
         3        21         2         9     4      180.000000        3.308569         2    ;  uncertainty k = 0.185728
         4         6        13        16     4      180.000000       20.353949         2    ;  uncertainty k = 0.160451
         4        13        16         6     4      180.000000       20.353949         2    ;  uncertainty k = 0.160451
         4        16         6        13     4      180.000000       20.353949         2    ;  uncertainty k = 0.160451
         5         1        12        13     4      180.000000       56.020619         2    ;  uncertainty k = 0.087383
         5        12        13         1     4      180.000000       56.020619         2    ;  uncertainty k = 0.087383
         5        13         1        12     4      180.000000       56.020619         2    ;  uncertainty k = 0.087383
         6         4         7        22     4      180.000000        0.460309         2    ;  uncertainty k = 0.636565
         6         7        22         4     4      180.000000        0.460309         2    ;  uncertainty k = 0.636565
         6        22         4         7     4      180.000000        0.460309         2    ;  uncertainty k = 0.636565
         7         6        14        23     4      180.000000       14.061738         2    ;  uncertainty k = 0.119878
         7        14        23         6     4      180.000000       14.061738         2    ;  uncertainty k = 0.119878
         7        23         6        14     4      180.000000       14.061738         2    ;  uncertainty k = 0.119878
         8         1        10        20     4      180.000000       14.343354         2    ;  uncertainty k = 0.092046
         8        10        20         1     4      180.000000       14.343354         2    ;  uncertainty k = 0.092046
         8        20         1        10     4      180.000000       14.343354         2    ;  uncertainty k = 0.092046
         9         3        10        24     4      180.000000        4.523845         2    ;  uncertainty k = 0.130961
         9        10        24         3     4      180.000000        4.523845         2    ;  uncertainty k = 0.130961
         9        24         3        10     4      180.000000        4.523845         2    ;  uncertainty k = 0.130961
        10         8         9        25     4      180.000000        3.308569         2    ;  uncertainty k = 0.185728
        10         9        25         8     4      180.000000        3.308569         2    ;  uncertainty k = 0.185728
        10        25         8         9     4      180.000000        3.308569         2    ;  uncertainty k = 0.185728
        13         4         5        26     4      180.000000        0.483818         2    ;  uncertainty k = 0.576474
        13         5        26         4     4      180.000000        0.483818         2    ;  uncertainty k = 0.576474
        13        26         4         5     4      180.000000        0.483818         2    ;  uncertainty k = 0.576474
        15        14        16        17     4      180.000000       28.702277         2    ;  uncertainty k = 0.123770
        15        16        17        14     4      180.000000       28.702277         2    ;  uncertainty k = 0.123770
        15        17        14        16     4      180.000000       28.702277         2    ;  uncertainty k = 0.123770
        16         4        15        27     4      180.000000        0.992237         2    ;  uncertainty k = 0.948331
        16        15        27         4     4      180.000000        0.992237         2    ;  uncertainty k = 0.948331
        16        27         4        15     4      180.000000        0.992237         2    ;  uncertainty k = 0.948331
        17        15        18        28     4      180.000000        1.248534         2    ;  uncertainty k = 1.357503
        17        18        28        15     4      180.000000        1.248534         2    ;  uncertainty k = 1.357503
        17        28        15        18     4      180.000000        1.248534         2    ;  uncertainty k = 1.357503
        18        17        19        29     4      180.000000       59.545703         2    ;  uncertainty k = 0.037044
        18        19        29        17     4      180.000000       59.545703         2    ;  uncertainty k = 0.037044
        18        29        17        19     4      180.000000       59.545703         2    ;  uncertainty k = 0.037044

[ pairs ]
;       ai        aj funct
         1         4     1
         1         9     1
         1        21     1
         1        25     1
         1        26     1
         2        10     1
         2        12     1
         2        13     1
         2        20     1
         2        24     1
         3         5     1
         3         8     1
         3        25     1
         4        12     1
         4        14     1
         4        17     1
         4        23     1
         5         6     1
         5        10     1
         5        11     1
         5        16     1
         5        20     1
         6        15     1
         6        26     1
         6        27     1
         7        13     1
         7        16     1
         7        17     1
         8        11     1
         8        12     1
         8        13     1
         8        24     1
         9        11     1
         9        20     1
        10        21     1
        11        21     1
        12        26     1
        13        15     1
        13        22     1
        13        27     1
        14        18     1
        14        22     1
        14        27     1
        14        28     1
        15        19     1
        15        23     1
        15        29     1
        16        18     1
        16        22     1
        16        26     1
        16        28     1
        17        27     1
        17        30     1
        18        31     1
        18        32     1
        18        33     1
        19        28     1
        19        30     1
        20        25     1
        21        24     1
        22        23     1
        24        25     1
        28        29     1
