; ITP file created by ByteFF-joint-25, 2026-02-17 09:34:48.999741

[ atomtypes ]
;name           bonded.type        at.num        mass        charge   ptype           sigma         epsilon
 c0bf                                   6      0.0000       0.00000       A     3.31549e-01     4.13390e-01    ;  uncertainty sigma = 0.000035, epsilon = 0.000966
 c1bf                                   6      0.0000       0.00000       A     3.31564e-01     4.13135e-01    ;  uncertainty sigma = 0.000005, epsilon = 0.000387
 c2bf                                   6      0.0000       0.00000       A     3.31525e-01     4.13295e-01    ;  uncertainty sigma = 0.000005, epsilon = 0.000577
 c3bf                                   6      0.0000       0.00000       A     3.31520e-01     4.12649e-01    ;  uncertainty sigma = 0.000010, epsilon = 0.000842
 c4bf                                   6      0.0000       0.00000       A     3.31499e-01     4.12254e-01    ;  uncertainty sigma = 0.000028, epsilon = 0.000802
 c5bf                                   6      0.0000       0.00000       A     3.31522e-01     4.13552e-01    ;  uncertainty sigma = 0.000009, epsilon = 0.000904
 c6bf                                   6      0.0000       0.00000       A     3.31525e-01     4.13403e-01    ;  uncertainty sigma = 0.000005, epsilon = 0.000549
 c7bf                                   6      0.0000       0.00000       A     3.31564e-01     4.13135e-01    ;  uncertainty sigma = 0.000005, epsilon = 0.000387
 c8bf                                   6      0.0000       0.00000       A     3.31519e-01     4.13371e-01    ;  uncertainty sigma = 0.000005, epsilon = 0.000643
 c9bf                                   6      0.0000       0.00000       A     3.31525e-01     4.13295e-01    ;  uncertainty sigma = 0.000005, epsilon = 0.000577
 cl10bf                                17      0.0000       0.00000       A     3.46613e-01     1.10356e+00    ;  uncertainty sigma = 0.000025, epsilon = 0.001519
 o11bf                                  8      0.0000       0.00000       A     3.04792e-01     6.12550e-01    ;  uncertainty sigma = 0.000022, epsilon = 0.001345
 n12bf                                  7      0.0000       0.00000       A     3.27027e-01     4.91624e-01    ;  uncertainty sigma = 0.000027, epsilon = 0.002173
 n13bf                                  7      0.0000       0.00000       A     3.38414e-01     3.92353e-01    ;  uncertainty sigma = 0.000014, epsilon = 0.000887
 c14bf                                  6      0.0000       0.00000       A     3.31540e-01     4.12276e-01    ;  uncertainty sigma = 0.000017, epsilon = 0.000497
 c15bf                                  6      0.0000       0.00000       A     3.31527e-01     4.13270e-01    ;  uncertainty sigma = 0.000022, epsilon = 0.001274
 n16bf                                  7      0.0000       0.00000       A     3.27016e-01     4.89967e-01    ;  uncertainty sigma = 0.000037, epsilon = 0.001375
 c17bf                                  6      0.0000       0.00000       A     3.31547e-01     4.13695e-01    ;  uncertainty sigma = 0.000020, epsilon = 0.001286
 o18bf                                  8      0.0000       0.00000       A     3.04839e-01     6.12882e-01    ;  uncertainty sigma = 0.000012, epsilon = 0.001553
 c19bf                                  6      0.0000       0.00000       A     3.39751e-01     4.50505e-01    ;  uncertainty sigma = 0.000016, epsilon = 0.001192
 cl20bf                                17      0.0000       0.00000       A     3.46613e-01     1.10356e+00    ;  uncertainty sigma = 0.000025, epsilon = 0.001519
 h21bf                                  1      0.0000       0.00000       A     2.62565e-01     6.70619e-02    ;  uncertainty sigma = 0.000008, epsilon = 0.000556
 h22bf                                  1      0.0000       0.00000       A     2.62534e-01     6.69704e-02    ;  uncertainty sigma = 0.000020, epsilon = 0.000545
 h23bf                                  1      0.0000       0.00000       A     2.53656e-01     6.70482e-02    ;  uncertainty sigma = 0.000017, epsilon = 0.000573
 h24bf                                  1      0.0000       0.00000       A     2.62568e-01     6.69546e-02    ;  uncertainty sigma = 0.000006, epsilon = 0.000527
 h25bf                                  1      0.0000       0.00000       A     2.62565e-01     6.70619e-02    ;  uncertainty sigma = 0.000008, epsilon = 0.000556
 h26bf                                  1      0.0000       0.00000       A     1.10697e-01     4.15615e-02    ;  uncertainty sigma = 0.000094, epsilon = 0.000787
 h27bf                                  1      0.0000       0.00000       A     2.62531e-01     6.69228e-02    ;  uncertainty sigma = 0.000026, epsilon = 0.000688
 h28bf                                  1      0.0000       0.00000       A     1.10674e-01     4.14806e-02    ;  uncertainty sigma = 0.000120, epsilon = 0.001439
 h29bf                                  1      0.0000       0.00000       A     2.60035e-01     8.60018e-02    ;  uncertainty sigma = 0.000012, epsilon = 0.000539
 h30bf                                  1      0.0000       0.00000       A     2.60035e-01     8.60018e-02    ;  uncertainty sigma = 0.000012, epsilon = 0.000539
 c31bf                                  6      0.0000       0.00000       A     3.39762e-01     4.50577e-01    ;  uncertainty sigma = 0.000008, epsilon = 0.000613
 h32bf                                  1      0.0000       0.00000       A     2.60026e-01     8.64911e-02    ;  uncertainty sigma = 0.000015, epsilon = 0.000764
 h33bf                                  1      0.0000       0.00000       A     2.60026e-01     8.64913e-02    ;  uncertainty sigma = 0.000015, epsilon = 0.000764
 h34bf                                  1      0.0000       0.00000       A     2.60026e-01     8.64911e-02    ;  uncertainty sigma = 0.000015, epsilon = 0.000764

[ moleculetype ]
;name             nrexcl
 MOL                   3

[ atoms ]
;       nr            type      resi   res      atom      cgnr      charge          mass ; qtot
         1            c0bf         1   UNL        c0         1    -0.13673       12.0110 ; qtot   -0.137
         2            c1bf         1   UNL        c1         2     0.06477       12.0110 ; qtot   -0.072
         3            c2bf         1   UNL        c2         3    -0.12372       12.0110 ; qtot   -0.196
         4            c3bf         1   UNL        c3         4     0.13648       12.0110 ; qtot   -0.059
         5            c4bf         1   UNL        c4         5     0.70160       12.0110 ; qtot    0.642
         6            c5bf         1   UNL        c5         6    -0.31812       12.0110 ; qtot    0.324
         7            c6bf         1   UNL        c6         7     0.45431       12.0110 ; qtot    0.779
         8            c7bf         1   UNL        c7         8     0.06477       12.0110 ; qtot    0.843
         9            c8bf         1   UNL        c8         9    -0.09581       12.0110 ; qtot    0.748
        10            c9bf         1   UNL        c9        10    -0.12372       12.0110 ; qtot    0.624
        11          cl10bf         1   UNL      cl10        11    -0.09667       35.4530 ; qtot    0.527
        12           o11bf         1   UNL       o11        12    -0.55036       15.9990 ; qtot   -0.023
        13           n12bf         1   UNL       n12        13    -0.46533       14.0070 ; qtot   -0.489
        14           n13bf         1   UNL       n13        14    -0.72448       14.0070 ; qtot   -1.213
        15           c14bf         1   UNL       c14        15     0.56266       12.0110 ; qtot   -0.650
        16           c15bf         1   UNL       c15        16    -0.30881       12.0110 ; qtot   -0.959
        17           n16bf         1   UNL       n16        17    -0.57256       14.0070 ; qtot   -1.532
        18           c17bf         1   UNL       c17        18     0.67756       12.0110 ; qtot   -0.854
        19           o18bf         1   UNL       o18        19    -0.56283       15.9990 ; qtot   -1.417
        20           c19bf         1   UNL       c19        20    -0.15790       12.0110 ; qtot   -1.575
        21          cl20bf         1   UNL      cl20        21    -0.09667       35.4530 ; qtot   -1.672
        22           h21bf         1   UNL       h21        22     0.15894        1.0080 ; qtot   -1.513
        23           h22bf         1   UNL       h22        23     0.16313        1.0080 ; qtot   -1.349
        24           h23bf         1   UNL       h23        24     0.01919        1.0080 ; qtot   -1.330
        25           h24bf         1   UNL       h24        25     0.14278        1.0080 ; qtot   -1.188
        26           h25bf         1   UNL       h25        26     0.15894        1.0080 ; qtot   -1.029
        27           h26bf         1   UNL       h26        27     0.33920        1.0080 ; qtot   -0.689
        28           h27bf         1   UNL       h27        28     0.18077        1.0080 ; qtot   -0.509
        29           h28bf         1   UNL       h28        29     0.33569        1.0080 ; qtot   -0.173
        30           h29bf         1   UNL       h29        30     0.06583        1.0080 ; qtot   -0.107
        31           h30bf         1   UNL       h30        31     0.06583        1.0080 ; qtot   -0.041
        32           c31bf         1   UNL       c31        32    -0.08724       12.0110 ; qtot   -0.128
        33           h32bf         1   UNL       h32        33     0.04283        1.0080 ; qtot   -0.086
        34           h33bf         1   UNL       h33        34     0.04283        1.0080 ; qtot   -0.043
        35           h34bf         1   UNL       h34        35     0.04284        1.0080 ; qtot    0.000

[ bonds ]
;       ai        aj funct               r               k
         1         2     1        0.139920   314205.988965    ;  uncertainty r = 0.000059, k = 10.355889
         1         5     1        0.151314   265032.676025    ;  uncertainty r = 0.000141, k = 25.452716
         1         8     1        0.139920   314205.988965    ;  uncertainty r = 0.000059, k = 10.355889
         2         3     1        0.139442   359146.551563    ;  uncertainty r = 0.000054, k = 3.481137
         2        11     1        0.175360   192488.234717    ;  uncertainty r = 0.000074, k = 4.279805
         3         9     1        0.139292   379946.297314    ;  uncertainty r = 0.000031, k = 1.315137
         3        22     1        0.108683   334938.061377    ;  uncertainty r = 0.000015, k = 0.960770
         4         6     1        0.140570   376090.806689    ;  uncertainty r = 0.000061, k = 6.523252
         4        13     1        0.140706   335244.481152    ;  uncertainty r = 0.000185, k = 14.115330
         4        16     1        0.139888   380122.937500    ;  uncertainty r = 0.000080, k = 3.904899
         5        12     1        0.122846   748673.427441    ;  uncertainty r = 0.000143, k = 20.391507
         5        13     1        0.137342   285190.010254    ;  uncertainty r = 0.000166, k = 14.492660
         6         7     1        0.139660   375491.680566    ;  uncertainty r = 0.000079, k = 13.453144
         6        23     1        0.108729   340462.427637    ;  uncertainty r = 0.000049, k = 2.577688
         7        14     1        0.133994   391612.466064    ;  uncertainty r = 0.000075, k = 9.938255
         7        24     1        0.108903   331910.688135    ;  uncertainty r = 0.000036, k = 1.905640
         8        10     1        0.139442   359146.551563    ;  uncertainty r = 0.000054, k = 3.481137
         8        21     1        0.175360   192488.234717    ;  uncertainty r = 0.000074, k = 4.279805
         9        10     1        0.139292   379946.297314    ;  uncertainty r = 0.000031, k = 1.315137
         9        25     1        0.108720   333853.628027    ;  uncertainty r = 0.000011, k = 1.678519
        10        26     1        0.108683   334938.061377    ;  uncertainty r = 0.000015, k = 0.960770
        13        27     1        0.101831   422627.387549    ;  uncertainty r = 0.000095, k = 5.435166
        14        15     1        0.134796   458296.217383    ;  uncertainty r = 0.000102, k = 11.796509
        15        16     1        0.140391   361497.268018    ;  uncertainty r = 0.000159, k = 20.454037
        15        17     1        0.141336   458631.621777    ;  uncertainty r = 0.000139, k = 7.699377
        16        28     1        0.108728   342650.115186    ;  uncertainty r = 0.000071, k = 4.514926
        17        18     1        0.139048   371436.387598    ;  uncertainty r = 0.000095, k = 23.939129
        17        29     1        0.101987   469318.238086    ;  uncertainty r = 0.000043, k = 7.865699
        18        19     1        0.123301   720983.590820    ;  uncertainty r = 0.000148, k = 4.179612
        18        20     1        0.151774   197149.408374    ;  uncertainty r = 0.000115, k = 9.626500
        20        30     1        0.109690   312865.597168    ;  uncertainty r = 0.000035, k = 1.678497
        20        31     1        0.109690   312865.597168    ;  uncertainty r = 0.000035, k = 1.678497
        20        32     1        0.153437   222048.792285    ;  uncertainty r = 0.000064, k = 7.263952
        32        33     1        0.109505   310696.296338    ;  uncertainty r = 0.000004, k = 0.427109
        32        34     1        0.109505   310696.296338    ;  uncertainty r = 0.000004, k = 0.427109
        32        35     1        0.109505   310696.296338    ;  uncertainty r = 0.000004, k = 0.427109

[ angles ]
;       ai        aj        ak funct           theta             cth
         1         2         3     1      124.614235      359.881075    ;  uncertainty theta = 0.007318, k = 0.141141
         1         2        11     1      117.122276      401.475760    ;  uncertainty theta = 0.004274, k = 0.169678
         1         5        12     1      122.451149      457.836639    ;  uncertainty theta = 0.012324, k = 0.396747
         1         5        13     1      112.777939      397.551185    ;  uncertainty theta = 0.004296, k = 0.197514
         1         8        10     1      124.614235      359.881075    ;  uncertainty theta = 0.007318, k = 0.141141
         1         8        21     1      117.122276      401.475760    ;  uncertainty theta = 0.004274, k = 0.169678
         2         1         5     1      120.701454      353.629431    ;  uncertainty theta = 0.013311, k = 0.275393
         2         1         8     1      120.699013      430.079652    ;  uncertainty theta = 0.009492, k = 0.209916
         2         3         9     1      118.495155      498.161267    ;  uncertainty theta = 0.004039, k = 0.062916
         2         3        22     1      120.521286      283.386643    ;  uncertainty theta = 0.002118, k = 0.065156
         3         2        11     1      119.919701      462.386458    ;  uncertainty theta = 0.001017, k = 0.162558
         3         9        10     1      119.368362      506.538875    ;  uncertainty theta = 0.002463, k = 0.055814
         3         9        25     1      119.878922      281.614496    ;  uncertainty theta = 0.001408, k = 0.030814
         4         6         7     1      115.739685      478.573602    ;  uncertainty theta = 0.004925, k = 0.048676
         4         6        23     1      120.342453      269.550669    ;  uncertainty theta = 0.001665, k = 0.097098
         4        13         5     1      117.316322      446.625912    ;  uncertainty theta = 0.002594, k = 0.143032
         4        13        27     1      113.569641      313.594043    ;  uncertainty theta = 0.004804, k = 0.335936
         4        16        15     1      114.588478      483.583567    ;  uncertainty theta = 0.010200, k = 0.178746
         4        16        28     1      120.939209      271.450854    ;  uncertainty theta = 0.003524, k = 0.170658
         5         1         8     1      120.701454      353.629431    ;  uncertainty theta = 0.013311, k = 0.275393
         5        13        27     1      116.863647      359.759902    ;  uncertainty theta = 0.004202, k = 0.178017
         6         4        13     1      120.717148      522.791043    ;  uncertainty theta = 0.004408, k = 0.164372
         6         4        16     1      117.416847      392.902218    ;  uncertainty theta = 0.006627, k = 0.175333
         6         7        14     1      123.543961      696.121300    ;  uncertainty theta = 0.003420, k = 0.078262
         6         7        24     1      120.074997      274.168737    ;  uncertainty theta = 0.001842, k = 0.112779
         7         6        23     1      122.550827      311.952454    ;  uncertainty theta = 0.002566, k = 0.162360
         7        14        15     1      113.171165      421.820121    ;  uncertainty theta = 0.009168, k = 0.222166
         8        10         9     1      118.495155      498.161267    ;  uncertainty theta = 0.004039, k = 0.062916
         8        10        26     1      120.521286      283.386643    ;  uncertainty theta = 0.002118, k = 0.065156
         9         3        22     1      121.431229      283.380802    ;  uncertainty theta = 0.000813, k = 0.055588
         9        10        26     1      121.431229      283.380802    ;  uncertainty theta = 0.000813, k = 0.055588
        10         8        21     1      119.919701      462.386458    ;  uncertainty theta = 0.001017, k = 0.162558
        10         9        25     1      119.878922      281.614496    ;  uncertainty theta = 0.001408, k = 0.030814
        12         5        13     1      122.021950      773.152841    ;  uncertainty theta = 0.004688, k = 0.191943
        13         4        16     1      120.305321      521.084110    ;  uncertainty theta = 0.005936, k = 0.131730
        14         7        24     1      115.960632      320.554885    ;  uncertainty theta = 0.002673, k = 0.119768
        14        15        16     1      123.052963      543.731919    ;  uncertainty theta = 0.009740, k = 0.205687
        14        15        17     1      120.095642      729.751885    ;  uncertainty theta = 0.004821, k = 0.073816
        15        16        28     1      121.675072      278.094588    ;  uncertainty theta = 0.005304, k = 0.123804
        15        17        18     1      120.721230      439.432523    ;  uncertainty theta = 0.003035, k = 0.184604
        15        17        29     1      116.706017      331.734776    ;  uncertainty theta = 0.001886, k = 0.189857
        16        15        17     1      121.400742      554.124820    ;  uncertainty theta = 0.006859, k = 0.266999
        17        18        19     1      122.670120      735.577155    ;  uncertainty theta = 0.003885, k = 0.126948
        17        18        20     1      113.182419      512.830293    ;  uncertainty theta = 0.002751, k = 0.124883
        18        17        29     1      116.721397      274.614902    ;  uncertainty theta = 0.003296, k = 0.257547
        18        20        30     1      106.318848      358.264193    ;  uncertainty theta = 0.003727, k = 0.063895
        18        20        31     1      106.318848      358.264193    ;  uncertainty theta = 0.003727, k = 0.063895
        18        20        32     1      108.924400      501.364706    ;  uncertainty theta = 0.002892, k = 0.073558
        19        18        20     1      124.829849      541.023900    ;  uncertainty theta = 0.004062, k = 0.119573
        20        32        33     1      108.168861      407.697557    ;  uncertainty theta = 0.001763, k = 0.042876
        20        32        34     1      108.168861      407.697557    ;  uncertainty theta = 0.001763, k = 0.042876
        20        32        35     1      108.168861      407.697557    ;  uncertainty theta = 0.001763, k = 0.042876
        30        20        31     1      105.217690      316.302701    ;  uncertainty theta = 0.003254, k = 0.036010
        30        20        32     1      108.976181      401.774256    ;  uncertainty theta = 0.001753, k = 0.028268
        31        20        32     1      108.976181      401.774256    ;  uncertainty theta = 0.001753, k = 0.028268
        33        32        34     1      105.171593      316.398337    ;  uncertainty theta = 0.001675, k = 0.026564
        33        32        35     1      105.171593      316.398337    ;  uncertainty theta = 0.001675, k = 0.026564
        34        32        35     1      105.171593      316.398305    ;  uncertainty theta = 0.001675, k = 0.026564

[ dihedrals ] ; propers for gromacs 4.5 or higher, use funct 9
;       ai        aj        ak        al funct           phase               k        pn
         1         2         3         9     9        0.000000        0.129562         1    ;  uncertainty k = 0.258537
         1         2         3         9     9      180.000000        9.006461         2    ;  uncertainty k = 0.178121
         1         2         3         9     9        0.000000        0.010291         3    ;  uncertainty k = 0.509158
         1         2         3         9     9      180.000000        1.179148         4    ;  uncertainty k = 0.340357
         1         2         3        22     9        0.000000        0.017749         1    ;  uncertainty k = 0.506174
         1         2         3        22     9      180.000000        5.847178         2    ;  uncertainty k = 0.808481
         1         2         3        22     9        0.000000        1.301869         3    ;  uncertainty k = 0.271599
         1         2         3        22     9      180.000000        1.572515         4    ;  uncertainty k = 0.163634
         1         5        13         4     9        0.000000        4.012883         1    ;  uncertainty k = 0.741994
         1         5        13         4     9      180.000000       10.050056         2    ;  uncertainty k = 0.176781
         1         5        13         4     9        0.000000        1.524529         3    ;  uncertainty k = 0.439697
         1         5        13         4     9      180.000000       -1.034114         4    ;  uncertainty k = 0.394406
         1         5        13        27     9        0.000000        0.286201         1    ;  uncertainty k = 0.970625
         1         5        13        27     9      180.000000        4.591571         2    ;  uncertainty k = 0.675511
         1         5        13        27     9        0.000000        1.269715         3    ;  uncertainty k = 0.289099
         1         5        13        27     9      180.000000        0.225446         4    ;  uncertainty k = 0.265035
         1         8        10         9     9        0.000000        0.129562         1    ;  uncertainty k = 0.258537
         1         8        10         9     9      180.000000        9.006461         2    ;  uncertainty k = 0.178121
         1         8        10         9     9        0.000000        0.010291         3    ;  uncertainty k = 0.509158
         1         8        10         9     9      180.000000        1.179148         4    ;  uncertainty k = 0.340357
         1         8        10        26     9        0.000000        0.017749         1    ;  uncertainty k = 0.506174
         1         8        10        26     9      180.000000        5.847178         2    ;  uncertainty k = 0.808481
         1         8        10        26     9        0.000000        1.301869         3    ;  uncertainty k = 0.271599
         1         8        10        26     9      180.000000        1.572515         4    ;  uncertainty k = 0.163634
         2         1         5        12     9        0.000000       -0.938458         1    ;  uncertainty k = 0.721948
         2         1         5        12     9      180.000000        3.726943         2    ;  uncertainty k = 0.367149
         2         1         5        12     9        0.000000        0.533107         3    ;  uncertainty k = 0.173933
         2         1         5        12     9      180.000000        0.129066         4    ;  uncertainty k = 0.152302
         2         1         5        13     9        0.000000        1.636802         1    ;  uncertainty k = 0.717500
         2         1         5        13     9      180.000000        0.794893         2    ;  uncertainty k = 0.489697
         2         1         5        13     9        0.000000        0.486371         3    ;  uncertainty k = 0.368442
         2         1         5        13     9      180.000000       -0.111126         4    ;  uncertainty k = 0.129000
         2         1         8        10     9        0.000000        0.157030         1    ;  uncertainty k = 0.251028
         2         1         8        10     9      180.000000        6.621005         2    ;  uncertainty k = 0.890169
         2         1         8        10     9        0.000000        0.446154         3    ;  uncertainty k = 0.192247
         2         1         8        10     9      180.000000        1.346016         4    ;  uncertainty k = 0.373704
         2         1         8        21     9        0.000000        0.044095         1    ;  uncertainty k = 0.788675
         2         1         8        21     9      180.000000        8.268702         2    ;  uncertainty k = 0.180496
         2         1         8        21     9        0.000000        1.453925         3    ;  uncertainty k = 0.378329
         2         1         8        21     9      180.000000        1.534665         4    ;  uncertainty k = 0.225736
         2         3         9        10     9        0.000000        0.056957         1    ;  uncertainty k = 0.125369
         2         3         9        10     9      180.000000       14.284910         2    ;  uncertainty k = 0.214373
         2         3         9        10     9        0.000000       -1.022656         3    ;  uncertainty k = 0.417280
         2         3         9        10     9      180.000000        0.771729         4    ;  uncertainty k = 0.212175
         2         3         9        25     9        0.000000        0.083384         1    ;  uncertainty k = 0.200417
         2         3         9        25     9      180.000000        7.197642         2    ;  uncertainty k = 0.253695
         2         3         9        25     9        0.000000        1.438769         3    ;  uncertainty k = 0.264288
         2         3         9        25     9      180.000000        1.864824         4    ;  uncertainty k = 0.166987
         3         2         1         5     9        0.000000        0.540121         1    ;  uncertainty k = 0.659361
         3         2         1         5     9      180.000000        6.952584         2    ;  uncertainty k = 0.900726
         3         2         1         5     9        0.000000        1.504339         3    ;  uncertainty k = 0.227715
         3         2         1         5     9      180.000000        1.691626         4    ;  uncertainty k = 0.279736
         3         2         1         8     9        0.000000        0.157030         1    ;  uncertainty k = 0.251028
         3         2         1         8     9      180.000000        6.621005         2    ;  uncertainty k = 0.890169
         3         2         1         8     9        0.000000        0.446154         3    ;  uncertainty k = 0.192247
         3         2         1         8     9      180.000000        1.346016         4    ;  uncertainty k = 0.373704
         3         9        10         8     9        0.000000        0.056957         1    ;  uncertainty k = 0.125369
         3         9        10         8     9      180.000000       14.284910         2    ;  uncertainty k = 0.214373
         3         9        10         8     9        0.000000       -1.022656         3    ;  uncertainty k = 0.417280
         3         9        10         8     9      180.000000        0.771729         4    ;  uncertainty k = 0.212175
         3         9        10        26     9        0.000000        0.071341         1    ;  uncertainty k = 0.156537
         3         9        10        26     9      180.000000        7.824333         2    ;  uncertainty k = 0.388735
         3         9        10        26     9        0.000000        1.476015         3    ;  uncertainty k = 0.262591
         3         9        10        26     9      180.000000        1.800034         4    ;  uncertainty k = 0.168947
         4         6         7        14     9        0.000000       -0.195407         1    ;  uncertainty k = 0.224371
         4         6         7        14     9      180.000000       15.656345         2    ;  uncertainty k = 0.436682
         4         6         7        14     9        0.000000       -1.161745         3    ;  uncertainty k = 0.312648
         4         6         7        14     9      180.000000        0.795456         4    ;  uncertainty k = 0.157453
         4         6         7        24     9        0.000000       -0.488021         1    ;  uncertainty k = 0.352061
         4         6         7        24     9      180.000000        6.981430         2    ;  uncertainty k = 0.581321
         4         6         7        24     9        0.000000        1.147582         3    ;  uncertainty k = 0.230024
         4         6         7        24     9      180.000000        1.407164         4    ;  uncertainty k = 0.046480
         4        13         5        12     9        0.000000        3.184547         1    ;  uncertainty k = 1.295174
         4        13         5        12     9      180.000000       13.546940         2    ;  uncertainty k = 0.231063
         4        13         5        12     9        0.000000        0.722658         3    ;  uncertainty k = 0.182961
         4        13         5        12     9      180.000000       -0.666531         4    ;  uncertainty k = 0.131850
         4        16        15        14     9        0.000000       -0.458053         1    ;  uncertainty k = 0.239994
         4        16        15        14     9      180.000000       10.271256         2    ;  uncertainty k = 0.471590
         4        16        15        14     9        0.000000       -0.436454         3    ;  uncertainty k = 0.665296
         4        16        15        14     9      180.000000        0.997482         4    ;  uncertainty k = 0.090155
         4        16        15        17     9        0.000000       -0.006066         1    ;  uncertainty k = 0.605091
         4        16        15        17     9      180.000000        8.603453         2    ;  uncertainty k = 0.568641
         4        16        15        17     9        0.000000        0.877019         3    ;  uncertainty k = 0.396166
         4        16        15        17     9      180.000000        1.230480         4    ;  uncertainty k = 0.509356
         5         1         2        11     9        0.000000        0.293529         1    ;  uncertainty k = 1.201193
         5         1         2        11     9      180.000000        8.809351         2    ;  uncertainty k = 0.492509
         5         1         2        11     9        0.000000        1.507479         3    ;  uncertainty k = 0.181959
         5         1         2        11     9      180.000000        1.331521         4    ;  uncertainty k = 0.158721
         5         1         8        10     9        0.000000        0.540121         1    ;  uncertainty k = 0.659361
         5         1         8        10     9      180.000000        6.952584         2    ;  uncertainty k = 0.900726
         5         1         8        10     9        0.000000        1.504339         3    ;  uncertainty k = 0.227715
         5         1         8        10     9      180.000000        1.691626         4    ;  uncertainty k = 0.279736
         5         1         8        21     9        0.000000        0.293529         1    ;  uncertainty k = 1.201193
         5         1         8        21     9      180.000000        8.809351         2    ;  uncertainty k = 0.492509
         5         1         8        21     9        0.000000        1.507479         3    ;  uncertainty k = 0.181959
         5         1         8        21     9      180.000000        1.331521         4    ;  uncertainty k = 0.158721
         5        13         4         6     9        0.000000        0.671405         1    ;  uncertainty k = 0.779653
         5        13         4         6     9      180.000000        5.171684         2    ;  uncertainty k = 0.343054
         5        13         4         6     9        0.000000        0.900418         3    ;  uncertainty k = 0.162472
         5        13         4         6     9      180.000000        0.037683         4    ;  uncertainty k = 0.022188
         5        13         4        16     9        0.000000        0.711827         1    ;  uncertainty k = 0.532347
         5        13         4        16     9      180.000000        5.530463         2    ;  uncertainty k = 0.448142
         5        13         4        16     9        0.000000        0.877052         3    ;  uncertainty k = 0.137757
         5        13         4        16     9      180.000000        0.010492         4    ;  uncertainty k = 0.127906
         6         4        13        27     9        0.000000        1.029279         1    ;  uncertainty k = 1.463602
         6         4        13        27     9      180.000000        5.196719         2    ;  uncertainty k = 0.208685
         6         4        13        27     9        0.000000        0.851853         3    ;  uncertainty k = 0.351032
         6         4        13        27     9      180.000000        0.326889         4    ;  uncertainty k = 0.129780
         6         4        16        15     9        0.000000       -0.028191         1    ;  uncertainty k = 0.315667
         6         4        16        15     9      180.000000       10.314867         2    ;  uncertainty k = 0.408143
         6         4        16        15     9        0.000000       -0.325322         3    ;  uncertainty k = 0.121591
         6         4        16        15     9      180.000000        1.126788         4    ;  uncertainty k = 0.285300
         6         4        16        28     9        0.000000        0.495810         1    ;  uncertainty k = 0.512648
         6         4        16        28     9      180.000000        7.789312         2    ;  uncertainty k = 0.437403
         6         4        16        28     9        0.000000        1.413160         3    ;  uncertainty k = 0.268514
         6         4        16        28     9      180.000000        1.568179         4    ;  uncertainty k = 0.220540
         6         7        14        15     9        0.000000       -0.434713         1    ;  uncertainty k = 0.295851
         6         7        14        15     9      180.000000       14.503751         2    ;  uncertainty k = 0.431017
         6         7        14        15     9        0.000000        0.741225         3    ;  uncertainty k = 0.439167
         6         7        14        15     9      180.000000        1.332004         4    ;  uncertainty k = 0.255024
         7         6         4        13     9        0.000000       -0.156685         1    ;  uncertainty k = 0.327783
         7         6         4        13     9      180.000000       10.573743         2    ;  uncertainty k = 0.368407
         7         6         4        13     9        0.000000        0.699890         3    ;  uncertainty k = 0.295405
         7         6         4        13     9      180.000000        1.371703         4    ;  uncertainty k = 0.342554
         7         6         4        16     9        0.000000       -0.285179         1    ;  uncertainty k = 0.405985
         7         6         4        16     9      180.000000       10.375539         2    ;  uncertainty k = 0.252930
         7         6         4        16     9        0.000000       -0.505381         3    ;  uncertainty k = 0.471184
         7         6         4        16     9      180.000000        1.111552         4    ;  uncertainty k = 0.116415
         7        14        15        16     9        0.000000       -0.528694         1    ;  uncertainty k = 0.675372
         7        14        15        16     9      180.000000       11.793032         2    ;  uncertainty k = 0.802008
         7        14        15        16     9        0.000000        0.955202         3    ;  uncertainty k = 0.649914
         7        14        15        16     9      180.000000        1.375976         4    ;  uncertainty k = 0.297244
         7        14        15        17     9        0.000000       -0.208738         1    ;  uncertainty k = 1.300762
         7        14        15        17     9      180.000000       15.822362         2    ;  uncertainty k = 0.266412
         7        14        15        17     9        0.000000        1.970003         3    ;  uncertainty k = 0.410338
         7        14        15        17     9      180.000000        1.752868         4    ;  uncertainty k = 0.410883
         8         1         2        11     9        0.000000        0.044095         1    ;  uncertainty k = 0.788675
         8         1         2        11     9      180.000000        8.268702         2    ;  uncertainty k = 0.180496
         8         1         2        11     9        0.000000        1.453925         3    ;  uncertainty k = 0.378329
         8         1         2        11     9      180.000000        1.534665         4    ;  uncertainty k = 0.225736
         8         1         5        12     9        0.000000       -0.938458         1    ;  uncertainty k = 0.721948
         8         1         5        12     9      180.000000        3.726943         2    ;  uncertainty k = 0.367149
         8         1         5        12     9        0.000000        0.533107         3    ;  uncertainty k = 0.173933
         8         1         5        12     9      180.000000        0.129066         4    ;  uncertainty k = 0.152302
         8         1         5        13     9        0.000000        1.636802         1    ;  uncertainty k = 0.717500
         8         1         5        13     9      180.000000        0.794893         2    ;  uncertainty k = 0.489697
         8         1         5        13     9        0.000000        0.486371         3    ;  uncertainty k = 0.368442
         8         1         5        13     9      180.000000       -0.111126         4    ;  uncertainty k = 0.129000
         8        10         9        25     9        0.000000        0.083384         1    ;  uncertainty k = 0.200417
         8        10         9        25     9      180.000000        7.197642         2    ;  uncertainty k = 0.253695
         8        10         9        25     9        0.000000        1.438769         3    ;  uncertainty k = 0.264288
         8        10         9        25     9      180.000000        1.864824         4    ;  uncertainty k = 0.166987
         9         3         2        11     9        0.000000       -0.125974         1    ;  uncertainty k = 0.141879
         9         3         2        11     9      180.000000        9.826857         2    ;  uncertainty k = 0.423980
         9         3         2        11     9        0.000000        1.360528         3    ;  uncertainty k = 0.293318
         9         3         2        11     9      180.000000        1.645146         4    ;  uncertainty k = 0.120261
         9        10         8        21     9        0.000000       -0.125974         1    ;  uncertainty k = 0.141879
         9        10         8        21     9      180.000000        9.826857         2    ;  uncertainty k = 0.423980
         9        10         8        21     9        0.000000        1.360528         3    ;  uncertainty k = 0.293318
         9        10         8        21     9      180.000000        1.645146         4    ;  uncertainty k = 0.120261
        10         9         3        22     9        0.000000        0.071341         1    ;  uncertainty k = 0.156537
        10         9         3        22     9      180.000000        7.824333         2    ;  uncertainty k = 0.388735
        10         9         3        22     9        0.000000        1.476015         3    ;  uncertainty k = 0.262591
        10         9         3        22     9      180.000000        1.800034         4    ;  uncertainty k = 0.168947
        11         2         3        22     9        0.000000       -0.203688         1    ;  uncertainty k = 0.537167
        11         2         3        22     9      180.000000        7.741258         2    ;  uncertainty k = 0.413148
        11         2         3        22     9        0.000000        0.589378         3    ;  uncertainty k = 0.256365
        11         2         3        22     9      180.000000        1.098417         4    ;  uncertainty k = 0.232050
        12         5        13        27     9        0.000000        2.754751         1    ;  uncertainty k = 1.678083
        12         5        13        27     9      180.000000       15.343140         2    ;  uncertainty k = 0.287199
        12         5        13        27     9        0.000000        1.862099         3    ;  uncertainty k = 0.346350
        12         5        13        27     9      180.000000       -0.086397         4    ;  uncertainty k = 0.341591
        13         4         6        23     9        0.000000       -0.319544         1    ;  uncertainty k = 0.345314
        13         4         6        23     9      180.000000        8.037585         2    ;  uncertainty k = 0.455395
        13         4         6        23     9        0.000000        0.835277         3    ;  uncertainty k = 0.138723
        13         4         6        23     9      180.000000        1.127271         4    ;  uncertainty k = 0.123904
        13         4        16        15     9        0.000000       -0.059790         1    ;  uncertainty k = 0.523991
        13         4        16        15     9      180.000000       12.014524         2    ;  uncertainty k = 0.783944
        13         4        16        15     9        0.000000        0.818362         3    ;  uncertainty k = 0.288442
        13         4        16        15     9      180.000000        1.302314         4    ;  uncertainty k = 0.671140
        13         4        16        28     9        0.000000       -0.284940         1    ;  uncertainty k = 0.433757
        13         4        16        28     9      180.000000        8.866330         2    ;  uncertainty k = 0.437510
        13         4        16        28     9        0.000000        0.893476         3    ;  uncertainty k = 0.163359
        13         4        16        28     9      180.000000        1.196102         4    ;  uncertainty k = 0.184028
        14         7         6        23     9        0.000000        0.122843         1    ;  uncertainty k = 0.167730
        14         7         6        23     9      180.000000       10.140002         2    ;  uncertainty k = 0.394062
        14         7         6        23     9        0.000000        1.030077         3    ;  uncertainty k = 0.344283
        14         7         6        23     9      180.000000        1.733914         4    ;  uncertainty k = 0.164436
        14        15        16        28     9        0.000000        0.559591         1    ;  uncertainty k = 0.639862
        14        15        16        28     9      180.000000        7.871684         2    ;  uncertainty k = 0.835351
        14        15        16        28     9        0.000000        1.190588         3    ;  uncertainty k = 0.278800
        14        15        16        28     9      180.000000        1.417642         4    ;  uncertainty k = 0.207577
        14        15        17        18     9        0.000000        1.785630         1    ;  uncertainty k = 0.809319
        14        15        17        18     9      180.000000        5.641711         2    ;  uncertainty k = 0.462486
        14        15        17        18     9        0.000000        0.938443         3    ;  uncertainty k = 0.222326
        14        15        17        18     9      180.000000       -0.162272         4    ;  uncertainty k = 0.156377
        14        15        17        29     9        0.000000        6.232604         1    ;  uncertainty k = 0.472178
        14        15        17        29     9      180.000000        4.737147         2    ;  uncertainty k = 0.502774
        14        15        17        29     9        0.000000        0.153117         3    ;  uncertainty k = 0.282878
        14        15        17        29     9      180.000000        0.103074         4    ;  uncertainty k = 0.251449
        15        14         7        24     9        0.000000       -0.315040         1    ;  uncertainty k = 0.365531
        15        14         7        24     9      180.000000       14.999339         2    ;  uncertainty k = 0.497634
        15        14         7        24     9        0.000000        2.039003         3    ;  uncertainty k = 0.733909
        15        14         7        24     9      180.000000        1.321761         4    ;  uncertainty k = 0.405833
        15        17        18        19     9        0.000000        4.467379         1    ;  uncertainty k = 0.267204
        15        17        18        19     9      180.000000       16.404602         2    ;  uncertainty k = 0.230383
        15        17        18        19     9        0.000000        0.532809         3    ;  uncertainty k = 0.206045
        15        17        18        19     9      180.000000       -1.263528         4    ;  uncertainty k = 0.113685
        15        17        18        20     9        0.000000        4.749599         1    ;  uncertainty k = 1.217602
        15        17        18        20     9      180.000000        8.065246         2    ;  uncertainty k = 0.691681
        15        17        18        20     9        0.000000        0.980783         3    ;  uncertainty k = 0.241042
        15        17        18        20     9      180.000000       -0.227006         4    ;  uncertainty k = 0.302741
        16         4         6        23     9        0.000000        0.271532         1    ;  uncertainty k = 0.336428
        16         4         6        23     9      180.000000        7.226426         2    ;  uncertainty k = 0.631095
        16         4         6        23     9        0.000000        1.360809         3    ;  uncertainty k = 0.281224
        16         4         6        23     9      180.000000        1.471445         4    ;  uncertainty k = 0.135494
        16         4        13        27     9        0.000000        2.082977         1    ;  uncertainty k = 1.379272
        16         4        13        27     9      180.000000        5.485332         2    ;  uncertainty k = 0.410084
        16         4        13        27     9        0.000000        0.777949         3    ;  uncertainty k = 0.387063
        16         4        13        27     9      180.000000        0.268009         4    ;  uncertainty k = 0.118801
        16        15        17        18     9        0.000000       -0.039804         1    ;  uncertainty k = 1.211401
        16        15        17        18     9      180.000000        4.890167         2    ;  uncertainty k = 0.159382
        16        15        17        18     9        0.000000        0.548571         3    ;  uncertainty k = 0.167027
        16        15        17        18     9      180.000000       -0.239666         4    ;  uncertainty k = 0.129808
        16        15        17        29     9        0.000000        0.717019         1    ;  uncertainty k = 0.956911
        16        15        17        29     9      180.000000        4.668566         2    ;  uncertainty k = 0.561258
        16        15        17        29     9        0.000000        1.202178         3    ;  uncertainty k = 0.335049
        16        15        17        29     9      180.000000        0.151741         4    ;  uncertainty k = 0.192706
        17        15        16        28     9        0.000000       -0.359067         1    ;  uncertainty k = 0.436111
        17        15        16        28     9      180.000000        6.577755         2    ;  uncertainty k = 0.197997
        17        15        16        28     9        0.000000        0.861275         3    ;  uncertainty k = 0.189479
        17        15        16        28     9      180.000000        0.944614         4    ;  uncertainty k = 0.191552
        17        18        20        30     9        0.000000       -1.107030         1    ;  uncertainty k = 0.340621
        17        18        20        30     9      180.000000        2.802179         2    ;  uncertainty k = 0.223927
        17        18        20        30     9        0.000000        0.226532         3    ;  uncertainty k = 0.082947
        17        18        20        30     9      180.000000        0.103716         4    ;  uncertainty k = 0.109404
        17        18        20        31     9        0.000000       -1.107030         1    ;  uncertainty k = 0.340621
        17        18        20        31     9      180.000000        2.802179         2    ;  uncertainty k = 0.223927
        17        18        20        31     9        0.000000        0.226532         3    ;  uncertainty k = 0.082947
        17        18        20        31     9      180.000000        0.103716         4    ;  uncertainty k = 0.109404
        17        18        20        32     9        0.000000       -2.751213         1    ;  uncertainty k = 0.588294
        17        18        20        32     9      180.000000        2.831292         2    ;  uncertainty k = 0.341918
        17        18        20        32     9        0.000000        0.152931         3    ;  uncertainty k = 0.146041
        17        18        20        32     9      180.000000        0.210895         4    ;  uncertainty k = 0.116972
        18        20        32        33     9        0.000000        0.830266         1    ;  uncertainty k = 0.522648
        18        20        32        33     9      180.000000       -1.038640         2    ;  uncertainty k = 0.104726
        18        20        32        33     9        0.000000        1.039538         3    ;  uncertainty k = 0.089469
        18        20        32        33     9      180.000000       -0.097483         4    ;  uncertainty k = 0.056452
        18        20        32        34     9        0.000000        0.830266         1    ;  uncertainty k = 0.522648
        18        20        32        34     9      180.000000       -1.038640         2    ;  uncertainty k = 0.104726
        18        20        32        34     9        0.000000        1.039538         3    ;  uncertainty k = 0.089469
        18        20        32        34     9      180.000000       -0.097483         4    ;  uncertainty k = 0.056452
        18        20        32        35     9        0.000000        0.830266         1    ;  uncertainty k = 0.522648
        18        20        32        35     9      180.000000       -1.038640         2    ;  uncertainty k = 0.104726
        18        20        32        35     9        0.000000        1.039538         3    ;  uncertainty k = 0.089469
        18        20        32        35     9      180.000000       -0.097483         4    ;  uncertainty k = 0.056452
        19        18        17        29     9        0.000000        3.034971         1    ;  uncertainty k = 0.884209
        19        18        17        29     9      180.000000       14.130787         2    ;  uncertainty k = 0.340069
        19        18        17        29     9        0.000000        0.887496         3    ;  uncertainty k = 0.248359
        19        18        17        29     9      180.000000       -0.346500         4    ;  uncertainty k = 0.275828
        19        18        20        30     9        0.000000       -0.240579         1    ;  uncertainty k = 0.382194
        19        18        20        30     9      180.000000        4.194968         2    ;  uncertainty k = 0.169513
        19        18        20        30     9        0.000000        0.668259         3    ;  uncertainty k = 0.093860
        19        18        20        30     9      180.000000        0.295113         4    ;  uncertainty k = 0.046278
        19        18        20        31     9        0.000000       -0.240579         1    ;  uncertainty k = 0.382194
        19        18        20        31     9      180.000000        4.194968         2    ;  uncertainty k = 0.169513
        19        18        20        31     9        0.000000        0.668259         3    ;  uncertainty k = 0.093860
        19        18        20        31     9      180.000000        0.295113         4    ;  uncertainty k = 0.046278
        19        18        20        32     9        0.000000       -3.219168         1    ;  uncertainty k = 0.199892
        19        18        20        32     9      180.000000        5.358097         2    ;  uncertainty k = 0.406383
        19        18        20        32     9        0.000000        0.855204         3    ;  uncertainty k = 0.174589
        19        18        20        32     9      180.000000        0.414820         4    ;  uncertainty k = 0.083062
        20        18        17        29     9        0.000000       -0.405298         1    ;  uncertainty k = 0.722297
        20        18        17        29     9      180.000000        5.403118         2    ;  uncertainty k = 0.322211
        20        18        17        29     9        0.000000        1.684847         3    ;  uncertainty k = 0.157904
        20        18        17        29     9      180.000000        0.183792         4    ;  uncertainty k = 0.301396
        21         8        10        26     9        0.000000       -0.203688         1    ;  uncertainty k = 0.537167
        21         8        10        26     9      180.000000        7.741258         2    ;  uncertainty k = 0.413148
        21         8        10        26     9        0.000000        0.589378         3    ;  uncertainty k = 0.256365
        21         8        10        26     9      180.000000        1.098417         4    ;  uncertainty k = 0.232050
        22         3         9        25     9        0.000000        0.001385         1    ;  uncertainty k = 0.129514
        22         3         9        25     9      180.000000        7.970131         2    ;  uncertainty k = 0.421308
        22         3         9        25     9        0.000000       -0.442113         3    ;  uncertainty k = 0.230001
        22         3         9        25     9      180.000000        0.054396         4    ;  uncertainty k = 0.177102
        23         6         7        24     9        0.000000       -0.486927         1    ;  uncertainty k = 0.274037
        23         6         7        24     9      180.000000        6.750554         2    ;  uncertainty k = 0.157763
        23         6         7        24     9        0.000000        0.049287         3    ;  uncertainty k = 0.230238
        23         6         7        24     9      180.000000        0.424459         4    ;  uncertainty k = 0.124639
        25         9        10        26     9        0.000000        0.001385         1    ;  uncertainty k = 0.129514
        25         9        10        26     9      180.000000        7.970132         2    ;  uncertainty k = 0.421308
        25         9        10        26     9        0.000000       -0.442113         3    ;  uncertainty k = 0.230001
        25         9        10        26     9      180.000000        0.054396         4    ;  uncertainty k = 0.177102
        30        20        32        33     9        0.000000        0.294338         1    ;  uncertainty k = 0.429854
        30        20        32        33     9      180.000000       -0.329602         2    ;  uncertainty k = 0.148192
        30        20        32        33     9        0.000000        0.649167         3    ;  uncertainty k = 0.051951
        30        20        32        33     9      180.000000       -0.045857         4    ;  uncertainty k = 0.048083
        30        20        32        34     9        0.000000        0.294338         1    ;  uncertainty k = 0.429854
        30        20        32        34     9      180.000000       -0.329602         2    ;  uncertainty k = 0.148192
        30        20        32        34     9        0.000000        0.649167         3    ;  uncertainty k = 0.051951
        30        20        32        34     9      180.000000       -0.045857         4    ;  uncertainty k = 0.048083
        30        20        32        35     9        0.000000        0.294338         1    ;  uncertainty k = 0.429854
        30        20        32        35     9      180.000000       -0.329602         2    ;  uncertainty k = 0.148192
        30        20        32        35     9        0.000000        0.649167         3    ;  uncertainty k = 0.051951
        30        20        32        35     9      180.000000       -0.045857         4    ;  uncertainty k = 0.048083
        31        20        32        33     9        0.000000        0.294338         1    ;  uncertainty k = 0.429854
        31        20        32        33     9      180.000000       -0.329602         2    ;  uncertainty k = 0.148192
        31        20        32        33     9        0.000000        0.649167         3    ;  uncertainty k = 0.051951
        31        20        32        33     9      180.000000       -0.045857         4    ;  uncertainty k = 0.048083
        31        20        32        34     9        0.000000        0.294338         1    ;  uncertainty k = 0.429854
        31        20        32        34     9      180.000000       -0.329602         2    ;  uncertainty k = 0.148192
        31        20        32        34     9        0.000000        0.649167         3    ;  uncertainty k = 0.051951
        31        20        32        34     9      180.000000       -0.045857         4    ;  uncertainty k = 0.048083
        31        20        32        35     9        0.000000        0.294338         1    ;  uncertainty k = 0.429854
        31        20        32        35     9      180.000000       -0.329602         2    ;  uncertainty k = 0.148192
        31        20        32        35     9        0.000000        0.649167         3    ;  uncertainty k = 0.051951
        31        20        32        35     9      180.000000       -0.045857         4    ;  uncertainty k = 0.048083

[ dihedrals ] ; impropers
;       ai        aj        ak        al funct           phase               k        pn
         1         2         5         8     4      180.000000       12.616542         2    ;  uncertainty k = 0.387975
         1         5         8         2     4      180.000000       12.616542         2    ;  uncertainty k = 0.387975
         1         8         2         5     4      180.000000       12.616542         2    ;  uncertainty k = 0.387975
         2         1         3        11     4      180.000000       14.343354         2    ;  uncertainty k = 0.092046
         2         3        11         1     4      180.000000       14.343354         2    ;  uncertainty k = 0.092046
         2        11         1         3     4      180.000000       14.343354         2    ;  uncertainty k = 0.092046
         3         2         9        22     4      180.000000        3.308569         2    ;  uncertainty k = 0.185728
         3         9        22         2     4      180.000000        3.308569         2    ;  uncertainty k = 0.185728
         3        22         2         9     4      180.000000        3.308569         2    ;  uncertainty k = 0.185728
         4         6        13        16     4      180.000000       20.381320         2    ;  uncertainty k = 0.160244
         4        13        16         6     4      180.000000       20.381320         2    ;  uncertainty k = 0.160244
         4        16         6        13     4      180.000000       20.381320         2    ;  uncertainty k = 0.160244
         5         1        12        13     4      180.000000       56.020619         2    ;  uncertainty k = 0.087383
         5        12        13         1     4      180.000000       56.020619         2    ;  uncertainty k = 0.087383
         5        13         1        12     4      180.000000       56.020619         2    ;  uncertainty k = 0.087383
         6         4         7        23     4      180.000000        0.460309         2    ;  uncertainty k = 0.636565
         6         7        23         4     4      180.000000        0.460309         2    ;  uncertainty k = 0.636565
         6        23         4         7     4      180.000000        0.460309         2    ;  uncertainty k = 0.636565
         7         6        14        24     4      180.000000       14.099144         2    ;  uncertainty k = 0.120134
         7        14        24         6     4      180.000000       14.099144         2    ;  uncertainty k = 0.120134
         7        24         6        14     4      180.000000       14.099144         2    ;  uncertainty k = 0.120134
         8         1        10        21     4      180.000000       14.343354         2    ;  uncertainty k = 0.092046
         8        10        21         1     4      180.000000       14.343354         2    ;  uncertainty k = 0.092046
         8        21         1        10     4      180.000000       14.343354         2    ;  uncertainty k = 0.092046
         9         3        10        25     4      180.000000        4.523845         2    ;  uncertainty k = 0.130961
         9        10        25         3     4      180.000000        4.523845         2    ;  uncertainty k = 0.130961
         9        25         3        10     4      180.000000        4.523845         2    ;  uncertainty k = 0.130961
        10         8         9        26     4      180.000000        3.308569         2    ;  uncertainty k = 0.185728
        10         9        26         8     4      180.000000        3.308569         2    ;  uncertainty k = 0.185728
        10        26         8         9     4      180.000000        3.308569         2    ;  uncertainty k = 0.185728
        13         4         5        27     4      180.000000        0.483818         2    ;  uncertainty k = 0.576474
        13         5        27         4     4      180.000000        0.483818         2    ;  uncertainty k = 0.576474
        13        27         4         5     4      180.000000        0.483818         2    ;  uncertainty k = 0.576474
        15        14        16        17     4      180.000000       28.241008         2    ;  uncertainty k = 0.174168
        15        16        17        14     4      180.000000       28.241008         2    ;  uncertainty k = 0.174168
        15        17        14        16     4      180.000000       28.241008         2    ;  uncertainty k = 0.174168
        16         4        15        28     4      180.000000        1.167983         2    ;  uncertainty k = 0.912611
        16        15        28         4     4      180.000000        1.167983         2    ;  uncertainty k = 0.912611
        16        28         4        15     4      180.000000        1.167983         2    ;  uncertainty k = 0.912611
        17        15        18        29     4      180.000000        0.097559         2    ;  uncertainty k = 0.218149
        17        18        29        15     4      180.000000        0.097559         2    ;  uncertainty k = 0.218149
        17        29        15        18     4      180.000000        0.097559         2    ;  uncertainty k = 0.218149
        18        17        19        20     4      180.000000       55.593016         2    ;  uncertainty k = 0.022011
        18        19        20        17     4      180.000000       55.593016         2    ;  uncertainty k = 0.022011
        18        20        17        19     4      180.000000       55.593016         2    ;  uncertainty k = 0.022011

[ pairs ]
;       ai        aj funct
         1         4     1
         1         9     1
         1        22     1
         1        26     1
         1        27     1
         2        10     1
         2        12     1
         2        13     1
         2        21     1
         2        25     1
         3         5     1
         3         8     1
         3        26     1
         4        12     1
         4        14     1
         4        17     1
         4        24     1
         5         6     1
         5        10     1
         5        11     1
         5        16     1
         5        21     1
         6        15     1
         6        27     1
         6        28     1
         7        13     1
         7        16     1
         7        17     1
         8        11     1
         8        12     1
         8        13     1
         8        25     1
         9        11     1
         9        21     1
        10        22     1
        11        22     1
        12        27     1
        13        15     1
        13        23     1
        13        28     1
        14        18     1
        14        23     1
        14        28     1
        14        29     1
        15        19     1
        15        20     1
        15        24     1
        16        18     1
        16        23     1
        16        27     1
        16        29     1
        17        28     1
        17        30     1
        17        31     1
        17        32     1
        18        33     1
        18        34     1
        18        35     1
        19        29     1
        19        30     1
        19        31     1
        19        32     1
        20        29     1
        21        26     1
        22        25     1
        23        24     1
        25        26     1
        30        33     1
        30        34     1
        30        35     1
        31        33     1
        31        34     1
        31        35     1
