; ITP file created by ByteFF-joint-25, 2026-02-17 09:32:58.299484

[ atomtypes ]
;name           bonded.type        at.num        mass        charge   ptype           sigma         epsilon
 c0bf                                   6      0.0000       0.00000       A     3.31549e-01     4.13390e-01    ;  uncertainty sigma = 0.000035, epsilon = 0.000966
 c1bf                                   6      0.0000       0.00000       A     3.31564e-01     4.13135e-01    ;  uncertainty sigma = 0.000005, epsilon = 0.000387
 c2bf                                   6      0.0000       0.00000       A     3.31525e-01     4.13295e-01    ;  uncertainty sigma = 0.000005, epsilon = 0.000577
 c3bf                                   6      0.0000       0.00000       A     3.31520e-01     4.12649e-01    ;  uncertainty sigma = 0.000010, epsilon = 0.000842
 c4bf                                   6      0.0000       0.00000       A     3.31499e-01     4.12254e-01    ;  uncertainty sigma = 0.000028, epsilon = 0.000802
 c5bf                                   6      0.0000       0.00000       A     3.31522e-01     4.13552e-01    ;  uncertainty sigma = 0.000009, epsilon = 0.000904
 c6bf                                   6      0.0000       0.00000       A     3.31525e-01     4.13403e-01    ;  uncertainty sigma = 0.000005, epsilon = 0.000549
 c7bf                                   6      0.0000       0.00000       A     3.31564e-01     4.13135e-01    ;  uncertainty sigma = 0.000005, epsilon = 0.000387
 c8bf                                   6      0.0000       0.00000       A     3.31519e-01     4.13371e-01    ;  uncertainty sigma = 0.000005, epsilon = 0.000643
 c9bf                                   6      0.0000       0.00000       A     3.31525e-01     4.13295e-01    ;  uncertainty sigma = 0.000005, epsilon = 0.000577
 cl10bf                                17      0.0000       0.00000       A     3.46613e-01     1.10356e+00    ;  uncertainty sigma = 0.000025, epsilon = 0.001519
 o11bf                                  8      0.0000       0.00000       A     3.04792e-01     6.12550e-01    ;  uncertainty sigma = 0.000022, epsilon = 0.001345
 n12bf                                  7      0.0000       0.00000       A     3.27027e-01     4.91624e-01    ;  uncertainty sigma = 0.000027, epsilon = 0.002173
 n13bf                                  7      0.0000       0.00000       A     3.38414e-01     3.92353e-01    ;  uncertainty sigma = 0.000014, epsilon = 0.000887
 c14bf                                  6      0.0000       0.00000       A     3.31538e-01     4.12258e-01    ;  uncertainty sigma = 0.000017, epsilon = 0.000569
 c15bf                                  6      0.0000       0.00000       A     3.31527e-01     4.13270e-01    ;  uncertainty sigma = 0.000022, epsilon = 0.001274
 n16bf                                  7      0.0000       0.00000       A     3.27028e-01     4.89737e-01    ;  uncertainty sigma = 0.000052, epsilon = 0.000823
 c17bf                                  6      0.0000       0.00000       A     3.31548e-01     4.13865e-01    ;  uncertainty sigma = 0.000036, epsilon = 0.001536
 o18bf                                  8      0.0000       0.00000       A     3.04825e-01     6.12727e-01    ;  uncertainty sigma = 0.000018, epsilon = 0.001342
 c19bf                                  6      0.0000       0.00000       A     3.39790e-01     4.50140e-01    ;  uncertainty sigma = 0.000020, epsilon = 0.001645
 cl20bf                                17      0.0000       0.00000       A     3.46613e-01     1.10356e+00    ;  uncertainty sigma = 0.000025, epsilon = 0.001519
 h21bf                                  1      0.0000       0.00000       A     2.62565e-01     6.70619e-02    ;  uncertainty sigma = 0.000008, epsilon = 0.000556
 h22bf                                  1      0.0000       0.00000       A     2.62534e-01     6.69704e-02    ;  uncertainty sigma = 0.000020, epsilon = 0.000545
 h23bf                                  1      0.0000       0.00000       A     2.53656e-01     6.70482e-02    ;  uncertainty sigma = 0.000017, epsilon = 0.000573
 h24bf                                  1      0.0000       0.00000       A     2.62568e-01     6.69546e-02    ;  uncertainty sigma = 0.000006, epsilon = 0.000527
 h25bf                                  1      0.0000       0.00000       A     2.62565e-01     6.70619e-02    ;  uncertainty sigma = 0.000008, epsilon = 0.000556
 h26bf                                  1      0.0000       0.00000       A     1.10697e-01     4.15615e-02    ;  uncertainty sigma = 0.000094, epsilon = 0.000787
 h27bf                                  1      0.0000       0.00000       A     2.62531e-01     6.69228e-02    ;  uncertainty sigma = 0.000026, epsilon = 0.000688
 h28bf                                  1      0.0000       0.00000       A     1.10679e-01     4.13806e-02    ;  uncertainty sigma = 0.000115, epsilon = 0.001425
 h29bf                                  1      0.0000       0.00000       A     2.60056e-01     8.65159e-02    ;  uncertainty sigma = 0.000044, epsilon = 0.000729
 c30bf                                  6      0.0000       0.00000       A     3.39771e-01     4.50543e-01    ;  uncertainty sigma = 0.000006, epsilon = 0.000486
 h31bf                                  1      0.0000       0.00000       A     2.60030e-01     8.65179e-02    ;  uncertainty sigma = 0.000010, epsilon = 0.000645
 h32bf                                  1      0.0000       0.00000       A     2.60030e-01     8.65179e-02    ;  uncertainty sigma = 0.000010, epsilon = 0.000645
 h33bf                                  1      0.0000       0.00000       A     2.60030e-01     8.65179e-02    ;  uncertainty sigma = 0.000010, epsilon = 0.000645
 c34bf                                  6      0.0000       0.00000       A     3.39771e-01     4.50543e-01    ;  uncertainty sigma = 0.000006, epsilon = 0.000486
 h35bf                                  1      0.0000       0.00000       A     2.60030e-01     8.65179e-02    ;  uncertainty sigma = 0.000010, epsilon = 0.000645
 h36bf                                  1      0.0000       0.00000       A     2.60030e-01     8.65182e-02    ;  uncertainty sigma = 0.000010, epsilon = 0.000645
 h37bf                                  1      0.0000       0.00000       A     2.60030e-01     8.65179e-02    ;  uncertainty sigma = 0.000010, epsilon = 0.000645

[ moleculetype ]
;name             nrexcl
 MOL                   3

[ atoms ]
;       nr            type      resi   res      atom      cgnr      charge          mass ; qtot
         1            c0bf         1   UNL        c0         1    -0.13673       12.0110 ; qtot   -0.137
         2            c1bf         1   UNL        c1         2     0.06477       12.0110 ; qtot   -0.072
         3            c2bf         1   UNL        c2         3    -0.12372       12.0110 ; qtot   -0.196
         4            c3bf         1   UNL        c3         4     0.13648       12.0110 ; qtot   -0.059
         5            c4bf         1   UNL        c4         5     0.70160       12.0110 ; qtot    0.642
         6            c5bf         1   UNL        c5         6    -0.31812       12.0110 ; qtot    0.324
         7            c6bf         1   UNL        c6         7     0.45431       12.0110 ; qtot    0.779
         8            c7bf         1   UNL        c7         8     0.06477       12.0110 ; qtot    0.843
         9            c8bf         1   UNL        c8         9    -0.09581       12.0110 ; qtot    0.748
        10            c9bf         1   UNL        c9        10    -0.12372       12.0110 ; qtot    0.624
        11          cl10bf         1   UNL      cl10        11    -0.09667       35.4530 ; qtot    0.527
        12           o11bf         1   UNL       o11        12    -0.55036       15.9990 ; qtot   -0.023
        13           n12bf         1   UNL       n12        13    -0.46533       14.0070 ; qtot   -0.489
        14           n13bf         1   UNL       n13        14    -0.72440       14.0070 ; qtot   -1.213
        15           c14bf         1   UNL       c14        15     0.56437       12.0110 ; qtot   -0.649
        16           c15bf         1   UNL       c15        16    -0.30784       12.0110 ; qtot   -0.956
        17           n16bf         1   UNL       n16        17    -0.57092       14.0070 ; qtot   -1.527
        18           c17bf         1   UNL       c17        18     0.67651       12.0110 ; qtot   -0.851
        19           o18bf         1   UNL       o18        19    -0.56524       15.9990 ; qtot   -1.416
        20           c19bf         1   UNL       c19        20    -0.13746       12.0110 ; qtot   -1.554
        21          cl20bf         1   UNL      cl20        21    -0.09667       35.4530 ; qtot   -1.650
        22           h21bf         1   UNL       h21        22     0.15894        1.0080 ; qtot   -1.491
        23           h22bf         1   UNL       h22        23     0.16313        1.0080 ; qtot   -1.328
        24           h23bf         1   UNL       h23        24     0.01919        1.0080 ; qtot   -1.309
        25           h24bf         1   UNL       h24        25     0.14278        1.0080 ; qtot   -1.166
        26           h25bf         1   UNL       h25        26     0.15894        1.0080 ; qtot   -1.007
        27           h26bf         1   UNL       h26        27     0.33920        1.0080 ; qtot   -0.668
        28           h27bf         1   UNL       h27        28     0.18077        1.0080 ; qtot   -0.487
        29           h28bf         1   UNL       h28        29     0.33848        1.0080 ; qtot   -0.149
        30           h29bf         1   UNL       h29        30     0.06604        1.0080 ; qtot   -0.083
        31           c30bf         1   UNL       c30        31    -0.08608       12.0110 ; qtot   -0.169
        32           h31bf         1   UNL       h31        32     0.04248        1.0080 ; qtot   -0.126
        33           h32bf         1   UNL       h32        33     0.04248        1.0080 ; qtot   -0.084
        34           h33bf         1   UNL       h33        34     0.04248        1.0080 ; qtot   -0.041
        35           c34bf         1   UNL       c34        35    -0.08608       12.0110 ; qtot   -0.127
        36           h35bf         1   UNL       h35        36     0.04248        1.0080 ; qtot   -0.085
        37           h36bf         1   UNL       h36        37     0.04248        1.0080 ; qtot   -0.042
        38           h37bf         1   UNL       h37        38     0.04247        1.0080 ; qtot    0.000

[ bonds ]
;       ai        aj funct               r               k
         1         2     1        0.139920   314205.988965    ;  uncertainty r = 0.000059, k = 10.355889
         1         5     1        0.151314   265032.676025    ;  uncertainty r = 0.000141, k = 25.452716
         1         8     1        0.139920   314205.988965    ;  uncertainty r = 0.000059, k = 10.355889
         2         3     1        0.139442   359146.551563    ;  uncertainty r = 0.000054, k = 3.481137
         2        11     1        0.175360   192488.234717    ;  uncertainty r = 0.000074, k = 4.279805
         3         9     1        0.139292   379946.297314    ;  uncertainty r = 0.000031, k = 1.315137
         3        22     1        0.108683   334938.061377    ;  uncertainty r = 0.000015, k = 0.960770
         4         6     1        0.140570   376090.806689    ;  uncertainty r = 0.000061, k = 6.523252
         4        13     1        0.140706   335244.481152    ;  uncertainty r = 0.000185, k = 14.115330
         4        16     1        0.139888   380122.937500    ;  uncertainty r = 0.000080, k = 3.904899
         5        12     1        0.122846   748673.427441    ;  uncertainty r = 0.000143, k = 20.391507
         5        13     1        0.137342   285190.010254    ;  uncertainty r = 0.000166, k = 14.492660
         6         7     1        0.139660   375491.680566    ;  uncertainty r = 0.000079, k = 13.453144
         6        23     1        0.108729   340462.427637    ;  uncertainty r = 0.000049, k = 2.577688
         7        14     1        0.133994   391612.466064    ;  uncertainty r = 0.000075, k = 9.938255
         7        24     1        0.108903   331910.688135    ;  uncertainty r = 0.000036, k = 1.905640
         8        10     1        0.139442   359146.551563    ;  uncertainty r = 0.000054, k = 3.481137
         8        21     1        0.175360   192488.234717    ;  uncertainty r = 0.000074, k = 4.279805
         9        10     1        0.139292   379946.297314    ;  uncertainty r = 0.000031, k = 1.315137
         9        25     1        0.108720   333853.628027    ;  uncertainty r = 0.000011, k = 1.678519
        10        26     1        0.108683   334938.061377    ;  uncertainty r = 0.000015, k = 0.960770
        13        27     1        0.101831   422627.387549    ;  uncertainty r = 0.000095, k = 5.435166
        14        15     1        0.134783   458799.400586    ;  uncertainty r = 0.000095, k = 12.357008
        15        16     1        0.140380   361708.306689    ;  uncertainty r = 0.000155, k = 21.163455
        15        17     1        0.141374   462516.990820    ;  uncertainty r = 0.000158, k = 11.329591
        16        28     1        0.108728   342650.115186    ;  uncertainty r = 0.000071, k = 4.514926
        17        18     1        0.139092   361235.282812    ;  uncertainty r = 0.000077, k = 18.959969
        17        29     1        0.101993   464965.948535    ;  uncertainty r = 0.000043, k = 6.230245
        18        19     1        0.123317   715034.159375    ;  uncertainty r = 0.000095, k = 2.581367
        18        20     1        0.151524   209143.128857    ;  uncertainty r = 0.000083, k = 8.371739
        20        30     1        0.109794   307837.391406    ;  uncertainty r = 0.000057, k = 2.747642
        20        31     1        0.153461   213023.696924    ;  uncertainty r = 0.000083, k = 5.209627
        20        35     1        0.153461   213023.684155    ;  uncertainty r = 0.000083, k = 5.209628
        31        32     1        0.109553   310688.558594    ;  uncertainty r = 0.000010, k = 0.365808
        31        33     1        0.109553   310688.558594    ;  uncertainty r = 0.000010, k = 0.365808
        31        34     1        0.109553   310688.558594    ;  uncertainty r = 0.000010, k = 0.365808
        35        36     1        0.109553   310688.558594    ;  uncertainty r = 0.000010, k = 0.365800
        35        37     1        0.109553   310688.558594    ;  uncertainty r = 0.000010, k = 0.365800
        35        38     1        0.109553   310688.558594    ;  uncertainty r = 0.000010, k = 0.365800

[ angles ]
;       ai        aj        ak funct           theta             cth
         1         2         3     1      124.614235      359.881075    ;  uncertainty theta = 0.007318, k = 0.141141
         1         2        11     1      117.122276      401.475760    ;  uncertainty theta = 0.004274, k = 0.169678
         1         5        12     1      122.451149      457.836639    ;  uncertainty theta = 0.012324, k = 0.396747
         1         5        13     1      112.777939      397.551185    ;  uncertainty theta = 0.004296, k = 0.197514
         1         8        10     1      124.614235      359.881075    ;  uncertainty theta = 0.007318, k = 0.141141
         1         8        21     1      117.122276      401.475760    ;  uncertainty theta = 0.004274, k = 0.169678
         2         1         5     1      120.701454      353.629431    ;  uncertainty theta = 0.013311, k = 0.275393
         2         1         8     1      120.699013      430.079652    ;  uncertainty theta = 0.009492, k = 0.209916
         2         3         9     1      118.495155      498.161267    ;  uncertainty theta = 0.004039, k = 0.062916
         2         3        22     1      120.521286      283.386643    ;  uncertainty theta = 0.002118, k = 0.065156
         3         2        11     1      119.919701      462.386458    ;  uncertainty theta = 0.001017, k = 0.162558
         3         9        10     1      119.368362      506.538875    ;  uncertainty theta = 0.002463, k = 0.055814
         3         9        25     1      119.878922      281.614496    ;  uncertainty theta = 0.001408, k = 0.030814
         4         6         7     1      115.739685      478.573602    ;  uncertainty theta = 0.004925, k = 0.048676
         4         6        23     1      120.342453      269.550669    ;  uncertainty theta = 0.001665, k = 0.097098
         4        13         5     1      117.316322      446.625912    ;  uncertainty theta = 0.002594, k = 0.143032
         4        13        27     1      113.569641      313.594043    ;  uncertainty theta = 0.004804, k = 0.335936
         4        16        15     1      114.555641      483.709274    ;  uncertainty theta = 0.010370, k = 0.170613
         4        16        28     1      120.939209      271.450854    ;  uncertainty theta = 0.003524, k = 0.170658
         5         1         8     1      120.701454      353.629431    ;  uncertainty theta = 0.013311, k = 0.275393
         5        13        27     1      116.863647      359.759902    ;  uncertainty theta = 0.004202, k = 0.178017
         6         4        13     1      120.717148      522.791043    ;  uncertainty theta = 0.004408, k = 0.164372
         6         4        16     1      117.416847      392.902218    ;  uncertainty theta = 0.006627, k = 0.175333
         6         7        14     1      123.543961      696.121300    ;  uncertainty theta = 0.003420, k = 0.078262
         6         7        24     1      120.074997      274.168737    ;  uncertainty theta = 0.001842, k = 0.112779
         7         6        23     1      122.550827      311.952454    ;  uncertainty theta = 0.002566, k = 0.162360
         7        14        15     1      113.162315      422.341334    ;  uncertainty theta = 0.009061, k = 0.222793
         8        10         9     1      118.495155      498.161267    ;  uncertainty theta = 0.004039, k = 0.062916
         8        10        26     1      120.521286      283.386643    ;  uncertainty theta = 0.002118, k = 0.065156
         9         3        22     1      121.431229      283.380802    ;  uncertainty theta = 0.000813, k = 0.055588
         9        10        26     1      121.431229      283.380802    ;  uncertainty theta = 0.000813, k = 0.055588
        10         8        21     1      119.919701      462.386458    ;  uncertainty theta = 0.001017, k = 0.162558
        10         9        25     1      119.878922      281.614496    ;  uncertainty theta = 0.001408, k = 0.030814
        12         5        13     1      122.021950      773.152841    ;  uncertainty theta = 0.004688, k = 0.191943
        13         4        16     1      120.305321      521.084142    ;  uncertainty theta = 0.005936, k = 0.131730
        14         7        24     1      115.960632      320.554917    ;  uncertainty theta = 0.002673, k = 0.119768
        14        15        16     1      123.068680      542.920222    ;  uncertainty theta = 0.009671, k = 0.209824
        14        15        17     1      120.107445      733.067751    ;  uncertainty theta = 0.004274, k = 0.064940
        15        16        28     1      121.647873      278.163730    ;  uncertainty theta = 0.005103, k = 0.117782
        15        17        18     1      120.738144      439.972920    ;  uncertainty theta = 0.002427, k = 0.152386
        15        17        29     1      116.762535      333.653890    ;  uncertainty theta = 0.002890, k = 0.167655
        16        15        17     1      121.485657      550.947493    ;  uncertainty theta = 0.007193, k = 0.275734
        17        18        19     1      122.658371      752.190641    ;  uncertainty theta = 0.004916, k = 0.076214
        17        18        20     1      113.249466      488.436033    ;  uncertainty theta = 0.004171, k = 0.114869
        18        17        29     1      117.496628      266.485865    ;  uncertainty theta = 0.003531, k = 0.261805
        18        20        30     1      104.638062      355.584648    ;  uncertainty theta = 0.003862, k = 0.128725
        18        20        31     1      107.125473      487.191929    ;  uncertainty theta = 0.003691, k = 0.019812
        18        20        35     1      107.125473      487.191929    ;  uncertainty theta = 0.003691, k = 0.019812
        19        18        20     1      124.392151      542.582239    ;  uncertainty theta = 0.003108, k = 0.188446
        20        31        32     1      107.888206      395.566951    ;  uncertainty theta = 0.001899, k = 0.024132
        20        31        33     1      107.888206      395.566951    ;  uncertainty theta = 0.001899, k = 0.024132
        20        31        34     1      107.888206      395.566951    ;  uncertainty theta = 0.001899, k = 0.024132
        20        35        36     1      107.888206      395.566951    ;  uncertainty theta = 0.001899, k = 0.024132
        20        35        37     1      107.888206      395.566951    ;  uncertainty theta = 0.001899, k = 0.024132
        20        35        38     1      107.888206      395.566951    ;  uncertainty theta = 0.001899, k = 0.024132
        30        20        31     1      107.626419      398.862675    ;  uncertainty theta = 0.002697, k = 0.054847
        30        20        35     1      107.626419      398.862675    ;  uncertainty theta = 0.002697, k = 0.054847
        31        20        35     1      111.494949      590.123654    ;  uncertainty theta = 0.002275, k = 0.042526
        32        31        33     1      105.204346      317.839747    ;  uncertainty theta = 0.001757, k = 0.021965
        32        31        34     1      105.204346      317.839747    ;  uncertainty theta = 0.001757, k = 0.021965
        33        31        34     1      105.204346      317.839747    ;  uncertainty theta = 0.001757, k = 0.021965
        36        35        37     1      105.204346      317.839747    ;  uncertainty theta = 0.001757, k = 0.021965
        36        35        38     1      105.204346      317.839747    ;  uncertainty theta = 0.001757, k = 0.021965
        37        35        38     1      105.204346      317.839747    ;  uncertainty theta = 0.001757, k = 0.021965

[ dihedrals ] ; propers for gromacs 4.5 or higher, use funct 9
;       ai        aj        ak        al funct           phase               k        pn
         1         2         3         9     9        0.000000        0.129562         1    ;  uncertainty k = 0.258537
         1         2         3         9     9      180.000000        9.006461         2    ;  uncertainty k = 0.178121
         1         2         3         9     9        0.000000        0.010291         3    ;  uncertainty k = 0.509158
         1         2         3         9     9      180.000000        1.179148         4    ;  uncertainty k = 0.340357
         1         2         3        22     9        0.000000        0.017749         1    ;  uncertainty k = 0.506174
         1         2         3        22     9      180.000000        5.847178         2    ;  uncertainty k = 0.808481
         1         2         3        22     9        0.000000        1.301869         3    ;  uncertainty k = 0.271599
         1         2         3        22     9      180.000000        1.572515         4    ;  uncertainty k = 0.163634
         1         5        13         4     9        0.000000        4.012883         1    ;  uncertainty k = 0.741994
         1         5        13         4     9      180.000000       10.050056         2    ;  uncertainty k = 0.176781
         1         5        13         4     9        0.000000        1.524529         3    ;  uncertainty k = 0.439697
         1         5        13         4     9      180.000000       -1.034114         4    ;  uncertainty k = 0.394406
         1         5        13        27     9        0.000000        0.286201         1    ;  uncertainty k = 0.970625
         1         5        13        27     9      180.000000        4.591571         2    ;  uncertainty k = 0.675511
         1         5        13        27     9        0.000000        1.269715         3    ;  uncertainty k = 0.289099
         1         5        13        27     9      180.000000        0.225446         4    ;  uncertainty k = 0.265035
         1         8        10         9     9        0.000000        0.129562         1    ;  uncertainty k = 0.258537
         1         8        10         9     9      180.000000        9.006461         2    ;  uncertainty k = 0.178121
         1         8        10         9     9        0.000000        0.010291         3    ;  uncertainty k = 0.509158
         1         8        10         9     9      180.000000        1.179148         4    ;  uncertainty k = 0.340357
         1         8        10        26     9        0.000000        0.017749         1    ;  uncertainty k = 0.506174
         1         8        10        26     9      180.000000        5.847178         2    ;  uncertainty k = 0.808481
         1         8        10        26     9        0.000000        1.301869         3    ;  uncertainty k = 0.271599
         1         8        10        26     9      180.000000        1.572515         4    ;  uncertainty k = 0.163634
         2         1         5        12     9        0.000000       -0.938458         1    ;  uncertainty k = 0.721948
         2         1         5        12     9      180.000000        3.726943         2    ;  uncertainty k = 0.367149
         2         1         5        12     9        0.000000        0.533107         3    ;  uncertainty k = 0.173933
         2         1         5        12     9      180.000000        0.129066         4    ;  uncertainty k = 0.152302
         2         1         5        13     9        0.000000        1.636802         1    ;  uncertainty k = 0.717500
         2         1         5        13     9      180.000000        0.794893         2    ;  uncertainty k = 0.489697
         2         1         5        13     9        0.000000        0.486371         3    ;  uncertainty k = 0.368442
         2         1         5        13     9      180.000000       -0.111126         4    ;  uncertainty k = 0.129000
         2         1         8        10     9        0.000000        0.157030         1    ;  uncertainty k = 0.251028
         2         1         8        10     9      180.000000        6.621005         2    ;  uncertainty k = 0.890169
         2         1         8        10     9        0.000000        0.446154         3    ;  uncertainty k = 0.192247
         2         1         8        10     9      180.000000        1.346016         4    ;  uncertainty k = 0.373704
         2         1         8        21     9        0.000000        0.044095         1    ;  uncertainty k = 0.788675
         2         1         8        21     9      180.000000        8.268702         2    ;  uncertainty k = 0.180496
         2         1         8        21     9        0.000000        1.453925         3    ;  uncertainty k = 0.378329
         2         1         8        21     9      180.000000        1.534665         4    ;  uncertainty k = 0.225736
         2         3         9        10     9        0.000000        0.056957         1    ;  uncertainty k = 0.125369
         2         3         9        10     9      180.000000       14.284910         2    ;  uncertainty k = 0.214373
         2         3         9        10     9        0.000000       -1.022656         3    ;  uncertainty k = 0.417280
         2         3         9        10     9      180.000000        0.771729         4    ;  uncertainty k = 0.212175
         2         3         9        25     9        0.000000        0.083384         1    ;  uncertainty k = 0.200417
         2         3         9        25     9      180.000000        7.197642         2    ;  uncertainty k = 0.253695
         2         3         9        25     9        0.000000        1.438769         3    ;  uncertainty k = 0.264288
         2         3         9        25     9      180.000000        1.864824         4    ;  uncertainty k = 0.166987
         3         2         1         5     9        0.000000        0.540121         1    ;  uncertainty k = 0.659361
         3         2         1         5     9      180.000000        6.952584         2    ;  uncertainty k = 0.900726
         3         2         1         5     9        0.000000        1.504339         3    ;  uncertainty k = 0.227715
         3         2         1         5     9      180.000000        1.691626         4    ;  uncertainty k = 0.279736
         3         2         1         8     9        0.000000        0.157030         1    ;  uncertainty k = 0.251028
         3         2         1         8     9      180.000000        6.621005         2    ;  uncertainty k = 0.890169
         3         2         1         8     9        0.000000        0.446154         3    ;  uncertainty k = 0.192247
         3         2         1         8     9      180.000000        1.346016         4    ;  uncertainty k = 0.373704
         3         9        10         8     9        0.000000        0.056957         1    ;  uncertainty k = 0.125369
         3         9        10         8     9      180.000000       14.284910         2    ;  uncertainty k = 0.214373
         3         9        10         8     9        0.000000       -1.022656         3    ;  uncertainty k = 0.417280
         3         9        10         8     9      180.000000        0.771729         4    ;  uncertainty k = 0.212175
         3         9        10        26     9        0.000000        0.071341         1    ;  uncertainty k = 0.156537
         3         9        10        26     9      180.000000        7.824333         2    ;  uncertainty k = 0.388735
         3         9        10        26     9        0.000000        1.476015         3    ;  uncertainty k = 0.262591
         3         9        10        26     9      180.000000        1.800034         4    ;  uncertainty k = 0.168947
         4         6         7        14     9        0.000000       -0.195407         1    ;  uncertainty k = 0.224371
         4         6         7        14     9      180.000000       15.656345         2    ;  uncertainty k = 0.436682
         4         6         7        14     9        0.000000       -1.161745         3    ;  uncertainty k = 0.312648
         4         6         7        14     9      180.000000        0.795456         4    ;  uncertainty k = 0.157453
         4         6         7        24     9        0.000000       -0.488021         1    ;  uncertainty k = 0.352061
         4         6         7        24     9      180.000000        6.981430         2    ;  uncertainty k = 0.581321
         4         6         7        24     9        0.000000        1.147582         3    ;  uncertainty k = 0.230024
         4         6         7        24     9      180.000000        1.407164         4    ;  uncertainty k = 0.046480
         4        13         5        12     9        0.000000        3.184547         1    ;  uncertainty k = 1.295174
         4        13         5        12     9      180.000000       13.546940         2    ;  uncertainty k = 0.231063
         4        13         5        12     9        0.000000        0.722658         3    ;  uncertainty k = 0.182961
         4        13         5        12     9      180.000000       -0.666531         4    ;  uncertainty k = 0.131850
         4        16        15        14     9        0.000000       -0.462344         1    ;  uncertainty k = 0.238275
         4        16        15        14     9      180.000000       10.242902         2    ;  uncertainty k = 0.472655
         4        16        15        14     9        0.000000       -0.437656         3    ;  uncertainty k = 0.669714
         4        16        15        14     9      180.000000        1.000000         4    ;  uncertainty k = 0.092314
         4        16        15        17     9        0.000000       -0.011466         1    ;  uncertainty k = 0.600790
         4        16        15        17     9      180.000000        8.626334         2    ;  uncertainty k = 0.575641
         4        16        15        17     9        0.000000        0.888599         3    ;  uncertainty k = 0.386225
         4        16        15        17     9      180.000000        1.223223         4    ;  uncertainty k = 0.514504
         5         1         2        11     9        0.000000        0.293529         1    ;  uncertainty k = 1.201193
         5         1         2        11     9      180.000000        8.809351         2    ;  uncertainty k = 0.492509
         5         1         2        11     9        0.000000        1.507479         3    ;  uncertainty k = 0.181959
         5         1         2        11     9      180.000000        1.331521         4    ;  uncertainty k = 0.158721
         5         1         8        10     9        0.000000        0.540121         1    ;  uncertainty k = 0.659361
         5         1         8        10     9      180.000000        6.952584         2    ;  uncertainty k = 0.900726
         5         1         8        10     9        0.000000        1.504339         3    ;  uncertainty k = 0.227715
         5         1         8        10     9      180.000000        1.691626         4    ;  uncertainty k = 0.279736
         5         1         8        21     9        0.000000        0.293529         1    ;  uncertainty k = 1.201193
         5         1         8        21     9      180.000000        8.809351         2    ;  uncertainty k = 0.492509
         5         1         8        21     9        0.000000        1.507479         3    ;  uncertainty k = 0.181959
         5         1         8        21     9      180.000000        1.331521         4    ;  uncertainty k = 0.158721
         5        13         4         6     9        0.000000        0.671405         1    ;  uncertainty k = 0.779653
         5        13         4         6     9      180.000000        5.171684         2    ;  uncertainty k = 0.343054
         5        13         4         6     9        0.000000        0.900418         3    ;  uncertainty k = 0.162472
         5        13         4         6     9      180.000000        0.037683         4    ;  uncertainty k = 0.022188
         5        13         4        16     9        0.000000        0.711827         1    ;  uncertainty k = 0.532347
         5        13         4        16     9      180.000000        5.530463         2    ;  uncertainty k = 0.448142
         5        13         4        16     9        0.000000        0.877052         3    ;  uncertainty k = 0.137757
         5        13         4        16     9      180.000000        0.010492         4    ;  uncertainty k = 0.127906
         6         4        13        27     9        0.000000        1.029279         1    ;  uncertainty k = 1.463602
         6         4        13        27     9      180.000000        5.196719         2    ;  uncertainty k = 0.208685
         6         4        13        27     9        0.000000        0.851853         3    ;  uncertainty k = 0.351032
         6         4        13        27     9      180.000000        0.326889         4    ;  uncertainty k = 0.129780
         6         4        16        15     9        0.000000       -0.026444         1    ;  uncertainty k = 0.311209
         6         4        16        15     9      180.000000       10.285789         2    ;  uncertainty k = 0.416257
         6         4        16        15     9        0.000000       -0.315712         3    ;  uncertainty k = 0.119184
         6         4        16        15     9      180.000000        1.127966         4    ;  uncertainty k = 0.283241
         6         4        16        28     9        0.000000        0.495810         1    ;  uncertainty k = 0.512648
         6         4        16        28     9      180.000000        7.789312         2    ;  uncertainty k = 0.437403
         6         4        16        28     9        0.000000        1.413160         3    ;  uncertainty k = 0.268514
         6         4        16        28     9      180.000000        1.568179         4    ;  uncertainty k = 0.220540
         6         7        14        15     9        0.000000       -0.410888         1    ;  uncertainty k = 0.289136
         6         7        14        15     9      180.000000       14.547337         2    ;  uncertainty k = 0.416511
         6         7        14        15     9        0.000000        0.750843         3    ;  uncertainty k = 0.437758
         6         7        14        15     9      180.000000        1.333656         4    ;  uncertainty k = 0.256875
         7         6         4        13     9        0.000000       -0.156685         1    ;  uncertainty k = 0.327783
         7         6         4        13     9      180.000000       10.573743         2    ;  uncertainty k = 0.368407
         7         6         4        13     9        0.000000        0.699890         3    ;  uncertainty k = 0.295405
         7         6         4        13     9      180.000000        1.371703         4    ;  uncertainty k = 0.342554
         7         6         4        16     9        0.000000       -0.285179         1    ;  uncertainty k = 0.405985
         7         6         4        16     9      180.000000       10.375539         2    ;  uncertainty k = 0.252930
         7         6         4        16     9        0.000000       -0.505381         3    ;  uncertainty k = 0.471184
         7         6         4        16     9      180.000000        1.111552         4    ;  uncertainty k = 0.116415
         7        14        15        16     9        0.000000       -0.518317         1    ;  uncertainty k = 0.682673
         7        14        15        16     9      180.000000       11.801254         2    ;  uncertainty k = 0.812869
         7        14        15        16     9        0.000000        0.949119         3    ;  uncertainty k = 0.653262
         7        14        15        16     9      180.000000        1.377047         4    ;  uncertainty k = 0.300741
         7        14        15        17     9        0.000000       -0.216633         1    ;  uncertainty k = 1.280928
         7        14        15        17     9      180.000000       15.861485         2    ;  uncertainty k = 0.310702
         7        14        15        17     9        0.000000        1.947426         3    ;  uncertainty k = 0.439406
         7        14        15        17     9      180.000000        1.755494         4    ;  uncertainty k = 0.410468
         8         1         2        11     9        0.000000        0.044095         1    ;  uncertainty k = 0.788675
         8         1         2        11     9      180.000000        8.268702         2    ;  uncertainty k = 0.180496
         8         1         2        11     9        0.000000        1.453925         3    ;  uncertainty k = 0.378329
         8         1         2        11     9      180.000000        1.534665         4    ;  uncertainty k = 0.225736
         8         1         5        12     9        0.000000       -0.938458         1    ;  uncertainty k = 0.721948
         8         1         5        12     9      180.000000        3.726943         2    ;  uncertainty k = 0.367149
         8         1         5        12     9        0.000000        0.533107         3    ;  uncertainty k = 0.173933
         8         1         5        12     9      180.000000        0.129066         4    ;  uncertainty k = 0.152302
         8         1         5        13     9        0.000000        1.636802         1    ;  uncertainty k = 0.717500
         8         1         5        13     9      180.000000        0.794893         2    ;  uncertainty k = 0.489697
         8         1         5        13     9        0.000000        0.486371         3    ;  uncertainty k = 0.368442
         8         1         5        13     9      180.000000       -0.111126         4    ;  uncertainty k = 0.129000
         8        10         9        25     9        0.000000        0.083384         1    ;  uncertainty k = 0.200417
         8        10         9        25     9      180.000000        7.197642         2    ;  uncertainty k = 0.253695
         8        10         9        25     9        0.000000        1.438769         3    ;  uncertainty k = 0.264288
         8        10         9        25     9      180.000000        1.864824         4    ;  uncertainty k = 0.166987
         9         3         2        11     9        0.000000       -0.125974         1    ;  uncertainty k = 0.141879
         9         3         2        11     9      180.000000        9.826857         2    ;  uncertainty k = 0.423980
         9         3         2        11     9        0.000000        1.360528         3    ;  uncertainty k = 0.293318
         9         3         2        11     9      180.000000        1.645146         4    ;  uncertainty k = 0.120261
         9        10         8        21     9        0.000000       -0.125974         1    ;  uncertainty k = 0.141879
         9        10         8        21     9      180.000000        9.826857         2    ;  uncertainty k = 0.423980
         9        10         8        21     9        0.000000        1.360528         3    ;  uncertainty k = 0.293318
         9        10         8        21     9      180.000000        1.645146         4    ;  uncertainty k = 0.120261
        10         9         3        22     9        0.000000        0.071341         1    ;  uncertainty k = 0.156537
        10         9         3        22     9      180.000000        7.824333         2    ;  uncertainty k = 0.388735
        10         9         3        22     9        0.000000        1.476015         3    ;  uncertainty k = 0.262591
        10         9         3        22     9      180.000000        1.800034         4    ;  uncertainty k = 0.168947
        11         2         3        22     9        0.000000       -0.203688         1    ;  uncertainty k = 0.537167
        11         2         3        22     9      180.000000        7.741258         2    ;  uncertainty k = 0.413148
        11         2         3        22     9        0.000000        0.589378         3    ;  uncertainty k = 0.256365
        11         2         3        22     9      180.000000        1.098417         4    ;  uncertainty k = 0.232050
        12         5        13        27     9        0.000000        2.754751         1    ;  uncertainty k = 1.678083
        12         5        13        27     9      180.000000       15.343140         2    ;  uncertainty k = 0.287199
        12         5        13        27     9        0.000000        1.862099         3    ;  uncertainty k = 0.346350
        12         5        13        27     9      180.000000       -0.086397         4    ;  uncertainty k = 0.341591
        13         4         6        23     9        0.000000       -0.319544         1    ;  uncertainty k = 0.345314
        13         4         6        23     9      180.000000        8.037585         2    ;  uncertainty k = 0.455395
        13         4         6        23     9        0.000000        0.835277         3    ;  uncertainty k = 0.138723
        13         4         6        23     9      180.000000        1.127271         4    ;  uncertainty k = 0.123904
        13         4        16        15     9        0.000000       -0.052209         1    ;  uncertainty k = 0.525494
        13         4        16        15     9      180.000000       12.003617         2    ;  uncertainty k = 0.791309
        13         4        16        15     9        0.000000        0.822248         3    ;  uncertainty k = 0.291552
        13         4        16        15     9      180.000000        1.305883         4    ;  uncertainty k = 0.676407
        13         4        16        28     9        0.000000       -0.284940         1    ;  uncertainty k = 0.433757
        13         4        16        28     9      180.000000        8.866330         2    ;  uncertainty k = 0.437510
        13         4        16        28     9        0.000000        0.893476         3    ;  uncertainty k = 0.163359
        13         4        16        28     9      180.000000        1.196102         4    ;  uncertainty k = 0.184028
        14         7         6        23     9        0.000000        0.122843         1    ;  uncertainty k = 0.167730
        14         7         6        23     9      180.000000       10.140002         2    ;  uncertainty k = 0.394062
        14         7         6        23     9        0.000000        1.030077         3    ;  uncertainty k = 0.344283
        14         7         6        23     9      180.000000        1.733914         4    ;  uncertainty k = 0.164436
        14        15        16        28     9        0.000000        0.561819         1    ;  uncertainty k = 0.641093
        14        15        16        28     9      180.000000        7.869633         2    ;  uncertainty k = 0.833301
        14        15        16        28     9        0.000000        1.194785         3    ;  uncertainty k = 0.275878
        14        15        16        28     9      180.000000        1.418302         4    ;  uncertainty k = 0.207767
        14        15        17        18     9        0.000000        1.855868         1    ;  uncertainty k = 0.852874
        14        15        17        18     9      180.000000        5.877964         2    ;  uncertainty k = 0.428338
        14        15        17        18     9        0.000000        0.972266         3    ;  uncertainty k = 0.222855
        14        15        17        18     9      180.000000       -0.183976         4    ;  uncertainty k = 0.160512
        14        15        17        29     9        0.000000        6.091128         1    ;  uncertainty k = 0.583491
        14        15        17        29     9      180.000000        4.703528         2    ;  uncertainty k = 0.572723
        14        15        17        29     9        0.000000        0.135427         3    ;  uncertainty k = 0.278824
        14        15        17        29     9      180.000000        0.099653         4    ;  uncertainty k = 0.254711
        15        14         7        24     9        0.000000       -0.333987         1    ;  uncertainty k = 0.356315
        15        14         7        24     9      180.000000       15.027293         2    ;  uncertainty k = 0.496236
        15        14         7        24     9        0.000000        2.040183         3    ;  uncertainty k = 0.727035
        15        14         7        24     9      180.000000        1.317401         4    ;  uncertainty k = 0.415569
        15        17        18        19     9        0.000000        4.271662         1    ;  uncertainty k = 0.258773
        15        17        18        19     9      180.000000       16.368526         2    ;  uncertainty k = 0.202419
        15        17        18        19     9        0.000000        0.575960         3    ;  uncertainty k = 0.210131
        15        17        18        19     9      180.000000       -1.179226         4    ;  uncertainty k = 0.083280
        15        17        18        20     9        0.000000        5.119006         1    ;  uncertainty k = 1.096923
        15        17        18        20     9      180.000000        7.706260         2    ;  uncertainty k = 0.620028
        15        17        18        20     9        0.000000        1.050385         3    ;  uncertainty k = 0.103312
        15        17        18        20     9      180.000000       -0.176683         4    ;  uncertainty k = 0.356883
        16         4         6        23     9        0.000000        0.271532         1    ;  uncertainty k = 0.336428
        16         4         6        23     9      180.000000        7.226426         2    ;  uncertainty k = 0.631095
        16         4         6        23     9        0.000000        1.360809         3    ;  uncertainty k = 0.281224
        16         4         6        23     9      180.000000        1.471445         4    ;  uncertainty k = 0.135494
        16         4        13        27     9        0.000000        2.082977         1    ;  uncertainty k = 1.379272
        16         4        13        27     9      180.000000        5.485332         2    ;  uncertainty k = 0.410084
        16         4        13        27     9        0.000000        0.777949         3    ;  uncertainty k = 0.387063
        16         4        13        27     9      180.000000        0.268009         4    ;  uncertainty k = 0.118801
        16        15        17        18     9        0.000000       -0.034920         1    ;  uncertainty k = 1.085475
        16        15        17        18     9      180.000000        4.856270         2    ;  uncertainty k = 0.080980
        16        15        17        18     9        0.000000        0.549520         3    ;  uncertainty k = 0.144471
        16        15        17        18     9      180.000000       -0.216327         4    ;  uncertainty k = 0.153647
        16        15        17        29     9        0.000000        0.736414         1    ;  uncertainty k = 0.951695
        16        15        17        29     9      180.000000        4.666404         2    ;  uncertainty k = 0.535528
        16        15        17        29     9        0.000000        1.196007         3    ;  uncertainty k = 0.332085
        16        15        17        29     9      180.000000        0.162617         4    ;  uncertainty k = 0.186356
        17        15        16        28     9        0.000000       -0.331827         1    ;  uncertainty k = 0.435016
        17        15        16        28     9      180.000000        6.554646         2    ;  uncertainty k = 0.195724
        17        15        16        28     9        0.000000        0.872916         3    ;  uncertainty k = 0.208962
        17        15        16        28     9      180.000000        0.959140         4    ;  uncertainty k = 0.201249
        17        18        20        30     9        0.000000       -1.566059         1    ;  uncertainty k = 0.379392
        17        18        20        30     9      180.000000        2.748512         2    ;  uncertainty k = 0.348498
        17        18        20        30     9        0.000000        0.207003         3    ;  uncertainty k = 0.076783
        17        18        20        30     9      180.000000        0.079604         4    ;  uncertainty k = 0.107048
        17        18        20        31     9        0.000000       -2.873959         1    ;  uncertainty k = 0.251129
        17        18        20        31     9      180.000000        2.854344         2    ;  uncertainty k = 0.136372
        17        18        20        31     9        0.000000        0.178160         3    ;  uncertainty k = 0.155512
        17        18        20        31     9      180.000000        0.266216         4    ;  uncertainty k = 0.080251
        17        18        20        35     9        0.000000       -2.873959         1    ;  uncertainty k = 0.251129
        17        18        20        35     9      180.000000        2.854344         2    ;  uncertainty k = 0.136372
        17        18        20        35     9        0.000000        0.178160         3    ;  uncertainty k = 0.155512
        17        18        20        35     9      180.000000        0.266216         4    ;  uncertainty k = 0.080251
        18        20        31        32     9        0.000000        1.011588         1    ;  uncertainty k = 0.401477
        18        20        31        32     9      180.000000       -1.112538         2    ;  uncertainty k = 0.262841
        18        20        31        32     9        0.000000        0.775710         3    ;  uncertainty k = 0.129838
        18        20        31        32     9      180.000000       -0.057905         4    ;  uncertainty k = 0.082948
        18        20        31        33     9        0.000000        1.011588         1    ;  uncertainty k = 0.401477
        18        20        31        33     9      180.000000       -1.112538         2    ;  uncertainty k = 0.262841
        18        20        31        33     9        0.000000        0.775710         3    ;  uncertainty k = 0.129838
        18        20        31        33     9      180.000000       -0.057905         4    ;  uncertainty k = 0.082948
        18        20        31        34     9        0.000000        1.011588         1    ;  uncertainty k = 0.401477
        18        20        31        34     9      180.000000       -1.112538         2    ;  uncertainty k = 0.262841
        18        20        31        34     9        0.000000        0.775710         3    ;  uncertainty k = 0.129838
        18        20        31        34     9      180.000000       -0.057905         4    ;  uncertainty k = 0.082948
        18        20        35        36     9        0.000000        1.011588         1    ;  uncertainty k = 0.401477
        18        20        35        36     9      180.000000       -1.112538         2    ;  uncertainty k = 0.262841
        18        20        35        36     9        0.000000        0.775710         3    ;  uncertainty k = 0.129838
        18        20        35        36     9      180.000000       -0.057905         4    ;  uncertainty k = 0.082948
        18        20        35        37     9        0.000000        1.011588         1    ;  uncertainty k = 0.401477
        18        20        35        37     9      180.000000       -1.112538         2    ;  uncertainty k = 0.262841
        18        20        35        37     9        0.000000        0.775710         3    ;  uncertainty k = 0.129838
        18        20        35        37     9      180.000000       -0.057905         4    ;  uncertainty k = 0.082948
        18        20        35        38     9        0.000000        1.011588         1    ;  uncertainty k = 0.401477
        18        20        35        38     9      180.000000       -1.112538         2    ;  uncertainty k = 0.262841
        18        20        35        38     9        0.000000        0.775710         3    ;  uncertainty k = 0.129838
        18        20        35        38     9      180.000000       -0.057905         4    ;  uncertainty k = 0.082948
        19        18        17        29     9        0.000000        2.955568         1    ;  uncertainty k = 0.875688
        19        18        17        29     9      180.000000       13.772336         2    ;  uncertainty k = 0.526471
        19        18        17        29     9        0.000000        0.991789         3    ;  uncertainty k = 0.191556
        19        18        17        29     9      180.000000       -0.176907         4    ;  uncertainty k = 0.355057
        19        18        20        30     9        0.000000       -0.140014         1    ;  uncertainty k = 0.399859
        19        18        20        30     9      180.000000        4.250116         2    ;  uncertainty k = 0.398749
        19        18        20        30     9        0.000000        0.701876         3    ;  uncertainty k = 0.190545
        19        18        20        30     9      180.000000        0.240574         4    ;  uncertainty k = 0.050480
        19        18        20        31     9        0.000000       -2.470276         1    ;  uncertainty k = 0.233952
        19        18        20        31     9      180.000000        4.870074         2    ;  uncertainty k = 0.272044
        19        18        20        31     9        0.000000        0.705967         3    ;  uncertainty k = 0.172942
        19        18        20        31     9      180.000000        0.423990         4    ;  uncertainty k = 0.107743
        19        18        20        35     9        0.000000       -2.470276         1    ;  uncertainty k = 0.233952
        19        18        20        35     9      180.000000        4.870074         2    ;  uncertainty k = 0.272044
        19        18        20        35     9        0.000000        0.705967         3    ;  uncertainty k = 0.172942
        19        18        20        35     9      180.000000        0.423990         4    ;  uncertainty k = 0.107743
        20        18        17        29     9        0.000000       -0.323040         1    ;  uncertainty k = 1.100480
        20        18        17        29     9      180.000000        5.369767         2    ;  uncertainty k = 0.339475
        20        18        17        29     9        0.000000        1.677151         3    ;  uncertainty k = 0.174282
        20        18        17        29     9      180.000000        0.034430         4    ;  uncertainty k = 0.258488
        21         8        10        26     9        0.000000       -0.203688         1    ;  uncertainty k = 0.537167
        21         8        10        26     9      180.000000        7.741258         2    ;  uncertainty k = 0.413148
        21         8        10        26     9        0.000000        0.589378         3    ;  uncertainty k = 0.256365
        21         8        10        26     9      180.000000        1.098417         4    ;  uncertainty k = 0.232050
        22         3         9        25     9        0.000000        0.001385         1    ;  uncertainty k = 0.129514
        22         3         9        25     9      180.000000        7.970131         2    ;  uncertainty k = 0.421308
        22         3         9        25     9        0.000000       -0.442113         3    ;  uncertainty k = 0.230001
        22         3         9        25     9      180.000000        0.054396         4    ;  uncertainty k = 0.177102
        23         6         7        24     9        0.000000       -0.486927         1    ;  uncertainty k = 0.274037
        23         6         7        24     9      180.000000        6.750554         2    ;  uncertainty k = 0.157763
        23         6         7        24     9        0.000000        0.049287         3    ;  uncertainty k = 0.230238
        23         6         7        24     9      180.000000        0.424459         4    ;  uncertainty k = 0.124639
        25         9        10        26     9        0.000000        0.001385         1    ;  uncertainty k = 0.129514
        25         9        10        26     9      180.000000        7.970131         2    ;  uncertainty k = 0.421308
        25         9        10        26     9        0.000000       -0.442113         3    ;  uncertainty k = 0.230001
        25         9        10        26     9      180.000000        0.054396         4    ;  uncertainty k = 0.177102
        30        20        31        32     9        0.000000        0.802757         1    ;  uncertainty k = 0.468110
        30        20        31        32     9      180.000000       -0.744628         2    ;  uncertainty k = 0.183403
        30        20        31        32     9        0.000000        0.348706         3    ;  uncertainty k = 0.049619
        30        20        31        32     9      180.000000       -0.015569         4    ;  uncertainty k = 0.054932
        30        20        31        33     9        0.000000        0.802757         1    ;  uncertainty k = 0.468110
        30        20        31        33     9      180.000000       -0.744628         2    ;  uncertainty k = 0.183403
        30        20        31        33     9        0.000000        0.348706         3    ;  uncertainty k = 0.049619
        30        20        31        33     9      180.000000       -0.015569         4    ;  uncertainty k = 0.054932
        30        20        31        34     9        0.000000        0.802757         1    ;  uncertainty k = 0.468110
        30        20        31        34     9      180.000000       -0.744628         2    ;  uncertainty k = 0.183403
        30        20        31        34     9        0.000000        0.348706         3    ;  uncertainty k = 0.049619
        30        20        31        34     9      180.000000       -0.015569         4    ;  uncertainty k = 0.054932
        30        20        35        36     9        0.000000        0.802757         1    ;  uncertainty k = 0.468110
        30        20        35        36     9      180.000000       -0.744628         2    ;  uncertainty k = 0.183403
        30        20        35        36     9        0.000000        0.348706         3    ;  uncertainty k = 0.049619
        30        20        35        36     9      180.000000       -0.015569         4    ;  uncertainty k = 0.054932
        30        20        35        37     9        0.000000        0.802757         1    ;  uncertainty k = 0.468110
        30        20        35        37     9      180.000000       -0.744628         2    ;  uncertainty k = 0.183403
        30        20        35        37     9        0.000000        0.348706         3    ;  uncertainty k = 0.049619
        30        20        35        37     9      180.000000       -0.015569         4    ;  uncertainty k = 0.054932
        30        20        35        38     9        0.000000        0.802757         1    ;  uncertainty k = 0.468110
        30        20        35        38     9      180.000000       -0.744628         2    ;  uncertainty k = 0.183403
        30        20        35        38     9        0.000000        0.348706         3    ;  uncertainty k = 0.049619
        30        20        35        38     9      180.000000       -0.015569         4    ;  uncertainty k = 0.054932
        31        20        35        36     9        0.000000       -1.570908         1    ;  uncertainty k = 0.330052
        31        20        35        36     9      180.000000       -0.159804         2    ;  uncertainty k = 0.221027
        31        20        35        36     9        0.000000        1.153032         3    ;  uncertainty k = 0.060828
        31        20        35        36     9      180.000000       -0.119113         4    ;  uncertainty k = 0.060793
        31        20        35        37     9        0.000000       -1.570908         1    ;  uncertainty k = 0.330052
        31        20        35        37     9      180.000000       -0.159804         2    ;  uncertainty k = 0.221027
        31        20        35        37     9        0.000000        1.153032         3    ;  uncertainty k = 0.060828
        31        20        35        37     9      180.000000       -0.119113         4    ;  uncertainty k = 0.060793
        31        20        35        38     9        0.000000       -1.570908         1    ;  uncertainty k = 0.330052
        31        20        35        38     9      180.000000       -0.159804         2    ;  uncertainty k = 0.221027
        31        20        35        38     9        0.000000        1.153032         3    ;  uncertainty k = 0.060828
        31        20        35        38     9      180.000000       -0.119113         4    ;  uncertainty k = 0.060793
        32        31        20        35     9        0.000000       -1.570908         1    ;  uncertainty k = 0.330052
        32        31        20        35     9      180.000000       -0.159804         2    ;  uncertainty k = 0.221027
        32        31        20        35     9        0.000000        1.153032         3    ;  uncertainty k = 0.060828
        32        31        20        35     9      180.000000       -0.119113         4    ;  uncertainty k = 0.060793
        33        31        20        35     9        0.000000       -1.570908         1    ;  uncertainty k = 0.330052
        33        31        20        35     9      180.000000       -0.159804         2    ;  uncertainty k = 0.221027
        33        31        20        35     9        0.000000        1.153032         3    ;  uncertainty k = 0.060828
        33        31        20        35     9      180.000000       -0.119113         4    ;  uncertainty k = 0.060793
        34        31        20        35     9        0.000000       -1.570908         1    ;  uncertainty k = 0.330052
        34        31        20        35     9      180.000000       -0.159804         2    ;  uncertainty k = 0.221027
        34        31        20        35     9        0.000000        1.153032         3    ;  uncertainty k = 0.060828
        34        31        20        35     9      180.000000       -0.119113         4    ;  uncertainty k = 0.060793

[ dihedrals ] ; impropers
;       ai        aj        ak        al funct           phase               k        pn
         1         2         5         8     4      180.000000       12.616542         2    ;  uncertainty k = 0.387975
         1         5         8         2     4      180.000000       12.616542         2    ;  uncertainty k = 0.387975
         1         8         2         5     4      180.000000       12.616542         2    ;  uncertainty k = 0.387975
         2         1         3        11     4      180.000000       14.343354         2    ;  uncertainty k = 0.092046
         2         3        11         1     4      180.000000       14.343354         2    ;  uncertainty k = 0.092046
         2        11         1         3     4      180.000000       14.343354         2    ;  uncertainty k = 0.092046
         3         2         9        22     4      180.000000        3.308569         2    ;  uncertainty k = 0.185728
         3         9        22         2     4      180.000000        3.308569         2    ;  uncertainty k = 0.185728
         3        22         2         9     4      180.000000        3.308569         2    ;  uncertainty k = 0.185728
         4         6        13        16     4      180.000000       20.381320         2    ;  uncertainty k = 0.160244
         4        13        16         6     4      180.000000       20.381320         2    ;  uncertainty k = 0.160244
         4        16         6        13     4      180.000000       20.381320         2    ;  uncertainty k = 0.160244
         5         1        12        13     4      180.000000       56.020619         2    ;  uncertainty k = 0.087383
         5        12        13         1     4      180.000000       56.020619         2    ;  uncertainty k = 0.087383
         5        13         1        12     4      180.000000       56.020619         2    ;  uncertainty k = 0.087383
         6         4         7        23     4      180.000000        0.460309         2    ;  uncertainty k = 0.636565
         6         7        23         4     4      180.000000        0.460309         2    ;  uncertainty k = 0.636565
         6        23         4         7     4      180.000000        0.460309         2    ;  uncertainty k = 0.636565
         7         6        14        24     4      180.000000       14.099144         2    ;  uncertainty k = 0.120134
         7        14        24         6     4      180.000000       14.099144         2    ;  uncertainty k = 0.120134
         7        24         6        14     4      180.000000       14.099144         2    ;  uncertainty k = 0.120134
         8         1        10        21     4      180.000000       14.343354         2    ;  uncertainty k = 0.092046
         8        10        21         1     4      180.000000       14.343354         2    ;  uncertainty k = 0.092046
         8        21         1        10     4      180.000000       14.343354         2    ;  uncertainty k = 0.092046
         9         3        10        25     4      180.000000        4.523845         2    ;  uncertainty k = 0.130961
         9        10        25         3     4      180.000000        4.523845         2    ;  uncertainty k = 0.130961
         9        25         3        10     4      180.000000        4.523845         2    ;  uncertainty k = 0.130961
        10         8         9        26     4      180.000000        3.308569         2    ;  uncertainty k = 0.185728
        10         9        26         8     4      180.000000        3.308569         2    ;  uncertainty k = 0.185728
        10        26         8         9     4      180.000000        3.308569         2    ;  uncertainty k = 0.185728
        13         4         5        27     4      180.000000        0.483818         2    ;  uncertainty k = 0.576474
        13         5        27         4     4      180.000000        0.483818         2    ;  uncertainty k = 0.576474
        13        27         4         5     4      180.000000        0.483818         2    ;  uncertainty k = 0.576474
        15        14        16        17     4      180.000000       28.129743         2    ;  uncertainty k = 0.172802
        15        16        17        14     4      180.000000       28.129743         2    ;  uncertainty k = 0.172802
        15        17        14        16     4      180.000000       28.129743         2    ;  uncertainty k = 0.172802
        16         4        15        28     4      180.000000        1.171657         2    ;  uncertainty k = 0.905473
        16        15        28         4     4      180.000000        1.171657         2    ;  uncertainty k = 0.905473
        16        28         4        15     4      180.000000        1.171657         2    ;  uncertainty k = 0.905473
        17        15        18        29     4      180.000000        0.345591         2    ;  uncertainty k = 0.570621
        17        18        29        15     4      180.000000        0.345591         2    ;  uncertainty k = 0.570621
        17        29        15        18     4      180.000000        0.345591         2    ;  uncertainty k = 0.570621
        18        17        19        20     4      180.000000       54.806579         2    ;  uncertainty k = 0.025799
        18        19        20        17     4      180.000000       54.806579         2    ;  uncertainty k = 0.025799
        18        20        17        19     4      180.000000       54.806579         2    ;  uncertainty k = 0.025799

[ pairs ]
;       ai        aj funct
         1         4     1
         1         9     1
         1        22     1
         1        26     1
         1        27     1
         2        10     1
         2        12     1
         2        13     1
         2        21     1
         2        25     1
         3         5     1
         3         8     1
         3        26     1
         4        12     1
         4        14     1
         4        17     1
         4        24     1
         5         6     1
         5        10     1
         5        11     1
         5        16     1
         5        21     1
         6        15     1
         6        27     1
         6        28     1
         7        13     1
         7        16     1
         7        17     1
         8        11     1
         8        12     1
         8        13     1
         8        25     1
         9        11     1
         9        21     1
        10        22     1
        11        22     1
        12        27     1
        13        15     1
        13        23     1
        13        28     1
        14        18     1
        14        23     1
        14        28     1
        14        29     1
        15        19     1
        15        20     1
        15        24     1
        16        18     1
        16        23     1
        16        27     1
        16        29     1
        17        28     1
        17        30     1
        17        31     1
        17        35     1
        18        32     1
        18        33     1
        18        34     1
        18        36     1
        18        37     1
        18        38     1
        19        29     1
        19        30     1
        19        31     1
        19        35     1
        20        29     1
        21        26     1
        22        25     1
        23        24     1
        25        26     1
        30        32     1
        30        33     1
        30        34     1
        30        36     1
        30        37     1
        30        38     1
        31        36     1
        31        37     1
        31        38     1
        32        35     1
        33        35     1
        34        35     1
