; ITP file created by ByteFF-joint-25, 2026-02-17 09:34:23.396908

[ atomtypes ]
;name           bonded.type        at.num        mass        charge   ptype           sigma         epsilon
 c0bf                                   6      0.0000       0.00000       A     3.31549e-01     4.13390e-01    ;  uncertainty sigma = 0.000035, epsilon = 0.000966
 c1bf                                   6      0.0000       0.00000       A     3.31564e-01     4.13135e-01    ;  uncertainty sigma = 0.000005, epsilon = 0.000387
 c2bf                                   6      0.0000       0.00000       A     3.31525e-01     4.13295e-01    ;  uncertainty sigma = 0.000005, epsilon = 0.000577
 c3bf                                   6      0.0000       0.00000       A     3.31520e-01     4.12649e-01    ;  uncertainty sigma = 0.000010, epsilon = 0.000842
 c4bf                                   6      0.0000       0.00000       A     3.31499e-01     4.12254e-01    ;  uncertainty sigma = 0.000028, epsilon = 0.000802
 c5bf                                   6      0.0000       0.00000       A     3.31522e-01     4.13552e-01    ;  uncertainty sigma = 0.000009, epsilon = 0.000904
 c6bf                                   6      0.0000       0.00000       A     3.31525e-01     4.13403e-01    ;  uncertainty sigma = 0.000005, epsilon = 0.000549
 c7bf                                   6      0.0000       0.00000       A     3.31564e-01     4.13135e-01    ;  uncertainty sigma = 0.000005, epsilon = 0.000387
 c8bf                                   6      0.0000       0.00000       A     3.31519e-01     4.13371e-01    ;  uncertainty sigma = 0.000005, epsilon = 0.000643
 c9bf                                   6      0.0000       0.00000       A     3.31525e-01     4.13295e-01    ;  uncertainty sigma = 0.000005, epsilon = 0.000577
 cl10bf                                17      0.0000       0.00000       A     3.46613e-01     1.10356e+00    ;  uncertainty sigma = 0.000025, epsilon = 0.001519
 o11bf                                  8      0.0000       0.00000       A     3.04792e-01     6.12550e-01    ;  uncertainty sigma = 0.000022, epsilon = 0.001345
 n12bf                                  7      0.0000       0.00000       A     3.27027e-01     4.91624e-01    ;  uncertainty sigma = 0.000027, epsilon = 0.002173
 n13bf                                  7      0.0000       0.00000       A     3.38409e-01     3.92287e-01    ;  uncertainty sigma = 0.000015, epsilon = 0.000817
 c14bf                                  6      0.0000       0.00000       A     3.31544e-01     4.12375e-01    ;  uncertainty sigma = 0.000016, epsilon = 0.000723
 c15bf                                  6      0.0000       0.00000       A     3.31529e-01     4.13241e-01    ;  uncertainty sigma = 0.000023, epsilon = 0.001242
 n16bf                                  7      0.0000       0.00000       A     3.27046e-01     4.90742e-01    ;  uncertainty sigma = 0.000035, epsilon = 0.000865
 c17bf                                  6      0.0000       0.00000       A     3.31515e-01     4.13015e-01    ;  uncertainty sigma = 0.000019, epsilon = 0.001832
 o18bf                                  8      0.0000       0.00000       A     3.04825e-01     6.12381e-01    ;  uncertainty sigma = 0.000019, epsilon = 0.001481
 c19bf                                  6      0.0000       0.00000       A     3.39779e-01     4.50876e-01    ;  uncertainty sigma = 0.000014, epsilon = 0.001038
 c20bf                                  6      0.0000       0.00000       A     3.39820e-01     4.50807e-01    ;  uncertainty sigma = 0.000025, epsilon = 0.000945
 c21bf                                  6      0.0000       0.00000       A     3.39802e-01     4.51612e-01    ;  uncertainty sigma = 0.000017, epsilon = 0.001417
 cl22bf                                17      0.0000       0.00000       A     3.46613e-01     1.10356e+00    ;  uncertainty sigma = 0.000025, epsilon = 0.001519
 h23bf                                  1      0.0000       0.00000       A     2.62565e-01     6.70619e-02    ;  uncertainty sigma = 0.000008, epsilon = 0.000556
 h24bf                                  1      0.0000       0.00000       A     2.62534e-01     6.69704e-02    ;  uncertainty sigma = 0.000020, epsilon = 0.000545
 h25bf                                  1      0.0000       0.00000       A     2.53656e-01     6.70482e-02    ;  uncertainty sigma = 0.000017, epsilon = 0.000573
 h26bf                                  1      0.0000       0.00000       A     2.62568e-01     6.69546e-02    ;  uncertainty sigma = 0.000006, epsilon = 0.000527
 h27bf                                  1      0.0000       0.00000       A     2.62565e-01     6.70619e-02    ;  uncertainty sigma = 0.000008, epsilon = 0.000556
 h28bf                                  1      0.0000       0.00000       A     1.10697e-01     4.15615e-02    ;  uncertainty sigma = 0.000094, epsilon = 0.000787
 h29bf                                  1      0.0000       0.00000       A     2.62531e-01     6.69228e-02    ;  uncertainty sigma = 0.000026, epsilon = 0.000688
 h30bf                                  1      0.0000       0.00000       A     1.10672e-01     4.12849e-02    ;  uncertainty sigma = 0.000118, epsilon = 0.001013
 h31bf                                  1      0.0000       0.00000       A     2.60042e-01     8.64472e-02    ;  uncertainty sigma = 0.000042, epsilon = 0.001616
 h32bf                                  1      0.0000       0.00000       A     2.60026e-01     8.72606e-02    ;  uncertainty sigma = 0.000020, epsilon = 0.000515
 h33bf                                  1      0.0000       0.00000       A     2.60026e-01     8.72606e-02    ;  uncertainty sigma = 0.000020, epsilon = 0.000515
 h34bf                                  1      0.0000       0.00000       A     2.60062e-01     8.67350e-02    ;  uncertainty sigma = 0.000083, epsilon = 0.001685
 c35bf                                  6      0.0000       0.00000       A     3.39760e-01     4.50527e-01    ;  uncertainty sigma = 0.000027, epsilon = 0.001036
 h36bf                                  1      0.0000       0.00000       A     2.60026e-01     8.64849e-02    ;  uncertainty sigma = 0.000024, epsilon = 0.000589
 h37bf                                  1      0.0000       0.00000       A     2.60026e-01     8.64851e-02    ;  uncertainty sigma = 0.000024, epsilon = 0.000589
 h38bf                                  1      0.0000       0.00000       A     2.60026e-01     8.64849e-02    ;  uncertainty sigma = 0.000024, epsilon = 0.000589

[ moleculetype ]
;name             nrexcl
 MOL                   3

[ atoms ]
;       nr            type      resi   res      atom      cgnr      charge          mass ; qtot
         1            c0bf         1   UNL        c0         1    -0.13673       12.0110 ; qtot   -0.137
         2            c1bf         1   UNL        c1         2     0.06477       12.0110 ; qtot   -0.072
         3            c2bf         1   UNL        c2         3    -0.12372       12.0110 ; qtot   -0.196
         4            c3bf         1   UNL        c3         4     0.13608       12.0110 ; qtot   -0.060
         5            c4bf         1   UNL        c4         5     0.70160       12.0110 ; qtot    0.642
         6            c5bf         1   UNL        c5         6    -0.31812       12.0110 ; qtot    0.324
         7            c6bf         1   UNL        c6         7     0.45382       12.0110 ; qtot    0.778
         8            c7bf         1   UNL        c7         8     0.06477       12.0110 ; qtot    0.842
         9            c8bf         1   UNL        c8         9    -0.09581       12.0110 ; qtot    0.747
        10            c9bf         1   UNL        c9        10    -0.12372       12.0110 ; qtot    0.623
        11          cl10bf         1   UNL      cl10        11    -0.09667       35.4530 ; qtot    0.526
        12           o11bf         1   UNL       o11        12    -0.55036       15.9990 ; qtot   -0.024
        13           n12bf         1   UNL       n12        13    -0.46533       14.0070 ; qtot   -0.489
        14           n13bf         1   UNL       n13        14    -0.72363       14.0070 ; qtot   -1.213
        15           c14bf         1   UNL       c14        15     0.56172       12.0110 ; qtot   -0.651
        16           c15bf         1   UNL       c15        16    -0.30858       12.0110 ; qtot   -0.960
        17           n16bf         1   UNL       n16        17    -0.56324       14.0070 ; qtot   -1.523
        18           c17bf         1   UNL       c17        18     0.71531       12.0110 ; qtot   -0.808
        19           o18bf         1   UNL       o18        19    -0.56831       15.9990 ; qtot   -1.376
        20           c19bf         1   UNL       c19        20    -0.23978       12.0110 ; qtot   -1.616
        21           c20bf         1   UNL       c20        21    -0.09633       12.0110 ; qtot   -1.712
        22           c21bf         1   UNL       c21        22    -0.08448       12.0110 ; qtot   -1.797
        23          cl22bf         1   UNL      cl22        23    -0.09667       35.4530 ; qtot   -1.893
        24           h23bf         1   UNL       h23        24     0.15894        1.0080 ; qtot   -1.734
        25           h24bf         1   UNL       h24        25     0.16313        1.0080 ; qtot   -1.571
        26           h25bf         1   UNL       h25        26     0.01919        1.0080 ; qtot   -1.552
        27           h26bf         1   UNL       h26        27     0.14278        1.0080 ; qtot   -1.409
        28           h27bf         1   UNL       h27        28     0.15894        1.0080 ; qtot   -1.250
        29           h28bf         1   UNL       h28        29     0.33920        1.0080 ; qtot   -0.911
        30           h29bf         1   UNL       h29        30     0.18128        1.0080 ; qtot   -0.730
        31           h30bf         1   UNL       h30        31     0.33418        1.0080 ; qtot   -0.396
        32           h31bf         1   UNL       h31        32     0.10042        1.0080 ; qtot   -0.295
        33           h32bf         1   UNL       h32        33     0.08151        1.0080 ; qtot   -0.214
        34           h33bf         1   UNL       h33        34     0.08151        1.0080 ; qtot   -0.132
        35           h34bf         1   UNL       h34        35     0.08364        1.0080 ; qtot   -0.049
        36           c35bf         1   UNL       c35        36    -0.06634       12.0110 ; qtot   -0.115
        37           h36bf         1   UNL       h36        37     0.03835        1.0080 ; qtot   -0.077
        38           h37bf         1   UNL       h37        38     0.03835        1.0080 ; qtot   -0.038
        39           h38bf         1   UNL       h38        39     0.03833        1.0080 ; qtot   -0.000

[ bonds ]
;       ai        aj funct               r               k
         1         2     1        0.139920   314205.988965    ;  uncertainty r = 0.000059, k = 10.355889
         1         5     1        0.151314   265032.676025    ;  uncertainty r = 0.000141, k = 25.452716
         1         8     1        0.139920   314205.988965    ;  uncertainty r = 0.000059, k = 10.355889
         2         3     1        0.139442   359146.551563    ;  uncertainty r = 0.000054, k = 3.481137
         2        11     1        0.175360   192488.234717    ;  uncertainty r = 0.000074, k = 4.279805
         3         9     1        0.139292   379946.297314    ;  uncertainty r = 0.000031, k = 1.315137
         3        24     1        0.108683   334938.061377    ;  uncertainty r = 0.000015, k = 0.960770
         4         6     1        0.140570   376090.806689    ;  uncertainty r = 0.000061, k = 6.523252
         4        13     1        0.140706   335244.481152    ;  uncertainty r = 0.000185, k = 14.115330
         4        16     1        0.139868   380531.684473    ;  uncertainty r = 0.000077, k = 4.207773
         5        12     1        0.122846   748673.427441    ;  uncertainty r = 0.000143, k = 20.391507
         5        13     1        0.137342   285190.010254    ;  uncertainty r = 0.000166, k = 14.492660
         6         7     1        0.139660   375491.680566    ;  uncertainty r = 0.000079, k = 13.453144
         6        25     1        0.108729   340462.427637    ;  uncertainty r = 0.000049, k = 2.577688
         7        14     1        0.133967   392329.420410    ;  uncertainty r = 0.000086, k = 10.357614
         7        26     1        0.108903   331910.688135    ;  uncertainty r = 0.000036, k = 1.905640
         8        10     1        0.139442   359146.551563    ;  uncertainty r = 0.000054, k = 3.481137
         8        23     1        0.175360   192488.234717    ;  uncertainty r = 0.000074, k = 4.279805
         9        10     1        0.139292   379946.297314    ;  uncertainty r = 0.000031, k = 1.315137
         9        27     1        0.108720   333853.628027    ;  uncertainty r = 0.000011, k = 1.678519
        10        28     1        0.108683   334938.061377    ;  uncertainty r = 0.000015, k = 0.960770
        13        29     1        0.101831   422627.387549    ;  uncertainty r = 0.000095, k = 5.435166
        14        15     1        0.134792   455256.075586    ;  uncertainty r = 0.000113, k = 13.883556
        15        16     1        0.140389   359382.795361    ;  uncertainty r = 0.000176, k = 22.266045
        15        17     1        0.141213   466635.002930    ;  uncertainty r = 0.000104, k = 7.290929
        16        30     1        0.108720   342724.453711    ;  uncertainty r = 0.000072, k = 4.692134
        17        18     1        0.138702   399980.031934    ;  uncertainty r = 0.000200, k = 24.716529
        17        31     1        0.101886   468855.914258    ;  uncertainty r = 0.000051, k = 3.796738
        18        19     1        0.123145   735966.825781    ;  uncertainty r = 0.000160, k = 9.008243
        18        20     1        0.149298   200331.140674    ;  uncertainty r = 0.000144, k = 12.081229
        20        21     1        0.151755   216006.354687    ;  uncertainty r = 0.000121, k = 17.828804
        20        22     1        0.152022   204176.212158    ;  uncertainty r = 0.000086, k = 25.446412
        20        32     1        0.108809   306753.749707    ;  uncertainty r = 0.000080, k = 5.829488
        21        22     1        0.150123   218335.287988    ;  uncertainty r = 0.000131, k = 7.986618
        21        33     1        0.108656   313141.908691    ;  uncertainty r = 0.000017, k = 4.040865
        21        34     1        0.108656   313141.908691    ;  uncertainty r = 0.000017, k = 4.040865
        22        35     1        0.108805   312702.568262    ;  uncertainty r = 0.000039, k = 6.017846
        22        36     1        0.151405   216891.649658    ;  uncertainty r = 0.000138, k = 6.392570
        36        37     1        0.109631   309642.558594    ;  uncertainty r = 0.000029, k = 1.423093
        36        38     1        0.109631   309642.558594    ;  uncertainty r = 0.000029, k = 1.423093
        36        39     1        0.109631   309642.558594    ;  uncertainty r = 0.000029, k = 1.423100

[ angles ]
;       ai        aj        ak funct           theta             cth
         1         2         3     1      124.614235      359.881075    ;  uncertainty theta = 0.007318, k = 0.141141
         1         2        11     1      117.122276      401.475760    ;  uncertainty theta = 0.004274, k = 0.169678
         1         5        12     1      122.451149      457.836639    ;  uncertainty theta = 0.012324, k = 0.396747
         1         5        13     1      112.777939      397.551185    ;  uncertainty theta = 0.004296, k = 0.197514
         1         8        10     1      124.614235      359.881075    ;  uncertainty theta = 0.007318, k = 0.141141
         1         8        23     1      117.122276      401.475760    ;  uncertainty theta = 0.004274, k = 0.169678
         2         1         5     1      120.701454      353.629431    ;  uncertainty theta = 0.013311, k = 0.275393
         2         1         8     1      120.699013      430.079652    ;  uncertainty theta = 0.009492, k = 0.209916
         2         3         9     1      118.495155      498.161267    ;  uncertainty theta = 0.004039, k = 0.062916
         2         3        24     1      120.521286      283.386643    ;  uncertainty theta = 0.002118, k = 0.065156
         3         2        11     1      119.919701      462.386458    ;  uncertainty theta = 0.001017, k = 0.162558
         3         9        10     1      119.368362      506.538875    ;  uncertainty theta = 0.002463, k = 0.055814
         3         9        27     1      119.878922      281.614496    ;  uncertainty theta = 0.001408, k = 0.030814
         4         6         7     1      115.739685      478.573602    ;  uncertainty theta = 0.004925, k = 0.048676
         4         6        25     1      120.342453      269.550669    ;  uncertainty theta = 0.001665, k = 0.097098
         4        13         5     1      117.316322      446.625912    ;  uncertainty theta = 0.002594, k = 0.143032
         4        13        29     1      113.569641      313.594043    ;  uncertainty theta = 0.004804, k = 0.335936
         4        16        15     1      114.614098      484.681663    ;  uncertainty theta = 0.009928, k = 0.171275
         4        16        30     1      120.968277      271.758353    ;  uncertainty theta = 0.003817, k = 0.171894
         5         1         8     1      120.701454      353.629431    ;  uncertainty theta = 0.013311, k = 0.275393
         5        13        29     1      116.863647      359.759902    ;  uncertainty theta = 0.004202, k = 0.178017
         6         4        13     1      120.717148      522.791043    ;  uncertainty theta = 0.004408, k = 0.164372
         6         4        16     1      117.422073      392.486984    ;  uncertainty theta = 0.006662, k = 0.181176
         6         7        14     1      123.556313      695.127395    ;  uncertainty theta = 0.003492, k = 0.076503
         6         7        26     1      120.074997      274.168737    ;  uncertainty theta = 0.001842, k = 0.112779
         7         6        25     1      122.550827      311.952454    ;  uncertainty theta = 0.002566, k = 0.162360
         7        14        15     1      113.210770      422.891658    ;  uncertainty theta = 0.009293, k = 0.228140
         8        10         9     1      118.495155      498.161267    ;  uncertainty theta = 0.004039, k = 0.062916
         8        10        28     1      120.521286      283.386643    ;  uncertainty theta = 0.002118, k = 0.065156
         9         3        24     1      121.431229      283.380802    ;  uncertainty theta = 0.000813, k = 0.055588
         9        10        28     1      121.431229      283.380802    ;  uncertainty theta = 0.000813, k = 0.055588
        10         8        23     1      119.919701      462.386458    ;  uncertainty theta = 0.001017, k = 0.162558
        10         9        27     1      119.878922      281.614496    ;  uncertainty theta = 0.001408, k = 0.030814
        12         5        13     1      122.021950      773.152841    ;  uncertainty theta = 0.004688, k = 0.191943
        13         4        16     1      120.298622      520.353845    ;  uncertainty theta = 0.005904, k = 0.134754
        14         7        26     1      115.959801      320.218721    ;  uncertainty theta = 0.002521, k = 0.118019
        14        15        16     1      122.962814      540.948757    ;  uncertainty theta = 0.009262, k = 0.252403
        14        15        17     1      120.036278      726.426890    ;  uncertainty theta = 0.003804, k = 0.146283
        15        16        30     1      121.654137      276.876564    ;  uncertainty theta = 0.005342, k = 0.128792
        15        17        18     1      121.190308      443.886131    ;  uncertainty theta = 0.001591, k = 0.163527
        15        17        31     1      116.661537      328.911936    ;  uncertainty theta = 0.000954, k = 0.191668
        16        15        17     1      121.420288      543.040630    ;  uncertainty theta = 0.006625, k = 0.248821
        17        18        19     1      123.087303      765.190498    ;  uncertainty theta = 0.002311, k = 0.080516
        17        18        20     1      113.540451      487.554588    ;  uncertainty theta = 0.005081, k = 0.332448
        18        17        31     1      117.198036      272.174193    ;  uncertainty theta = 0.006148, k = 0.465544
        18        20        21     1      110.022499      331.282258    ;  uncertainty theta = 0.011839, k = 0.321764
        18        20        22     1      111.186691      310.668320    ;  uncertainty theta = 0.011050, k = 0.187463
        18        20        32     1      115.416954      260.077806    ;  uncertainty theta = 0.007292, k = 0.114354
        19        18        20     1      124.919411      521.325691    ;  uncertainty theta = 0.003246, k = 0.164880
        20        21        22     1       60.048553      167.360000    ;  uncertainty theta = 0.019676, k = 0.000000
        20        21        33     1      108.788414      211.608437    ;  uncertainty theta = 0.004232, k = 0.381459
        20        21        34     1      108.788414      211.608437    ;  uncertainty theta = 0.004232, k = 0.381459
        20        22        21     1       59.169167      167.360000    ;  uncertainty theta = 0.040553, k = 0.000000
        20        22        35     1      106.545456      176.267950    ;  uncertainty theta = 0.006039, k = 0.268167
        20        22        36     1      114.401085      324.666902    ;  uncertainty theta = 0.005951, k = 0.384909
        21        20        22     1       67.149040      167.360000    ;  uncertainty theta = 0.051372, k = 0.000000
        21        20        32     1      108.986191      225.821338    ;  uncertainty theta = 0.010041, k = 1.520724
        21        22        35     1      107.961166      214.657057    ;  uncertainty theta = 0.010326, k = 1.119888
        21        22        36     1      115.248146      352.633197    ;  uncertainty theta = 0.003386, k = 0.562872
        22        20        32     1      108.018295      177.279156    ;  uncertainty theta = 0.008207, k = 0.222573
        22        21        33     1      109.632812      218.234949    ;  uncertainty theta = 0.002401, k = 0.368885
        22        21        34     1      109.632812      218.234949    ;  uncertainty theta = 0.002401, k = 0.368885
        22        36        37     1      108.512550      400.498391    ;  uncertainty theta = 0.001172, k = 0.064999
        22        36        38     1      108.512550      400.498391    ;  uncertainty theta = 0.001172, k = 0.064999
        22        36        39     1      108.512550      400.498391    ;  uncertainty theta = 0.001172, k = 0.064999
        33        21        34     1      115.207687      201.709615    ;  uncertainty theta = 0.015997, k = 0.111031
        35        22        36     1      117.555809      280.450961    ;  uncertainty theta = 0.008818, k = 0.096063
        37        36        38     1      105.661911      316.509040    ;  uncertainty theta = 0.002141, k = 0.054841
        37        36        39     1      105.661911      316.509040    ;  uncertainty theta = 0.002141, k = 0.054841
        38        36        39     1      105.661911      316.509040    ;  uncertainty theta = 0.002141, k = 0.054841

[ dihedrals ] ; propers for gromacs 4.5 or higher, use funct 9
;       ai        aj        ak        al funct           phase               k        pn
         1         2         3         9     9        0.000000        0.129562         1    ;  uncertainty k = 0.258537
         1         2         3         9     9      180.000000        9.006461         2    ;  uncertainty k = 0.178121
         1         2         3         9     9        0.000000        0.010291         3    ;  uncertainty k = 0.509158
         1         2         3         9     9      180.000000        1.179148         4    ;  uncertainty k = 0.340357
         1         2         3        24     9        0.000000        0.017749         1    ;  uncertainty k = 0.506174
         1         2         3        24     9      180.000000        5.847178         2    ;  uncertainty k = 0.808481
         1         2         3        24     9        0.000000        1.301869         3    ;  uncertainty k = 0.271599
         1         2         3        24     9      180.000000        1.572515         4    ;  uncertainty k = 0.163634
         1         5        13         4     9        0.000000        4.012883         1    ;  uncertainty k = 0.741994
         1         5        13         4     9      180.000000       10.050056         2    ;  uncertainty k = 0.176781
         1         5        13         4     9        0.000000        1.524529         3    ;  uncertainty k = 0.439697
         1         5        13         4     9      180.000000       -1.034114         4    ;  uncertainty k = 0.394406
         1         5        13        29     9        0.000000        0.286201         1    ;  uncertainty k = 0.970625
         1         5        13        29     9      180.000000        4.591571         2    ;  uncertainty k = 0.675511
         1         5        13        29     9        0.000000        1.269715         3    ;  uncertainty k = 0.289099
         1         5        13        29     9      180.000000        0.225446         4    ;  uncertainty k = 0.265035
         1         8        10         9     9        0.000000        0.129562         1    ;  uncertainty k = 0.258537
         1         8        10         9     9      180.000000        9.006461         2    ;  uncertainty k = 0.178121
         1         8        10         9     9        0.000000        0.010291         3    ;  uncertainty k = 0.509158
         1         8        10         9     9      180.000000        1.179148         4    ;  uncertainty k = 0.340357
         1         8        10        28     9        0.000000        0.017749         1    ;  uncertainty k = 0.506174
         1         8        10        28     9      180.000000        5.847178         2    ;  uncertainty k = 0.808481
         1         8        10        28     9        0.000000        1.301869         3    ;  uncertainty k = 0.271599
         1         8        10        28     9      180.000000        1.572515         4    ;  uncertainty k = 0.163634
         2         1         5        12     9        0.000000       -0.938458         1    ;  uncertainty k = 0.721948
         2         1         5        12     9      180.000000        3.726943         2    ;  uncertainty k = 0.367149
         2         1         5        12     9        0.000000        0.533107         3    ;  uncertainty k = 0.173933
         2         1         5        12     9      180.000000        0.129066         4    ;  uncertainty k = 0.152302
         2         1         5        13     9        0.000000        1.636802         1    ;  uncertainty k = 0.717500
         2         1         5        13     9      180.000000        0.794893         2    ;  uncertainty k = 0.489697
         2         1         5        13     9        0.000000        0.486371         3    ;  uncertainty k = 0.368442
         2         1         5        13     9      180.000000       -0.111126         4    ;  uncertainty k = 0.129000
         2         1         8        10     9        0.000000        0.157030         1    ;  uncertainty k = 0.251028
         2         1         8        10     9      180.000000        6.621005         2    ;  uncertainty k = 0.890169
         2         1         8        10     9        0.000000        0.446154         3    ;  uncertainty k = 0.192247
         2         1         8        10     9      180.000000        1.346016         4    ;  uncertainty k = 0.373704
         2         1         8        23     9        0.000000        0.044095         1    ;  uncertainty k = 0.788675
         2         1         8        23     9      180.000000        8.268702         2    ;  uncertainty k = 0.180496
         2         1         8        23     9        0.000000        1.453925         3    ;  uncertainty k = 0.378329
         2         1         8        23     9      180.000000        1.534665         4    ;  uncertainty k = 0.225736
         2         3         9        10     9        0.000000        0.056957         1    ;  uncertainty k = 0.125369
         2         3         9        10     9      180.000000       14.284910         2    ;  uncertainty k = 0.214373
         2         3         9        10     9        0.000000       -1.022656         3    ;  uncertainty k = 0.417280
         2         3         9        10     9      180.000000        0.771729         4    ;  uncertainty k = 0.212175
         2         3         9        27     9        0.000000        0.083384         1    ;  uncertainty k = 0.200417
         2         3         9        27     9      180.000000        7.197642         2    ;  uncertainty k = 0.253695
         2         3         9        27     9        0.000000        1.438769         3    ;  uncertainty k = 0.264288
         2         3         9        27     9      180.000000        1.864824         4    ;  uncertainty k = 0.166987
         3         2         1         5     9        0.000000        0.540121         1    ;  uncertainty k = 0.659361
         3         2         1         5     9      180.000000        6.952584         2    ;  uncertainty k = 0.900726
         3         2         1         5     9        0.000000        1.504339         3    ;  uncertainty k = 0.227715
         3         2         1         5     9      180.000000        1.691626         4    ;  uncertainty k = 0.279736
         3         2         1         8     9        0.000000        0.157030         1    ;  uncertainty k = 0.251028
         3         2         1         8     9      180.000000        6.621005         2    ;  uncertainty k = 0.890169
         3         2         1         8     9        0.000000        0.446154         3    ;  uncertainty k = 0.192247
         3         2         1         8     9      180.000000        1.346016         4    ;  uncertainty k = 0.373704
         3         9        10         8     9        0.000000        0.056957         1    ;  uncertainty k = 0.125369
         3         9        10         8     9      180.000000       14.284910         2    ;  uncertainty k = 0.214373
         3         9        10         8     9        0.000000       -1.022656         3    ;  uncertainty k = 0.417280
         3         9        10         8     9      180.000000        0.771729         4    ;  uncertainty k = 0.212175
         3         9        10        28     9        0.000000        0.071341         1    ;  uncertainty k = 0.156537
         3         9        10        28     9      180.000000        7.824333         2    ;  uncertainty k = 0.388735
         3         9        10        28     9        0.000000        1.476015         3    ;  uncertainty k = 0.262591
         3         9        10        28     9      180.000000        1.800034         4    ;  uncertainty k = 0.168947
         4         6         7        14     9        0.000000       -0.194012         1    ;  uncertainty k = 0.236068
         4         6         7        14     9      180.000000       15.640304         2    ;  uncertainty k = 0.436067
         4         6         7        14     9        0.000000       -1.141392         3    ;  uncertainty k = 0.306481
         4         6         7        14     9      180.000000        0.797444         4    ;  uncertainty k = 0.164753
         4         6         7        26     9        0.000000       -0.488021         1    ;  uncertainty k = 0.352061
         4         6         7        26     9      180.000000        6.981430         2    ;  uncertainty k = 0.581321
         4         6         7        26     9        0.000000        1.147582         3    ;  uncertainty k = 0.230024
         4         6         7        26     9      180.000000        1.407164         4    ;  uncertainty k = 0.046480
         4        13         5        12     9        0.000000        3.184547         1    ;  uncertainty k = 1.295174
         4        13         5        12     9      180.000000       13.546940         2    ;  uncertainty k = 0.231063
         4        13         5        12     9        0.000000        0.722658         3    ;  uncertainty k = 0.182961
         4        13         5        12     9      180.000000       -0.666531         4    ;  uncertainty k = 0.131850
         4        16        15        14     9        0.000000       -0.458036         1    ;  uncertainty k = 0.241096
         4        16        15        14     9      180.000000       10.215962         2    ;  uncertainty k = 0.439525
         4        16        15        14     9        0.000000       -0.448431         3    ;  uncertainty k = 0.681796
         4        16        15        14     9      180.000000        1.009102         4    ;  uncertainty k = 0.085735
         4        16        15        17     9        0.000000        0.027901         1    ;  uncertainty k = 0.587458
         4        16        15        17     9      180.000000        8.572646         2    ;  uncertainty k = 0.486861
         4        16        15        17     9        0.000000        0.913663         3    ;  uncertainty k = 0.384280
         4        16        15        17     9      180.000000        1.250677         4    ;  uncertainty k = 0.508412
         5         1         2        11     9        0.000000        0.293529         1    ;  uncertainty k = 1.201193
         5         1         2        11     9      180.000000        8.809351         2    ;  uncertainty k = 0.492509
         5         1         2        11     9        0.000000        1.507479         3    ;  uncertainty k = 0.181959
         5         1         2        11     9      180.000000        1.331521         4    ;  uncertainty k = 0.158721
         5         1         8        10     9        0.000000        0.540121         1    ;  uncertainty k = 0.659361
         5         1         8        10     9      180.000000        6.952584         2    ;  uncertainty k = 0.900726
         5         1         8        10     9        0.000000        1.504339         3    ;  uncertainty k = 0.227715
         5         1         8        10     9      180.000000        1.691626         4    ;  uncertainty k = 0.279736
         5         1         8        23     9        0.000000        0.293529         1    ;  uncertainty k = 1.201193
         5         1         8        23     9      180.000000        8.809351         2    ;  uncertainty k = 0.492509
         5         1         8        23     9        0.000000        1.507479         3    ;  uncertainty k = 0.181959
         5         1         8        23     9      180.000000        1.331521         4    ;  uncertainty k = 0.158721
         5        13         4         6     9        0.000000        0.671405         1    ;  uncertainty k = 0.779653
         5        13         4         6     9      180.000000        5.171684         2    ;  uncertainty k = 0.343054
         5        13         4         6     9        0.000000        0.900418         3    ;  uncertainty k = 0.162472
         5        13         4         6     9      180.000000        0.037683         4    ;  uncertainty k = 0.022188
         5        13         4        16     9        0.000000        0.710011         1    ;  uncertainty k = 0.553962
         5        13         4        16     9      180.000000        5.527495         2    ;  uncertainty k = 0.441174
         5        13         4        16     9        0.000000        0.874678         3    ;  uncertainty k = 0.141581
         5        13         4        16     9      180.000000        0.011833         4    ;  uncertainty k = 0.123220
         6         4        13        29     9        0.000000        1.029279         1    ;  uncertainty k = 1.463602
         6         4        13        29     9      180.000000        5.196719         2    ;  uncertainty k = 0.208685
         6         4        13        29     9        0.000000        0.851853         3    ;  uncertainty k = 0.351032
         6         4        13        29     9      180.000000        0.326889         4    ;  uncertainty k = 0.129780
         6         4        16        15     9        0.000000       -0.016517         1    ;  uncertainty k = 0.308810
         6         4        16        15     9      180.000000       10.280396         2    ;  uncertainty k = 0.423030
         6         4        16        15     9        0.000000       -0.318219         3    ;  uncertainty k = 0.123013
         6         4        16        15     9      180.000000        1.127590         4    ;  uncertainty k = 0.291086
         6         4        16        30     9        0.000000        0.494714         1    ;  uncertainty k = 0.515042
         6         4        16        30     9      180.000000        7.804734         2    ;  uncertainty k = 0.436285
         6         4        16        30     9        0.000000        1.410311         3    ;  uncertainty k = 0.264753
         6         4        16        30     9      180.000000        1.567837         4    ;  uncertainty k = 0.221080
         6         7        14        15     9        0.000000       -0.402721         1    ;  uncertainty k = 0.310800
         6         7        14        15     9      180.000000       14.573882         2    ;  uncertainty k = 0.391883
         6         7        14        15     9        0.000000        0.745102         3    ;  uncertainty k = 0.414438
         6         7        14        15     9      180.000000        1.328767         4    ;  uncertainty k = 0.252146
         7         6         4        13     9        0.000000       -0.156685         1    ;  uncertainty k = 0.327783
         7         6         4        13     9      180.000000       10.573743         2    ;  uncertainty k = 0.368407
         7         6         4        13     9        0.000000        0.699890         3    ;  uncertainty k = 0.295405
         7         6         4        13     9      180.000000        1.371703         4    ;  uncertainty k = 0.342554
         7         6         4        16     9        0.000000       -0.292976         1    ;  uncertainty k = 0.409138
         7         6         4        16     9      180.000000       10.394964         2    ;  uncertainty k = 0.255629
         7         6         4        16     9        0.000000       -0.501265         3    ;  uncertainty k = 0.482945
         7         6         4        16     9      180.000000        1.108345         4    ;  uncertainty k = 0.118936
         7        14        15        16     9        0.000000       -0.559636         1    ;  uncertainty k = 0.716312
         7        14        15        16     9      180.000000       11.730410         2    ;  uncertainty k = 0.824236
         7        14        15        16     9        0.000000        0.983790         3    ;  uncertainty k = 0.658535
         7        14        15        16     9      180.000000        1.356476         4    ;  uncertainty k = 0.302880
         7        14        15        17     9        0.000000       -0.328488         1    ;  uncertainty k = 1.287680
         7        14        15        17     9      180.000000       15.872196         2    ;  uncertainty k = 0.271125
         7        14        15        17     9        0.000000        2.049023         3    ;  uncertainty k = 0.281659
         7        14        15        17     9      180.000000        1.724614         4    ;  uncertainty k = 0.373786
         8         1         2        11     9        0.000000        0.044095         1    ;  uncertainty k = 0.788675
         8         1         2        11     9      180.000000        8.268702         2    ;  uncertainty k = 0.180496
         8         1         2        11     9        0.000000        1.453925         3    ;  uncertainty k = 0.378329
         8         1         2        11     9      180.000000        1.534665         4    ;  uncertainty k = 0.225736
         8         1         5        12     9        0.000000       -0.938458         1    ;  uncertainty k = 0.721948
         8         1         5        12     9      180.000000        3.726943         2    ;  uncertainty k = 0.367149
         8         1         5        12     9        0.000000        0.533107         3    ;  uncertainty k = 0.173933
         8         1         5        12     9      180.000000        0.129066         4    ;  uncertainty k = 0.152302
         8         1         5        13     9        0.000000        1.636802         1    ;  uncertainty k = 0.717500
         8         1         5        13     9      180.000000        0.794893         2    ;  uncertainty k = 0.489697
         8         1         5        13     9        0.000000        0.486371         3    ;  uncertainty k = 0.368442
         8         1         5        13     9      180.000000       -0.111126         4    ;  uncertainty k = 0.129000
         8        10         9        27     9        0.000000        0.083384         1    ;  uncertainty k = 0.200417
         8        10         9        27     9      180.000000        7.197642         2    ;  uncertainty k = 0.253695
         8        10         9        27     9        0.000000        1.438769         3    ;  uncertainty k = 0.264288
         8        10         9        27     9      180.000000        1.864824         4    ;  uncertainty k = 0.166987
         9         3         2        11     9        0.000000       -0.125974         1    ;  uncertainty k = 0.141879
         9         3         2        11     9      180.000000        9.826857         2    ;  uncertainty k = 0.423980
         9         3         2        11     9        0.000000        1.360528         3    ;  uncertainty k = 0.293318
         9         3         2        11     9      180.000000        1.645146         4    ;  uncertainty k = 0.120261
         9        10         8        23     9        0.000000       -0.125974         1    ;  uncertainty k = 0.141879
         9        10         8        23     9      180.000000        9.826857         2    ;  uncertainty k = 0.423980
         9        10         8        23     9        0.000000        1.360528         3    ;  uncertainty k = 0.293318
         9        10         8        23     9      180.000000        1.645146         4    ;  uncertainty k = 0.120261
        10         9         3        24     9        0.000000        0.071341         1    ;  uncertainty k = 0.156537
        10         9         3        24     9      180.000000        7.824333         2    ;  uncertainty k = 0.388735
        10         9         3        24     9        0.000000        1.476015         3    ;  uncertainty k = 0.262591
        10         9         3        24     9      180.000000        1.800034         4    ;  uncertainty k = 0.168947
        11         2         3        24     9        0.000000       -0.203688         1    ;  uncertainty k = 0.537167
        11         2         3        24     9      180.000000        7.741258         2    ;  uncertainty k = 0.413148
        11         2         3        24     9        0.000000        0.589378         3    ;  uncertainty k = 0.256365
        11         2         3        24     9      180.000000        1.098417         4    ;  uncertainty k = 0.232050
        12         5        13        29     9        0.000000        2.754751         1    ;  uncertainty k = 1.678083
        12         5        13        29     9      180.000000       15.343140         2    ;  uncertainty k = 0.287199
        12         5        13        29     9        0.000000        1.862099         3    ;  uncertainty k = 0.346350
        12         5        13        29     9      180.000000       -0.086397         4    ;  uncertainty k = 0.341591
        13         4         6        25     9        0.000000       -0.319544         1    ;  uncertainty k = 0.345314
        13         4         6        25     9      180.000000        8.037585         2    ;  uncertainty k = 0.455395
        13         4         6        25     9        0.000000        0.835277         3    ;  uncertainty k = 0.138723
        13         4         6        25     9      180.000000        1.127271         4    ;  uncertainty k = 0.123904
        13         4        16        15     9        0.000000       -0.050030         1    ;  uncertainty k = 0.551554
        13         4        16        15     9      180.000000       11.995669         2    ;  uncertainty k = 0.830937
        13         4        16        15     9        0.000000        0.814267         3    ;  uncertainty k = 0.282002
        13         4        16        15     9      180.000000        1.291270         4    ;  uncertainty k = 0.695019
        13         4        16        30     9        0.000000       -0.271589         1    ;  uncertainty k = 0.438013
        13         4        16        30     9      180.000000        8.880931         2    ;  uncertainty k = 0.430502
        13         4        16        30     9        0.000000        0.891260         3    ;  uncertainty k = 0.165823
        13         4        16        30     9      180.000000        1.196742         4    ;  uncertainty k = 0.179507
        14         7         6        25     9        0.000000        0.117617         1    ;  uncertainty k = 0.167020
        14         7         6        25     9      180.000000       10.139897         2    ;  uncertainty k = 0.400004
        14         7         6        25     9        0.000000        1.029165         3    ;  uncertainty k = 0.341480
        14         7         6        25     9      180.000000        1.734568         4    ;  uncertainty k = 0.165972
        14        15        16        30     9        0.000000        0.577592         1    ;  uncertainty k = 0.657933
        14        15        16        30     9      180.000000        7.831230         2    ;  uncertainty k = 0.812973
        14        15        16        30     9        0.000000        1.203681         3    ;  uncertainty k = 0.268713
        14        15        16        30     9      180.000000        1.422553         4    ;  uncertainty k = 0.215245
        14        15        17        18     9        0.000000        1.941817         1    ;  uncertainty k = 1.248541
        14        15        17        18     9      180.000000        5.892193         2    ;  uncertainty k = 0.277585
        14        15        17        18     9        0.000000        1.001613         3    ;  uncertainty k = 0.148726
        14        15        17        18     9      180.000000       -0.146909         4    ;  uncertainty k = 0.131564
        14        15        17        31     9        0.000000        6.031247         1    ;  uncertainty k = 0.731219
        14        15        17        31     9      180.000000        4.986664         2    ;  uncertainty k = 0.649041
        14        15        17        31     9        0.000000        0.141717         3    ;  uncertainty k = 0.293342
        14        15        17        31     9      180.000000        0.062766         4    ;  uncertainty k = 0.271802
        15        14         7        26     9        0.000000       -0.307592         1    ;  uncertainty k = 0.329620
        15        14         7        26     9      180.000000       15.085603         2    ;  uncertainty k = 0.479484
        15        14         7        26     9        0.000000        2.030304         3    ;  uncertainty k = 0.725318
        15        14         7        26     9      180.000000        1.311259         4    ;  uncertainty k = 0.430444
        15        17        18        19     9        0.000000        4.581570         1    ;  uncertainty k = 0.541802
        15        17        18        19     9      180.000000       15.730833         2    ;  uncertainty k = 0.220767
        15        17        18        19     9        0.000000        0.366523         3    ;  uncertainty k = 0.218613
        15        17        18        19     9      180.000000       -1.149295         4    ;  uncertainty k = 0.144252
        15        17        18        20     9        0.000000        5.081379         1    ;  uncertainty k = 0.544446
        15        17        18        20     9      180.000000        8.018845         2    ;  uncertainty k = 0.379675
        15        17        18        20     9        0.000000        1.125444         3    ;  uncertainty k = 0.251788
        15        17        18        20     9      180.000000       -0.371995         4    ;  uncertainty k = 0.200798
        16         4         6        25     9        0.000000        0.268930         1    ;  uncertainty k = 0.334636
        16         4         6        25     9      180.000000        7.234686         2    ;  uncertainty k = 0.622663
        16         4         6        25     9        0.000000        1.352577         3    ;  uncertainty k = 0.285398
        16         4         6        25     9      180.000000        1.470596         4    ;  uncertainty k = 0.130940
        16         4        13        29     9        0.000000        2.052060         1    ;  uncertainty k = 1.381232
        16         4        13        29     9      180.000000        5.503753         2    ;  uncertainty k = 0.424054
        16         4        13        29     9        0.000000        0.773631         3    ;  uncertainty k = 0.384703
        16         4        13        29     9      180.000000        0.261878         4    ;  uncertainty k = 0.123218
        16        15        17        18     9        0.000000        0.020461         1    ;  uncertainty k = 1.227404
        16        15        17        18     9      180.000000        4.860086         2    ;  uncertainty k = 0.154462
        16        15        17        18     9        0.000000        0.565157         3    ;  uncertainty k = 0.155728
        16        15        17        18     9      180.000000       -0.149392         4    ;  uncertainty k = 0.106663
        16        15        17        31     9        0.000000        0.791716         1    ;  uncertainty k = 1.069692
        16        15        17        31     9      180.000000        4.728061         2    ;  uncertainty k = 0.364130
        16        15        17        31     9        0.000000        1.177313         3    ;  uncertainty k = 0.312606
        16        15        17        31     9      180.000000        0.130722         4    ;  uncertainty k = 0.143522
        17        15        16        30     9        0.000000       -0.374075         1    ;  uncertainty k = 0.478247
        17        15        16        30     9      180.000000        6.510133         2    ;  uncertainty k = 0.289197
        17        15        16        30     9        0.000000        0.799604         3    ;  uncertainty k = 0.198070
        17        15        16        30     9      180.000000        0.956707         4    ;  uncertainty k = 0.185542
        17        18        20        21     9        0.000000        0.154857         1    ;  uncertainty k = 0.248615
        17        18        20        21     9      180.000000        2.287331         2    ;  uncertainty k = 0.677112
        17        18        20        21     9        0.000000        0.361136         3    ;  uncertainty k = 0.142711
        17        18        20        21     9      180.000000        0.097103         4    ;  uncertainty k = 0.087000
        17        18        20        22     9        0.000000        0.388887         1    ;  uncertainty k = 0.214771
        17        18        20        22     9      180.000000        2.378604         2    ;  uncertainty k = 0.700818
        17        18        20        22     9        0.000000        0.380977         3    ;  uncertainty k = 0.170310
        17        18        20        22     9      180.000000        0.096693         4    ;  uncertainty k = 0.091035
        17        18        20        32     9        0.000000       -0.486810         1    ;  uncertainty k = 0.909452
        17        18        20        32     9      180.000000        2.045429         2    ;  uncertainty k = 0.287705
        17        18        20        32     9        0.000000        0.453962         3    ;  uncertainty k = 0.451301
        17        18        20        32     9      180.000000        0.151448         4    ;  uncertainty k = 0.138008
        18        20        21        22     9        0.000000       52.934733         1    ;  uncertainty k = 0.541776
        18        20        21        22     9      180.000000       -0.440664         2    ;  uncertainty k = 2.473518
        18        20        21        22     9        0.000000       -7.484001         3    ;  uncertainty k = 0.944660
        18        20        21        22     9      180.000000        4.601679         4    ;  uncertainty k = 0.594715
        18        20        21        33     9        0.000000       -2.169148         1    ;  uncertainty k = 2.285562
        18        20        21        33     9      180.000000       -2.255233         2    ;  uncertainty k = 1.686137
        18        20        21        33     9        0.000000        0.508700         3    ;  uncertainty k = 0.408395
        18        20        21        33     9      180.000000       -0.865565         4    ;  uncertainty k = 0.165055
        18        20        21        34     9        0.000000       -2.169148         1    ;  uncertainty k = 2.285562
        18        20        21        34     9      180.000000       -2.255233         2    ;  uncertainty k = 1.686137
        18        20        21        34     9        0.000000        0.508700         3    ;  uncertainty k = 0.408395
        18        20        21        34     9      180.000000       -0.865565         4    ;  uncertainty k = 0.165055
        18        20        22        21     9        0.000000       48.965895         1    ;  uncertainty k = 0.948785
        18        20        22        21     9      180.000000        6.945377         2    ;  uncertainty k = 5.470628
        18        20        22        21     9        0.000000       -7.111038         3    ;  uncertainty k = 1.756178
        18        20        22        21     9      180.000000        4.311083         4    ;  uncertainty k = 1.704732
        18        20        22        35     9        0.000000       -2.515524         1    ;  uncertainty k = 8.808664
        18        20        22        35     9      180.000000       -0.401919         2    ;  uncertainty k = 2.582712
        18        20        22        35     9        0.000000        0.207746         3    ;  uncertainty k = 0.799025
        18        20        22        35     9      180.000000       -1.240881         4    ;  uncertainty k = 1.050372
        18        20        22        36     9        0.000000       -0.958935         1    ;  uncertainty k = 6.909781
        18        20        22        36     9      180.000000        1.395216         2    ;  uncertainty k = 1.092341
        18        20        22        36     9        0.000000        0.457177         3    ;  uncertainty k = 0.988922
        18        20        22        36     9      180.000000       -1.066465         4    ;  uncertainty k = 0.738828
        19        18        17        31     9        0.000000        2.875206         1    ;  uncertainty k = 0.757119
        19        18        17        31     9      180.000000       13.785088         2    ;  uncertainty k = 0.342049
        19        18        17        31     9        0.000000        0.805211         3    ;  uncertainty k = 0.300450
        19        18        17        31     9      180.000000       -0.246214         4    ;  uncertainty k = 0.145492
        19        18        20        21     9        0.000000        0.603580         1    ;  uncertainty k = 0.584428
        19        18        20        21     9      180.000000        2.842020         2    ;  uncertainty k = 0.596522
        19        18        20        21     9        0.000000        0.683981         3    ;  uncertainty k = 0.147715
        19        18        20        21     9      180.000000        0.270625         4    ;  uncertainty k = 0.067662
        19        18        20        22     9        0.000000       -0.695238         1    ;  uncertainty k = 0.220829
        19        18        20        22     9      180.000000        2.669254         2    ;  uncertainty k = 0.721624
        19        18        20        22     9        0.000000        0.762990         3    ;  uncertainty k = 0.323592
        19        18        20        22     9      180.000000        0.265293         4    ;  uncertainty k = 0.101704
        19        18        20        32     9        0.000000        0.129160         1    ;  uncertainty k = 0.590693
        19        18        20        32     9      180.000000        2.707117         2    ;  uncertainty k = 0.870029
        19        18        20        32     9        0.000000        1.598124         3    ;  uncertainty k = 0.364268
        19        18        20        32     9      180.000000        0.392176         4    ;  uncertainty k = 0.144089
        20        18        17        31     9        0.000000        1.072348         1    ;  uncertainty k = 0.845165
        20        18        17        31     9      180.000000        4.935359         2    ;  uncertainty k = 0.731234
        20        18        17        31     9        0.000000        1.814895         3    ;  uncertainty k = 0.592192
        20        18        17        31     9      180.000000        0.153680         4    ;  uncertainty k = 0.312557
        20        21        22        35     9        0.000000       39.843636         1    ;  uncertainty k = 1.153838
        20        21        22        35     9      180.000000       -3.800042         2    ;  uncertainty k = 1.881531
        20        21        22        35     9        0.000000      -10.089020         3    ;  uncertainty k = 0.662470
        20        21        22        35     9      180.000000        4.590775         4    ;  uncertainty k = 1.237387
        20        21        22        36     9        0.000000       61.834076         1    ;  uncertainty k = 0.284752
        20        21        22        36     9      180.000000       -3.626927         2    ;  uncertainty k = 2.903513
        20        21        22        36     9        0.000000       -9.912267         3    ;  uncertainty k = 0.897651
        20        21        22        36     9      180.000000        7.290165         4    ;  uncertainty k = 0.511532
        20        22        21        33     9        0.000000       44.015458         1    ;  uncertainty k = 0.843341
        20        22        21        33     9      180.000000       -2.839581         2    ;  uncertainty k = 4.332600
        20        22        21        33     9        0.000000       -9.088234         3    ;  uncertainty k = 1.587769
        20        22        21        33     9      180.000000        5.222159         4    ;  uncertainty k = 1.524448
        20        22        21        34     9        0.000000       44.015458         1    ;  uncertainty k = 0.843341
        20        22        21        34     9      180.000000       -2.839581         2    ;  uncertainty k = 4.332600
        20        22        21        34     9        0.000000       -9.088234         3    ;  uncertainty k = 1.587769
        20        22        21        34     9      180.000000        5.222159         4    ;  uncertainty k = 1.524448
        20        22        36        37     9        0.000000        0.350099         1    ;  uncertainty k = 0.320681
        20        22        36        37     9      180.000000        0.419816         2    ;  uncertainty k = 0.404100
        20        22        36        37     9        0.000000        0.900303         3    ;  uncertainty k = 0.112743
        20        22        36        37     9      180.000000        0.087824         4    ;  uncertainty k = 0.094973
        20        22        36        38     9        0.000000        0.350099         1    ;  uncertainty k = 0.320681
        20        22        36        38     9      180.000000        0.419816         2    ;  uncertainty k = 0.404100
        20        22        36        38     9        0.000000        0.900303         3    ;  uncertainty k = 0.112743
        20        22        36        38     9      180.000000        0.087824         4    ;  uncertainty k = 0.094973
        20        22        36        39     9        0.000000        0.350099         1    ;  uncertainty k = 0.320681
        20        22        36        39     9      180.000000        0.419816         2    ;  uncertainty k = 0.404100
        20        22        36        39     9        0.000000        0.900303         3    ;  uncertainty k = 0.112743
        20        22        36        39     9      180.000000        0.087824         4    ;  uncertainty k = 0.094973
        21        20        22        35     9        0.000000       29.393171         1    ;  uncertainty k = 6.856536
        21        20        22        35     9      180.000000        5.266776         2    ;  uncertainty k = 10.369413
        21        20        22        35     9        0.000000      -10.202120         3    ;  uncertainty k = 1.184785
        21        20        22        35     9      180.000000        1.984007         4    ;  uncertainty k = 8.346818
        21        20        22        36     9        0.000000       59.207425         1    ;  uncertainty k = 1.298734
        21        20        22        36     9      180.000000        5.118057         2    ;  uncertainty k = 7.638398
        21        20        22        36     9        0.000000      -10.412534         3    ;  uncertainty k = 1.615094
        21        20        22        36     9      180.000000        7.093282         4    ;  uncertainty k = 1.488463
        21        22        20        32     9        0.000000       30.680800         1    ;  uncertainty k = 6.350776
        21        22        20        32     9      180.000000        6.044156         2    ;  uncertainty k = 7.975164
        21        22        20        32     9        0.000000      -10.137460         3    ;  uncertainty k = 0.845823
        21        22        20        32     9      180.000000        2.150146         4    ;  uncertainty k = 8.113366
        21        22        36        37     9        0.000000       -0.056673         1    ;  uncertainty k = 0.579523
        21        22        36        37     9      180.000000        0.541910         2    ;  uncertainty k = 0.344033
        21        22        36        37     9        0.000000        1.090733         3    ;  uncertainty k = 0.198581
        21        22        36        37     9      180.000000        0.049883         4    ;  uncertainty k = 0.096030
        21        22        36        38     9        0.000000       -0.056673         1    ;  uncertainty k = 0.579523
        21        22        36        38     9      180.000000        0.541910         2    ;  uncertainty k = 0.344033
        21        22        36        38     9        0.000000        1.090733         3    ;  uncertainty k = 0.198581
        21        22        36        38     9      180.000000        0.049883         4    ;  uncertainty k = 0.096030
        21        22        36        39     9        0.000000       -0.056673         1    ;  uncertainty k = 0.579523
        21        22        36        39     9      180.000000        0.541910         2    ;  uncertainty k = 0.344033
        21        22        36        39     9        0.000000        1.090733         3    ;  uncertainty k = 0.198581
        21        22        36        39     9      180.000000        0.049883         4    ;  uncertainty k = 0.096030
        22        20        21        33     9        0.000000       45.691136         1    ;  uncertainty k = 0.883141
        22        20        21        33     9      180.000000       -2.314538         2    ;  uncertainty k = 5.250102
        22        20        21        33     9        0.000000       -9.676986         3    ;  uncertainty k = 1.042075
        22        20        21        33     9      180.000000        5.362930         4    ;  uncertainty k = 1.683297
        22        20        21        34     9        0.000000       45.691136         1    ;  uncertainty k = 0.883141
        22        20        21        34     9      180.000000       -2.314538         2    ;  uncertainty k = 5.250102
        22        20        21        34     9        0.000000       -9.676986         3    ;  uncertainty k = 1.042075
        22        20        21        34     9      180.000000        5.362930         4    ;  uncertainty k = 1.683297
        22        21        20        32     9        0.000000       43.819274         1    ;  uncertainty k = 0.623459
        22        21        20        32     9      180.000000       -4.070129         2    ;  uncertainty k = 5.524143
        22        21        20        32     9        0.000000      -10.567931         3    ;  uncertainty k = 1.344783
        22        21        20        32     9      180.000000        4.929430         4    ;  uncertainty k = 0.468281
        23         8        10        28     9        0.000000       -0.203688         1    ;  uncertainty k = 0.537167
        23         8        10        28     9      180.000000        7.741258         2    ;  uncertainty k = 0.413148
        23         8        10        28     9        0.000000        0.589378         3    ;  uncertainty k = 0.256365
        23         8        10        28     9      180.000000        1.098417         4    ;  uncertainty k = 0.232050
        24         3         9        27     9        0.000000        0.001385         1    ;  uncertainty k = 0.129514
        24         3         9        27     9      180.000000        7.970131         2    ;  uncertainty k = 0.421308
        24         3         9        27     9        0.000000       -0.442113         3    ;  uncertainty k = 0.230001
        24         3         9        27     9      180.000000        0.054396         4    ;  uncertainty k = 0.177102
        25         6         7        26     9        0.000000       -0.486927         1    ;  uncertainty k = 0.274037
        25         6         7        26     9      180.000000        6.750554         2    ;  uncertainty k = 0.157763
        25         6         7        26     9        0.000000        0.049287         3    ;  uncertainty k = 0.230238
        25         6         7        26     9      180.000000        0.424459         4    ;  uncertainty k = 0.124639
        27         9        10        28     9        0.000000        0.001385         1    ;  uncertainty k = 0.129514
        27         9        10        28     9      180.000000        7.970131         2    ;  uncertainty k = 0.421308
        27         9        10        28     9        0.000000       -0.442113         3    ;  uncertainty k = 0.230001
        27         9        10        28     9      180.000000        0.054396         4    ;  uncertainty k = 0.177102
        32        20        21        33     9        0.000000        0.064951         1    ;  uncertainty k = 2.990454
        32        20        21        33     9      180.000000       -1.518524         2    ;  uncertainty k = 1.571652
        32        20        21        33     9        0.000000        0.763664         3    ;  uncertainty k = 0.360181
        32        20        21        33     9      180.000000       -0.867894         4    ;  uncertainty k = 0.195802
        32        20        21        34     9        0.000000        0.064951         1    ;  uncertainty k = 2.990454
        32        20        21        34     9      180.000000       -1.518524         2    ;  uncertainty k = 1.571652
        32        20        21        34     9        0.000000        0.763664         3    ;  uncertainty k = 0.360181
        32        20        21        34     9      180.000000       -0.867894         4    ;  uncertainty k = 0.195802
        32        20        22        35     9        0.000000        2.732110         1    ;  uncertainty k = 5.255454
        32        20        22        35     9      180.000000        1.479328         2    ;  uncertainty k = 3.046629
        32        20        22        35     9        0.000000       -0.026807         3    ;  uncertainty k = 1.609297
        32        20        22        35     9      180.000000       -1.031778         4    ;  uncertainty k = 0.488720
        32        20        22        36     9        0.000000       -0.215618         1    ;  uncertainty k = 10.062857
        32        20        22        36     9      180.000000        2.276977         2    ;  uncertainty k = 1.678004
        32        20        22        36     9        0.000000        0.199954         3    ;  uncertainty k = 1.281063
        32        20        22        36     9      180.000000       -1.142841         4    ;  uncertainty k = 0.955660
        33        21        22        35     9        0.000000       -0.877458         1    ;  uncertainty k = 3.042037
        33        21        22        35     9      180.000000       -1.691121         2    ;  uncertainty k = 3.096946
        33        21        22        35     9        0.000000        0.885847         3    ;  uncertainty k = 0.463406
        33        21        22        35     9      180.000000       -0.778618         4    ;  uncertainty k = 0.223537
        33        21        22        36     9        0.000000       -0.741523         1    ;  uncertainty k = 1.911774
        33        21        22        36     9      180.000000       -0.112664         2    ;  uncertainty k = 2.630785
        33        21        22        36     9        0.000000        0.786172         3    ;  uncertainty k = 0.404550
        33        21        22        36     9      180.000000       -0.883068         4    ;  uncertainty k = 0.182248
        34        21        22        35     9        0.000000       -0.877458         1    ;  uncertainty k = 3.042037
        34        21        22        35     9      180.000000       -1.691121         2    ;  uncertainty k = 3.096946
        34        21        22        35     9        0.000000        0.885847         3    ;  uncertainty k = 0.463406
        34        21        22        35     9      180.000000       -0.778618         4    ;  uncertainty k = 0.223537
        34        21        22        36     9        0.000000       -0.741523         1    ;  uncertainty k = 1.911774
        34        21        22        36     9      180.000000       -0.112664         2    ;  uncertainty k = 2.630785
        34        21        22        36     9        0.000000        0.786172         3    ;  uncertainty k = 0.404550
        34        21        22        36     9      180.000000       -0.883068         4    ;  uncertainty k = 0.182248
        35        22        36        37     9        0.000000       -0.789925         1    ;  uncertainty k = 0.740126
        35        22        36        37     9      180.000000       -0.023092         2    ;  uncertainty k = 0.677370
        35        22        36        37     9        0.000000        1.281195         3    ;  uncertainty k = 0.185235
        35        22        36        37     9      180.000000        0.096299         4    ;  uncertainty k = 0.116839
        35        22        36        38     9        0.000000       -0.789925         1    ;  uncertainty k = 0.740126
        35        22        36        38     9      180.000000       -0.023092         2    ;  uncertainty k = 0.677370
        35        22        36        38     9        0.000000        1.281195         3    ;  uncertainty k = 0.185235
        35        22        36        38     9      180.000000        0.096299         4    ;  uncertainty k = 0.116839
        35        22        36        39     9        0.000000       -0.789925         1    ;  uncertainty k = 0.740126
        35        22        36        39     9      180.000000       -0.023092         2    ;  uncertainty k = 0.677370
        35        22        36        39     9        0.000000        1.281195         3    ;  uncertainty k = 0.185235
        35        22        36        39     9      180.000000        0.096299         4    ;  uncertainty k = 0.116839

[ dihedrals ] ; impropers
;       ai        aj        ak        al funct           phase               k        pn
         1         2         5         8     4      180.000000       12.616542         2    ;  uncertainty k = 0.387975
         1         5         8         2     4      180.000000       12.616542         2    ;  uncertainty k = 0.387975
         1         8         2         5     4      180.000000       12.616542         2    ;  uncertainty k = 0.387975
         2         1         3        11     4      180.000000       14.343354         2    ;  uncertainty k = 0.092046
         2         3        11         1     4      180.000000       14.343354         2    ;  uncertainty k = 0.092046
         2        11         1         3     4      180.000000       14.343354         2    ;  uncertainty k = 0.092046
         3         2         9        24     4      180.000000        3.308569         2    ;  uncertainty k = 0.185728
         3         9        24         2     4      180.000000        3.308569         2    ;  uncertainty k = 0.185728
         3        24         2         9     4      180.000000        3.308569         2    ;  uncertainty k = 0.185728
         4         6        13        16     4      180.000000       20.346309         2    ;  uncertainty k = 0.158855
         4        13        16         6     4      180.000000       20.346309         2    ;  uncertainty k = 0.158855
         4        16         6        13     4      180.000000       20.346309         2    ;  uncertainty k = 0.158855
         5         1        12        13     4      180.000000       56.020619         2    ;  uncertainty k = 0.087383
         5        12        13         1     4      180.000000       56.020619         2    ;  uncertainty k = 0.087383
         5        13         1        12     4      180.000000       56.020619         2    ;  uncertainty k = 0.087383
         6         4         7        25     4      180.000000        0.460309         2    ;  uncertainty k = 0.636565
         6         7        25         4     4      180.000000        0.460309         2    ;  uncertainty k = 0.636565
         6        25         4         7     4      180.000000        0.460309         2    ;  uncertainty k = 0.636565
         7         6        14        26     4      180.000000       14.075476         2    ;  uncertainty k = 0.122155
         7        14        26         6     4      180.000000       14.075476         2    ;  uncertainty k = 0.122155
         7        26         6        14     4      180.000000       14.075476         2    ;  uncertainty k = 0.122155
         8         1        10        23     4      180.000000       14.343354         2    ;  uncertainty k = 0.092046
         8        10        23         1     4      180.000000       14.343354         2    ;  uncertainty k = 0.092046
         8        23         1        10     4      180.000000       14.343354         2    ;  uncertainty k = 0.092046
         9         3        10        27     4      180.000000        4.523845         2    ;  uncertainty k = 0.130961
         9        10        27         3     4      180.000000        4.523845         2    ;  uncertainty k = 0.130961
         9        27         3        10     4      180.000000        4.523845         2    ;  uncertainty k = 0.130961
        10         8         9        28     4      180.000000        3.308569         2    ;  uncertainty k = 0.185728
        10         9        28         8     4      180.000000        3.308569         2    ;  uncertainty k = 0.185728
        10        28         8         9     4      180.000000        3.308569         2    ;  uncertainty k = 0.185728
        13         4         5        29     4      180.000000        0.483818         2    ;  uncertainty k = 0.576474
        13         5        29         4     4      180.000000        0.483818         2    ;  uncertainty k = 0.576474
        13        29         4         5     4      180.000000        0.483818         2    ;  uncertainty k = 0.576474
        15        14        16        17     4      180.000000       28.261030         2    ;  uncertainty k = 0.156027
        15        16        17        14     4      180.000000       28.261030         2    ;  uncertainty k = 0.156027
        15        17        14        16     4      180.000000       28.261030         2    ;  uncertainty k = 0.156027
        16         4        15        30     4      180.000000        1.169421         2    ;  uncertainty k = 0.953369
        16        15        30         4     4      180.000000        1.169421         2    ;  uncertainty k = 0.953369
        16        30         4        15     4      180.000000        1.169421         2    ;  uncertainty k = 0.953369
        17        15        18        31     4      180.000000        0.206927         2    ;  uncertainty k = 0.298942
        17        18        31        15     4      180.000000        0.206927         2    ;  uncertainty k = 0.298942
        17        31        15        18     4      180.000000        0.206927         2    ;  uncertainty k = 0.298942
        18        17        19        20     4      180.000000       55.913810         2    ;  uncertainty k = 0.040564
        18        19        20        17     4      180.000000       55.913810         2    ;  uncertainty k = 0.040564
        18        20        17        19     4      180.000000       55.913810         2    ;  uncertainty k = 0.040564

[ pairs ]
;       ai        aj funct
         1         4     1
         1         9     1
         1        24     1
         1        28     1
         1        29     1
         2        10     1
         2        12     1
         2        13     1
         2        23     1
         2        27     1
         3         5     1
         3         8     1
         3        28     1
         4        12     1
         4        14     1
         4        17     1
         4        26     1
         5         6     1
         5        10     1
         5        11     1
         5        16     1
         5        23     1
         6        15     1
         6        29     1
         6        30     1
         7        13     1
         7        16     1
         7        17     1
         8        11     1
         8        12     1
         8        13     1
         8        27     1
         9        11     1
         9        23     1
        10        24     1
        11        24     1
        12        29     1
        13        15     1
        13        25     1
        13        30     1
        14        18     1
        14        25     1
        14        30     1
        14        31     1
        15        19     1
        15        20     1
        15        26     1
        16        18     1
        16        25     1
        16        29     1
        16        31     1
        17        21     1
        17        22     1
        17        30     1
        17        32     1
        18        33     1
        18        34     1
        18        35     1
        18        36     1
        19        21     1
        19        22     1
        19        31     1
        19        32     1
        20        31     1
        20        37     1
        20        38     1
        20        39     1
        21        37     1
        21        38     1
        21        39     1
        23        28     1
        24        27     1
        25        26     1
        27        28     1
        32        33     1
        32        34     1
        32        35     1
        32        36     1
        33        35     1
        33        36     1
        34        35     1
        34        36     1
        35        37     1
        35        38     1
        35        39     1
