; ITP file created by ByteFF-ML, 2025-12-06 08:08:54.642495

[ atomtypes ]
;name           bonded.type        at.num        mass        charge   ptype           sigma         epsilon
 c0bf                                   6      0.0000       0.00000       A     3.39759e-01     4.49643e-01
 h1bf                                   1      0.0000       0.00000       A     2.60016e-01     8.70704e-02
 h2bf                                   1      0.0000       0.00000       A     2.60016e-01     8.70704e-02
 h3bf                                   1      0.0000       0.00000       A     2.60016e-01     8.70704e-02
 c4bf                                   6      0.0000       0.00000       A     3.31571e-01     4.14142e-01
 o5bf                                   8      0.0000       0.00000       A     3.04736e-01     6.12198e-01
 n6bf                                   7      0.0000       0.00000       A     3.26918e-01     4.88910e-01
 h7bf                                   1      0.0000       0.00000       A     1.10581e-01     4.00581e-02
 c8bf                                   6      0.0000       0.00000       A     3.40196e-01     4.52850e-01
 h9bf                                   1      0.0000       0.00000       A     2.42552e-01     8.80025e-02
 c10bf                                  6      0.0000       0.00000       A     3.39753e-01     4.51539e-01
 h11bf                                  1      0.0000       0.00000       A     2.42186e-01     8.70863e-02
 c12bf                                  6      0.0000       0.00000       A     3.39826e-01     4.49268e-01
 h13bf                                  1      0.0000       0.00000       A     2.60038e-01     8.81158e-02
 h14bf                                  1      0.0000       0.00000       A     2.60038e-01     8.81158e-02
 c15bf                                  6      0.0000       0.00000       A     3.39787e-01     4.50885e-01
 h16bf                                  1      0.0000       0.00000       A     1.87782e-01     8.61542e-02
 h17bf                                  1      0.0000       0.00000       A     1.87782e-01     8.61542e-02
 c18bf                                  6      0.0000       0.00000       A     3.31422e-01     4.12179e-01
 o19bf                                  8      0.0000       0.00000       A     3.24609e-01     3.92421e-01
 h20bf                                  1      0.0000       0.00000       A     5.35605e-02     1.98375e-02
 n21bf                                  7      0.0000       0.00000       A     2.67375e-01     7.04506e+00
 h22bf                                  1      0.0000       0.00000       A     1.10868e-01     4.18346e-02
 c23bf                                  6      0.0000       0.00000       A     3.31516e-01     4.12672e-01
 h24bf                                  1      0.0000       0.00000       A     2.62462e-01     6.71642e-02
 h25bf                                  1      0.0000       0.00000       A     1.10868e-01     4.18346e-02
 c26bf                                  6      0.0000       0.00000       A     3.40060e-01     4.49654e-01
 c27bf                                  6      0.0000       0.00000       A     3.31520e-01     4.13508e-01
 f28bf                                  9      0.0000       0.00000       A     3.03421e-01     3.47466e-01
 c29bf                                  6      0.0000       0.00000       A     3.39962e-01     4.51215e-01
 h30bf                                  1      0.0000       0.00000       A     2.59836e-01     8.67256e-02
 h31bf                                  1      0.0000       0.00000       A     2.59836e-01     8.67256e-02
 c32bf                                  6      0.0000       0.00000       A     3.31163e-01     4.14140e-01
 c33bf                                  6      0.0000       0.00000       A     3.31572e-01     4.12292e-01
 h34bf                                  1      0.0000       0.00000       A     2.62456e-01     6.72600e-02
 c35bf                                  6      0.0000       0.00000       A     3.39866e-01     4.50704e-01
 c36bf                                  6      0.0000       0.00000       A     3.31559e-01     4.16250e-01
 c37bf                                  6      0.0000       0.00000       A     3.31520e-01     4.13508e-01
 f38bf                                  9      0.0000       0.00000       A     3.03421e-01     3.47466e-01
 h39bf                                  1      0.0000       0.00000       A     2.60178e-01     8.66937e-02
 h40bf                                  1      0.0000       0.00000       A     2.60178e-01     8.66937e-02
 h41bf                                  1      0.0000       0.00000       A     2.62678e-01     6.75888e-02
 c42bf                                  6      0.0000       0.00000       A     3.39895e-01     4.51375e-01
 h43bf                                  1      0.0000       0.00000       A     2.59998e-01     8.72507e-02
 h44bf                                  1      0.0000       0.00000       A     2.59998e-01     8.72507e-02
 c45bf                                  6      0.0000       0.00000       A     3.31234e-01     4.12601e-01
 c46bf                                  6      0.0000       0.00000       A     3.31516e-01     4.12672e-01
 h47bf                                  1      0.0000       0.00000       A     2.62462e-01     6.71642e-02
 c48bf                                  6      0.0000       0.00000       A     3.39866e-01     4.50704e-01
 h49bf                                  1      0.0000       0.00000       A     2.60178e-01     8.66937e-02
 h50bf                                  1      0.0000       0.00000       A     2.60178e-01     8.66937e-02
 c51bf                                  6      0.0000       0.00000       A     3.31541e-01     4.13368e-01
 h52bf                                  1      0.0000       0.00000       A     2.62533e-01     6.75919e-02
 c53bf                                  6      0.0000       0.00000       A     3.39962e-01     4.51215e-01
 h54bf                                  1      0.0000       0.00000       A     2.59836e-01     8.67256e-02
 h55bf                                  1      0.0000       0.00000       A     2.59836e-01     8.67256e-02
 c56bf                                  6      0.0000       0.00000       A     3.31472e-01     4.13885e-01
 h57bf                                  1      0.0000       0.00000       A     2.62525e-01     6.74132e-02
 c58bf                                  6      0.0000       0.00000       A     3.31474e-01     4.12654e-01
 h59bf                                  1      0.0000       0.00000       A     2.62654e-01     6.75121e-02
 c60bf                                  6      0.0000       0.00000       A     3.39850e-01     4.49624e-01
 c61bf                                  6      0.0000       0.00000       A     3.39599e-01     4.51688e-01
 n62bf                                  7      0.0000       0.00000       A     3.17826e-01     6.83727e-01
 c63bf                                  6      0.0000       0.00000       A     3.31563e-01     4.12174e-01
 c64bf                                  6      0.0000       0.00000       A     3.39735e-01     4.51463e-01
 c65bf                                  6      0.0000       0.00000       A     3.39746e-01     4.50053e-01
 h66bf                                  1      0.0000       0.00000       A     2.59969e-01     8.70783e-02
 h67bf                                  1      0.0000       0.00000       A     2.59969e-01     8.70783e-02
 h68bf                                  1      0.0000       0.00000       A     2.42044e-01     8.70177e-02
 h69bf                                  1      0.0000       0.00000       A     2.42044e-01     8.70177e-02
 h70bf                                  1      0.0000       0.00000       A     2.59903e-01     8.71613e-02
 h71bf                                  1      0.0000       0.00000       A     2.59903e-01     8.71613e-02
 h72bf                                  1      0.0000       0.00000       A     2.59919e-01     8.71422e-02
 h73bf                                  1      0.0000       0.00000       A     2.59919e-01     8.71422e-02
 o74bf                                  8      0.0000       0.00000       A     3.04616e-01     6.11710e-01

[ moleculetype ]
;name             nrexcl
 39_0_ligand           3

[ atoms ]
;       nr            type      resi   res      atom      cgnr      charge          mass ; qtot
         1            c0bf         1   UNL        c0         1    -0.17635       12.0110 ; qtot   -0.176
         2            h1bf         1   UNL        h1         2     0.06225        1.0080 ; qtot   -0.114
         3            h2bf         1   UNL        h2         3     0.06225        1.0080 ; qtot   -0.052
         4            h3bf         1   UNL        h3         4     0.06225        1.0080 ; qtot    0.010
         5            c4bf         1   UNL        c4         5     0.60223       12.0110 ; qtot    0.613
         6            o5bf         1   UNL        o5         6    -0.61219       15.9990 ; qtot    0.000
         7            n6bf         1   UNL        n6         7    -0.51471       14.0070 ; qtot   -0.514
         8            h7bf         1   UNL        h7         8     0.32227        1.0080 ; qtot   -0.192
         9            c8bf         1   UNL        c8         9     0.10285       12.0110 ; qtot   -0.089
        10            h9bf         1   UNL        h9        10     0.08510        1.0080 ; qtot   -0.004
        11           c10bf         1   UNL       c10        11     0.15086       12.0110 ; qtot    0.147
        12           h11bf         1   UNL       h11        12     0.07889        1.0080 ; qtot    0.226
        13           c12bf         1   UNL       c12        13    -0.03751       12.0110 ; qtot    0.188
        14           h13bf         1   UNL       h13        14     0.06639        1.0080 ; qtot    0.255
        15           h14bf         1   UNL       h14        15     0.06639        1.0080 ; qtot    0.321
        16           c15bf         1   UNL       c15        16     0.11168       12.0110 ; qtot    0.433
        17           h16bf         1   UNL       h16        17     0.11120        1.0080 ; qtot    0.544
        18           h17bf         1   UNL       h17        18     0.11120        1.0080 ; qtot    0.655
        19           c18bf         1   UNL       c18        19    -0.03374       12.0110 ; qtot    0.621
        20           o19bf         1   UNL       o19        20    -0.69061       15.9990 ; qtot   -0.069
        21           h20bf         1   UNL       h20        21     0.49888        1.0080 ; qtot    0.430
        22           n21bf         1   UNL       n21        22    -0.82777       14.0070 ; qtot   -0.398
        23           h22bf         1   UNL       h22        23     0.51482        1.0080 ; qtot    0.117
        24           c23bf         1   UNL       c23        24    -0.15563       12.0110 ; qtot   -0.039
        25           h24bf         1   UNL       h24        25     0.13725        1.0080 ; qtot    0.098
        26           h25bf         1   UNL       h25        26     0.51482        1.0080 ; qtot    0.613
        27           c26bf         1   UNL       c26        27     0.21456       12.0110 ; qtot    0.828
        28           c27bf         1   UNL       c27        28     0.18913       12.0110 ; qtot    1.017
        29           f28bf         1   UNL       f28        29    -0.17421       18.9980 ; qtot    0.843
        30           c29bf         1   UNL       c29        30    -0.08783       12.0110 ; qtot    0.755
        31           h30bf         1   UNL       h30        31     0.07147        1.0080 ; qtot    0.826
        32           h31bf         1   UNL       h31        32     0.07147        1.0080 ; qtot    0.898
        33           c32bf         1   UNL       c32        33    -0.13590       12.0110 ; qtot    0.762
        34           c33bf         1   UNL       c33        34    -0.18801       12.0110 ; qtot    0.574
        35           h34bf         1   UNL       h34        35     0.15358        1.0080 ; qtot    0.727
        36           c35bf         1   UNL       c35        36    -0.07132       12.0110 ; qtot    0.656
        37           c36bf         1   UNL       c36        37    -0.08987       12.0110 ; qtot    0.566
        38           c37bf         1   UNL       c37        38     0.18913       12.0110 ; qtot    0.755
        39           f38bf         1   UNL       f38        39    -0.17421       18.9980 ; qtot    0.581
        40           h39bf         1   UNL       h39        40     0.05675        1.0080 ; qtot    0.638
        41           h40bf         1   UNL       h40        41     0.05675        1.0080 ; qtot    0.695
        42           h41bf         1   UNL       h41        42     0.13592        1.0080 ; qtot    0.830
        43           c42bf         1   UNL       c42        43    -0.08473       12.0110 ; qtot    0.746
        44           h43bf         1   UNL       h43        44     0.04473        1.0080 ; qtot    0.790
        45           h44bf         1   UNL       h44        45     0.04473        1.0080 ; qtot    0.835
        46           c45bf         1   UNL       c45        46    -0.01466       12.0110 ; qtot    0.821
        47           c46bf         1   UNL       c46        47    -0.15563       12.0110 ; qtot    0.665
        48           h47bf         1   UNL       h47        48     0.13725        1.0080 ; qtot    0.802
        49           c48bf         1   UNL       c48        49    -0.07132       12.0110 ; qtot    0.731
        50           h49bf         1   UNL       h49        50     0.05675        1.0080 ; qtot    0.788
        51           h50bf         1   UNL       h50        51     0.05675        1.0080 ; qtot    0.844
        52           c51bf         1   UNL       c51        52    -0.11441       12.0110 ; qtot    0.730
        53           h52bf         1   UNL       h52        53     0.12919        1.0080 ; qtot    0.859
        54           c53bf         1   UNL       c53        54    -0.08783       12.0110 ; qtot    0.771
        55           h54bf         1   UNL       h54        55     0.07147        1.0080 ; qtot    0.843
        56           h55bf         1   UNL       h55        56     0.07147        1.0080 ; qtot    0.914
        57           c56bf         1   UNL       c56        57    -0.06380       12.0110 ; qtot    0.850
        58           h57bf         1   UNL       h57        58     0.12785        1.0080 ; qtot    0.978
        59           c58bf         1   UNL       c58        59    -0.09588       12.0110 ; qtot    0.882
        60           h59bf         1   UNL       h59        60     0.12487        1.0080 ; qtot    1.007
        61           c60bf         1   UNL       c60        61    -0.09622       12.0110 ; qtot    0.911
        62           c61bf         1   UNL       c61        62     0.10825       12.0110 ; qtot    1.019
        63           n62bf         1   UNL       n62        63    -0.24832       14.0070 ; qtot    0.771
        64           c63bf         1   UNL       c63        64     0.55801       12.0110 ; qtot    1.329
        65           c64bf         1   UNL       c64        65    -0.15510       12.0110 ; qtot    1.174
        66           c65bf         1   UNL       c65        66    -0.07280       12.0110 ; qtot    1.101
        67           h66bf         1   UNL       h66        67     0.05536        1.0080 ; qtot    1.156
        68           h67bf         1   UNL       h67        68     0.05536        1.0080 ; qtot    1.212
        69           h68bf         1   UNL       h68        69     0.05017        1.0080 ; qtot    1.262
        70           h69bf         1   UNL       h69        70     0.05017        1.0080 ; qtot    1.312
        71           h70bf         1   UNL       h70        71     0.07117        1.0080 ; qtot    1.383
        72           h71bf         1   UNL       h71        72     0.07117        1.0080 ; qtot    1.455
        73           h72bf         1   UNL       h72        73     0.04866        1.0080 ; qtot    1.503
        74           h73bf         1   UNL       h73        74     0.04866        1.0080 ; qtot    1.552
        75           o74bf         1   UNL       o74        75    -0.55182       15.9990 ; qtot    1.000

[ bonds ]
;       ai        aj funct               r               k
         1         2     1        0.109281   307290.514209
         1         3     1        0.109281   307290.514209
         1         4     1        0.109281   307290.514209
         1         5     1        0.151969   180454.982788
         5         6     1        0.123279   600628.726562
         5         7     1        0.137142   287890.534033
         7         8     1        0.101116   421821.972656
         7         9     1        0.146373   194348.676978
         9        10     1        0.109305   304137.115332
         9        11     1        0.154875   156247.858838
         9        13     1        0.154784   160322.049268
        11        12     1        0.109730   293205.725830
        11        16     1        0.153379   175303.407251
        11        20     1        0.143115   199672.896143
        13        14     1        0.109359   298803.204834
        13        15     1        0.109359   298803.204834
        13        19     1        0.151125   199379.959961
        16        17     1        0.108996   313885.574854
        16        18     1        0.108996   313885.574854
        16        22     1        0.150836   148835.725610
        19        24     1        0.140252   293000.075488
        19        47     1        0.140252   293000.075488
        20        21     1        0.097256   464269.040820
        22        23     1        0.103134   365660.710645
        22        26     1        0.103134   365660.710645
        22        27     1        0.155944    73011.629956
        24        25     1        0.108529   322235.571191
        24        28     1        0.139078   310079.983740
        27        30     1        0.154388   161667.714478
        27        33     1        0.152395   169661.583057
        27        54     1        0.154388   161667.714478
        28        29     1        0.135546   290992.169189
        28        34     1        0.139189   307398.306348
        30        31     1        0.109416   298922.182227
        30        32     1        0.109416   298922.182227
        30        36     1        0.153944   176575.768188
        33        37     1        0.140202   289248.342139
        33        59     1        0.140349   284674.211719
        34        35     1        0.108371   329625.908496
        34        38     1        0.139189   307398.306348
        36        40     1        0.109449   298707.696045
        36        41     1        0.109449   298707.696045
        36        43     1        0.153880   182223.491455
        37        42     1        0.108358   324062.112939
        37        46     1        0.140098   288561.112988
        38        39     1        0.135546   290992.143652
        38        47     1        0.139078   310079.958203
        43        44     1        0.109565   295187.277832
        43        45     1        0.109565   295187.277832
        43        49     1        0.153880   182223.478687
        46        52     1        0.140170   290089.406836
        46        63     1        0.142997   216943.617676
        47        48     1        0.108529   322235.571191
        49        50     1        0.109449   298707.721582
        49        51     1        0.109449   298707.721582
        49        54     1        0.153944   176575.755420
        52        53     1        0.108346   325835.997168
        52        57     1        0.139496   320921.993359
        54        55     1        0.109416   298922.156689
        54        56     1        0.109416   298922.156689
        57        58     1        0.108555   321855.068262
        57        59     1        0.139667   313790.014990
        59        60     1        0.108538   320230.805957
        61        62     1        0.152626   192645.479468
        61        66     1        0.153267   190541.323804
        61        67     1        0.109496   297332.854687
        61        68     1        0.109496   297332.854687
        62        63     1        0.147590   178954.626538
        62        69     1        0.109450   295227.932910
        62        70     1        0.109450   295227.932910
        63        64     1        0.138408   243757.454834
        64        65     1        0.152275   174197.637646
        64        75     1        0.122983   608202.675684
        65        66     1        0.153231   190100.732056
        65        71     1        0.109463   299634.463281
        65        72     1        0.109463   299634.463281
        66        73     1        0.109518   296211.545752
        66        74     1        0.109518   296211.545752

[ angles ]
;       ai        aj        ak funct           theta             cth
         1         5         6     1      121.559692      494.520952
         1         5         7     1      115.538086      521.033387
         2         1         3     1      108.611633      361.230424
         2         1         4     1      108.611633      361.230424
         2         1         5     1      110.304222      512.627784
         3         1         4     1      108.611633      361.230424
         3         1         5     1      110.304222      512.627784
         4         1         5     1      110.304222      512.627784
         5         7         8     1      117.683533      451.298692
         5         7         9     1      122.640366      552.466696
         6         5         7     1      122.450035      640.179772
         7         9        10     1      106.497803      505.172480
         7         9        11     1      110.426743      532.987563
         7         9        13     1      111.197876      573.809846
         8         7         9     1      117.095421      413.878559
         9        11        12     1      108.341751      462.109572
         9        11        16     1      112.884842      561.501023
         9        11        20     1      111.191750      612.905117
         9        13        14     1      108.267471      482.646515
         9        13        15     1      108.267471      482.646515
         9        13        19     1      112.656578      534.840632
        10         9        11     1      107.271194      477.840367
        10         9        13     1      108.351517      455.059031
        11         9        13     1      113.293007      563.278533
        11        16        17     1      111.060204      456.883339
        11        16        18     1      111.060204      456.883339
        11        16        22     1      109.917152      636.085151
        11        20        21     1      110.000771      551.136340
        12        11        16     1      108.906960      478.214965
        12        11        20     1      109.651207      458.729161
        13        19        24     1      120.204666      490.498346
        13        19        47     1      120.204666      490.498346
        14        13        15     1      106.998825      359.051949
        14        13        19     1      109.898193      498.113257
        15        13        19     1      109.898193      498.113257
        16        11        20     1      104.964554      637.700948
        16        22        23     1      107.818253      499.612924
        16        22        26     1      107.818253      499.612924
        16        22        27     1      119.471947      549.230314
        17        16        18     1      109.240089      345.596446
        17        16        22     1      107.771469      547.277875
        18        16        22     1      107.771469      547.277875
        19        24        25     1      121.399818      395.876206
        19        24        28     1      119.171677      687.357857
        19        47        38     1      119.171677      687.357857
        19        47        48     1      121.399818      395.876206
        22        27        30     1      107.321243      660.607288
        22        27        33     1      105.729111      659.071806
        22        27        54     1      107.321243      660.607288
        23        22        26     1      106.733261      396.539341
        23        22        27     1      107.358200      449.747983
        24        19        47     1      119.304344      683.717670
        24        28        29     1      118.697449      556.856206
        24        28        34     1      123.014793      599.300542
        25        24        28     1      119.458008      430.140782
        26        22        27     1      107.358200      449.747983
        27        30        31     1      109.296165      478.814736
        27        30        32     1      109.296165      478.814736
        27        30        36     1      112.355362      593.573015
        27        33        37     1      120.642776      443.042544
        27        33        59     1      120.835205      510.717002
        27        54        49     1      112.355362      593.573015
        27        54        55     1      109.296165      478.814672
        27        54        56     1      109.296165      478.814672
        28        34        35     1      121.810081      421.339641
        28        34        38     1      116.394432      716.641388
        29        28        34     1      118.251686      546.060393
        30        27        33     1      114.086327      600.380378
        30        27        54     1      110.262390      514.485768
        30        36        40     1      109.192032      512.058562
        30        36        41     1      109.192032      512.058562
        30        36        43     1      111.497757      644.440830
        31        30        32     1      106.345482      358.854388
        31        30        36     1      109.594704      502.313345
        32        30        36     1      109.594704      502.313345
        33        27        54     1      114.086327      600.380378
        33        37        42     1      121.112022      399.885021
        33        37        46     1      120.851929      655.447899
        33        59        57     1      119.953537      663.078195
        33        59        60     1      121.275833      410.295798
        34        38        39     1      118.251686      546.060393
        34        38        47     1      123.014793      599.300542
        35        34        38     1      121.810081      421.339641
        36        43        44     1      109.732216      505.339301
        36        43        45     1      109.732216      505.339301
        36        43        49     1      111.340858      582.517809
        37        33        59     1      118.831810      658.346935
        37        46        52     1      119.297073      615.191391
        37        46        63     1      120.210678      446.237939
        38        47        48     1      119.458008      430.140782
        39        38        47     1      118.697449      556.856206
        40        36        41     1      106.261375      362.881718
        40        36        43     1      110.076126      490.303881
        41        36        43     1      110.076126      490.303881
        42        37        46     1      118.359924      447.935518
        43        49        50     1      110.076126      490.303913
        43        49        51     1      110.076126      490.303913
        43        49        54     1      111.497765      644.440830
        44        43        45     1      106.436600      366.271003
        44        43        49     1      109.732216      505.339301
        45        43        49     1      109.732216      505.339301
        46        52        53     1      119.849632      451.507139
        46        52        57     1      119.682327      701.573472
        46        63        62     1      116.847023      553.413548
        46        63        64     1      120.399925      577.040673
        49        54        55     1      109.594704      502.313409
        49        54        56     1      109.594704      502.313409
        50        49        51     1      106.261375      362.881718
        50        49        54     1      109.192032      512.058562
        51        49        54     1      109.192032      512.058562
        52        46        63     1      120.375938      544.084267
        52        57        58     1      119.473999      439.021822
        52        57        59     1      120.547142      714.937106
        53        52        57     1      120.479088      413.283066
        55        54        56     1      106.345482      358.854420
        57        59        60     1      118.943771      436.156974
        58        57        59     1      119.761314      431.511454
        61        62        63     1      112.205811      652.320433
        61        62        69     1      110.367943      500.482973
        61        62        70     1      110.367943      500.482973
        61        66        65     1      109.612305      612.046177
        61        66        73     1      110.323402      506.445984
        61        66        74     1      110.323402      506.445984
        62        61        66     1      110.193810      656.755909
        62        61        67     1      108.980545      520.692116
        62        61        68     1      108.980545      520.692116
        62        63        64     1      122.607468      500.553711
        63        62        69     1      108.456741      462.192376
        63        62        70     1      108.456726      462.192376
        63        64        65     1      117.039490      549.776745
        63        64        75     1      122.557228      608.169707
        64        65        66     1      114.623550      694.733358
        64        65        71     1      106.272667      565.814177
        64        65        72     1      106.272667      565.814177
        65        64        75     1      120.466675      522.855556
        65        66        73     1      109.761292      509.413141
        65        66        74     1      109.761292      509.413141
        66        61        67     1      110.609863      497.468413
        66        61        68     1      110.609863      497.468413
        66        65        71     1      111.164551      488.994881
        66        65        72     1      111.164551      488.994881
        67        61        68     1      107.276711      357.333430
        69        62        70     1      107.238724      351.321100
        71        65        72     1      106.601646      361.305567
        73        66        74     1      106.947983      363.546544

[ dihedrals ] ; propers for gromacs 4.5 or higher, use funct 9
;       ai        aj        ak        al funct           phase               k        pn
         1         5         7         8     9        0.000000       -0.984680         1
         1         5         7         8     9      180.000000       10.713815         2
         1         5         7         8     9        0.000000        0.266309         3
         1         5         7         8     9      180.000000        1.049624         4
         1         5         7         9     9        0.000000        2.899698         1
         1         5         7         9     9      180.000000       10.926082         2
         1         5         7         9     9        0.000000        2.211648         3
         1         5         7         9     9      180.000000        0.541693         4
         2         1         5         6     9        0.000000        0.021300         1
         2         1         5         6     9      180.000000        0.079376         2
         2         1         5         6     9        0.000000       -0.551453         3
         2         1         5         6     9      180.000000        0.118634         4
         2         1         5         7     9        0.000000        0.050137         1
         2         1         5         7     9      180.000000        0.087192         2
         2         1         5         7     9        0.000000       -0.625790         3
         2         1         5         7     9      180.000000        0.214023         4
         3         1         5         6     9        0.000000        0.021300         1
         3         1         5         6     9      180.000000        0.079376         2
         3         1         5         6     9        0.000000       -0.551453         3
         3         1         5         6     9      180.000000        0.118634         4
         3         1         5         7     9        0.000000        0.050137         1
         3         1         5         7     9      180.000000        0.087192         2
         3         1         5         7     9        0.000000       -0.625790         3
         3         1         5         7     9      180.000000        0.214023         4
         4         1         5         6     9        0.000000        0.021300         1
         4         1         5         6     9      180.000000        0.079376         2
         4         1         5         6     9        0.000000       -0.551453         3
         4         1         5         6     9      180.000000        0.118634         4
         4         1         5         7     9        0.000000        0.050137         1
         4         1         5         7     9      180.000000        0.087192         2
         4         1         5         7     9        0.000000       -0.625790         3
         4         1         5         7     9      180.000000        0.214023         4
         5         7         9        10     9        0.000000       -0.179301         1
         5         7         9        10     9      180.000000       -0.134417         2
         5         7         9        10     9        0.000000        0.024570         3
         5         7         9        10     9      180.000000        0.224108         4
         5         7         9        11     9        0.000000        5.050321         1
         5         7         9        11     9      180.000000       -0.563329         2
         5         7         9        11     9        0.000000        0.226315         3
         5         7         9        11     9      180.000000        0.154439         4
         5         7         9        13     9        0.000000        0.167201         1
         5         7         9        13     9      180.000000        0.020953         2
         5         7         9        13     9        0.000000        0.412500         3
         5         7         9        13     9      180.000000        0.148209         4
         6         5         7         8     9        0.000000        0.832867         1
         6         5         7         8     9      180.000000       11.780037         2
         6         5         7         8     9        0.000000       -0.375981         3
         6         5         7         8     9      180.000000        0.948325         4
         6         5         7         9     9        0.000000        1.017241         1
         6         5         7         9     9      180.000000        8.664891         2
         6         5         7         9     9        0.000000        1.257682         3
         6         5         7         9     9      180.000000       -2.081175         4
         7         9        11        12     9        0.000000       -0.330930         1
         7         9        11        12     9      180.000000        0.160754         2
         7         9        11        12     9        0.000000        0.605276         3
         7         9        11        12     9      180.000000        0.012970         4
         7         9        11        16     9        0.000000        0.004375         1
         7         9        11        16     9      180.000000        0.355582         2
         7         9        11        16     9        0.000000        0.432313         3
         7         9        11        16     9      180.000000       -0.051368         4
         7         9        11        20     9        0.000000        3.106881         1
         7         9        11        20     9      180.000000       -1.127417         2
         7         9        11        20     9        0.000000        0.329768         3
         7         9        11        20     9      180.000000       -0.362984         4
         7         9        13        14     9        0.000000        0.023705         1
         7         9        13        14     9      180.000000       -0.046296         2
         7         9        13        14     9        0.000000        0.601711         3
         7         9        13        14     9      180.000000       -0.015242         4
         7         9        13        15     9        0.000000        0.023705         1
         7         9        13        15     9      180.000000       -0.046296         2
         7         9        13        15     9        0.000000        0.601711         3
         7         9        13        15     9      180.000000       -0.015242         4
         7         9        13        19     9        0.000000        0.020857         1
         7         9        13        19     9      180.000000       -0.227535         2
         7         9        13        19     9        0.000000        0.602448         3
         7         9        13        19     9      180.000000        0.017764         4
         8         7         9        10     9        0.000000       -0.341457         1
         8         7         9        10     9      180.000000        0.079791         2
         8         7         9        10     9        0.000000        0.711576         3
         8         7         9        10     9      180.000000        0.176784         4
         8         7         9        11     9        0.000000       -1.745272         1
         8         7         9        11     9      180.000000       -1.615864         2
         8         7         9        11     9        0.000000        0.669381         3
         8         7         9        11     9      180.000000        0.033695         4
         8         7         9        13     9        0.000000       -0.797731         1
         8         7         9        13     9      180.000000       -0.748925         2
         8         7         9        13     9        0.000000        0.646439         3
         8         7         9        13     9      180.000000        0.076137         4
         9        11        16        17     9        0.000000       -0.126504         1
         9        11        16        17     9      180.000000       -0.019152         2
         9        11        16        17     9        0.000000        0.628461         3
         9        11        16        17     9      180.000000        0.073642         4
         9        11        16        18     9        0.000000       -0.126504         1
         9        11        16        18     9      180.000000       -0.019152         2
         9        11        16        18     9        0.000000        0.628461         3
         9        11        16        18     9      180.000000        0.073642         4
         9        11        16        22     9        0.000000        1.936345         1
         9        11        16        22     9      180.000000       -1.159782         2
         9        11        16        22     9        0.000000        0.704520         3
         9        11        16        22     9      180.000000       -0.010777         4
         9        11        20        21     9        0.000000        3.235327         1
         9        11        20        21     9      180.000000       -2.294890         2
         9        11        20        21     9        0.000000        1.178564         3
         9        11        20        21     9      180.000000       -0.104336         4
         9        13        19        24     9        0.000000       -0.434991         1
         9        13        19        24     9      180.000000        0.453058         2
         9        13        19        24     9        0.000000        0.234189         3
         9        13        19        24     9      180.000000        0.023247         4
         9        13        19        47     9        0.000000       -0.434991         1
         9        13        19        47     9      180.000000        0.453058         2
         9        13        19        47     9        0.000000        0.234189         3
         9        13        19        47     9      180.000000        0.023247         4
        10         9        11        12     9        0.000000        0.643778         1
        10         9        11        12     9      180.000000       -0.177609         2
        10         9        11        12     9        0.000000        0.674420         3
        10         9        11        12     9      180.000000       -0.134003         4
        10         9        11        16     9        0.000000       -0.936021         1
        10         9        11        16     9      180.000000        0.138600         2
        10         9        11        16     9        0.000000        0.563772         3
        10         9        11        16     9      180.000000        0.010756         4
        10         9        11        20     9        0.000000       -0.418147         1
        10         9        11        20     9      180.000000       -0.069201         2
        10         9        11        20     9        0.000000        0.567563         3
        10         9        11        20     9      180.000000       -0.028416         4
        10         9        13        14     9        0.000000        0.220682         1
        10         9        13        14     9      180.000000        0.105451         2
        10         9        13        14     9        0.000000        0.645369         3
        10         9        13        14     9      180.000000       -0.080367         4
        10         9        13        15     9        0.000000        0.220682         1
        10         9        13        15     9      180.000000        0.105451         2
        10         9        13        15     9        0.000000        0.645369         3
        10         9        13        15     9      180.000000       -0.080367         4
        10         9        13        19     9        0.000000       -0.400934         1
        10         9        13        19     9      180.000000        0.178764         2
        10         9        13        19     9        0.000000        0.717846         3
        10         9        13        19     9      180.000000       -0.040456         4
        11         9        13        14     9        0.000000       -0.477508         1
        11         9        13        14     9      180.000000        0.019137         2
        11         9        13        14     9        0.000000        0.477494         3
        11         9        13        14     9      180.000000        0.046079         4
        11         9        13        15     9        0.000000       -0.477508         1
        11         9        13        15     9      180.000000        0.019137         2
        11         9        13        15     9        0.000000        0.477494         3
        11         9        13        15     9      180.000000        0.046079         4
        11         9        13        19     9        0.000000        1.868184         1
        11         9        13        19     9      180.000000       -0.476961         2
        11         9        13        19     9        0.000000        0.646744         3
        11         9        13        19     9      180.000000        0.008005         4
        11        16        22        23     9        0.000000        1.741429         1
        11        16        22        23     9      180.000000       -0.446185         2
        11        16        22        23     9        0.000000        0.387189         3
        11        16        22        23     9      180.000000       -0.096213         4
        11        16        22        26     9        0.000000        1.741429         1
        11        16        22        26     9      180.000000       -0.446185         2
        11        16        22        26     9        0.000000        0.387189         3
        11        16        22        26     9      180.000000       -0.096213         4
        11        16        22        27     9        0.000000       -2.053563         1
        11        16        22        27     9      180.000000       -0.458465         2
        11        16        22        27     9        0.000000        0.411187         3
        11        16        22        27     9      180.000000        0.042346         4
        12        11         9        13     9        0.000000       -0.468970         1
        12        11         9        13     9      180.000000        0.120167         2
        12        11         9        13     9        0.000000        0.585544         3
        12        11         9        13     9      180.000000        0.057195         4
        12        11        16        17     9        0.000000       -0.087599         1
        12        11        16        17     9      180.000000        0.018618         2
        12        11        16        17     9        0.000000        0.654544         3
        12        11        16        17     9      180.000000       -0.077010         4
        12        11        16        18     9        0.000000       -0.087599         1
        12        11        16        18     9      180.000000        0.018618         2
        12        11        16        18     9        0.000000        0.654544         3
        12        11        16        18     9      180.000000       -0.077010         4
        12        11        16        22     9        0.000000       -0.515792         1
        12        11        16        22     9      180.000000       -0.327777         2
        12        11        16        22     9        0.000000        0.689629         3
        12        11        16        22     9      180.000000        0.083348         4
        12        11        20        21     9        0.000000       -0.307051         1
        12        11        20        21     9      180.000000        0.107825         2
        12        11        20        21     9        0.000000        0.883692         3
        12        11        20        21     9      180.000000        0.026240         4
        13         9        11        16     9        0.000000        1.013015         1
        13         9        11        16     9      180.000000        0.066150         2
        13         9        11        16     9        0.000000        0.619164         3
        13         9        11        16     9      180.000000       -0.069290         4
        13         9        11        20     9        0.000000       -0.841251         1
        13         9        11        20     9      180.000000        0.042010         2
        13         9        11        20     9        0.000000        0.600458         3
        13         9        11        20     9      180.000000       -0.036811         4
        13        19        24        25     9        0.000000       -0.160824         1
        13        19        24        25     9      180.000000       12.658724         2
        13        19        24        25     9        0.000000       -0.529256         3
        13        19        24        25     9      180.000000        0.225383         4
        13        19        24        28     9        0.000000        0.158953         1
        13        19        24        28     9      180.000000       15.991499         2
        13        19        24        28     9        0.000000       -0.281609         3
        13        19        24        28     9      180.000000       -0.244265         4
        13        19        47        38     9        0.000000        0.158952         1
        13        19        47        38     9      180.000000       15.991496         2
        13        19        47        38     9        0.000000       -0.281609         3
        13        19        47        38     9      180.000000       -0.244264         4
        13        19        47        48     9        0.000000       -0.160824         1
        13        19        47        48     9      180.000000       12.658723         2
        13        19        47        48     9        0.000000       -0.529256         3
        13        19        47        48     9      180.000000        0.225383         4
        14        13        19        24     9        0.000000        0.017126         1
        14        13        19        24     9      180.000000        0.005908         2
        14        13        19        24     9        0.000000        0.214915         3
        14        13        19        24     9      180.000000        0.010055         4
        14        13        19        47     9        0.000000        0.017127         1
        14        13        19        47     9      180.000000        0.005907         2
        14        13        19        47     9        0.000000        0.214915         3
        14        13        19        47     9      180.000000        0.010054         4
        15        13        19        24     9        0.000000        0.017126         1
        15        13        19        24     9      180.000000        0.005908         2
        15        13        19        24     9        0.000000        0.214915         3
        15        13        19        24     9      180.000000        0.010055         4
        15        13        19        47     9        0.000000        0.017127         1
        15        13        19        47     9      180.000000        0.005907         2
        15        13        19        47     9        0.000000        0.214915         3
        15        13        19        47     9      180.000000        0.010054         4
        16        11        20        21     9        0.000000       -0.911918         1
        16        11        20        21     9      180.000000       -2.218269         2
        16        11        20        21     9        0.000000        0.861332         3
        16        11        20        21     9      180.000000        0.065271         4
        16        22        27        30     9        0.000000       -0.163257         1
        16        22        27        30     9      180.000000        0.754914         2
        16        22        27        30     9        0.000000        0.857304         3
        16        22        27        30     9      180.000000        0.049170         4
        16        22        27        33     9        0.000000       -1.429196         1
        16        22        27        33     9      180.000000        0.010444         2
        16        22        27        33     9        0.000000        1.275820         3
        16        22        27        33     9      180.000000        0.118309         4
        16        22        27        54     9        0.000000       -0.163256         1
        16        22        27        54     9      180.000000        0.754914         2
        16        22        27        54     9        0.000000        0.857305         3
        16        22        27        54     9      180.000000        0.049170         4
        17        16        11        20     9        0.000000        0.517340         1
        17        16        11        20     9      180.000000       -0.334264         2
        17        16        11        20     9        0.000000        0.615665         3
        17        16        11        20     9      180.000000       -0.010583         4
        17        16        22        23     9        0.000000        0.063203         1
        17        16        22        23     9      180.000000       -0.105367         2
        17        16        22        23     9        0.000000        0.307068         3
        17        16        22        23     9      180.000000        0.101692         4
        17        16        22        26     9        0.000000        0.063203         1
        17        16        22        26     9      180.000000       -0.105367         2
        17        16        22        26     9        0.000000        0.307068         3
        17        16        22        26     9      180.000000        0.101692         4
        17        16        22        27     9        0.000000       -0.264962         1
        17        16        22        27     9      180.000000       -0.013849         2
        17        16        22        27     9        0.000000        0.584741         3
        17        16        22        27     9      180.000000       -0.059555         4
        18        16        11        20     9        0.000000        0.517340         1
        18        16        11        20     9      180.000000       -0.334264         2
        18        16        11        20     9        0.000000        0.615665         3
        18        16        11        20     9      180.000000       -0.010583         4
        18        16        22        23     9        0.000000        0.063203         1
        18        16        22        23     9      180.000000       -0.105367         2
        18        16        22        23     9        0.000000        0.307068         3
        18        16        22        23     9      180.000000        0.101692         4
        18        16        22        26     9        0.000000        0.063203         1
        18        16        22        26     9      180.000000       -0.105367         2
        18        16        22        26     9        0.000000        0.307068         3
        18        16        22        26     9      180.000000        0.101692         4
        18        16        22        27     9        0.000000       -0.264962         1
        18        16        22        27     9      180.000000       -0.013849         2
        18        16        22        27     9        0.000000        0.584741         3
        18        16        22        27     9      180.000000       -0.059555         4
        19        24        28        29     9        0.000000        0.558321         1
        19        24        28        29     9      180.000000       22.600098         2
        19        24        28        29     9        0.000000        0.580146         3
        19        24        28        29     9      180.000000       -0.676260         4
        19        24        28        34     9        0.000000       -0.009833         1
        19        24        28        34     9      180.000000       16.983542         2
        19        24        28        34     9        0.000000       -1.224300         3
        19        24        28        34     9      180.000000       -0.325713         4
        19        47        38        34     9        0.000000       -0.009834         1
        19        47        38        34     9      180.000000       16.983544         2
        19        47        38        34     9        0.000000       -1.224300         3
        19        47        38        34     9      180.000000       -0.325713         4
        19        47        38        39     9        0.000000        0.558322         1
        19        47        38        39     9      180.000000       22.600100         2
        19        47        38        39     9        0.000000        0.580146         3
        19        47        38        39     9      180.000000       -0.676260         4
        20        11        16        22     9        0.000000       11.736838         1
        20        11        16        22     9      180.000000       -2.757430         2
        20        11        16        22     9        0.000000        0.182550         3
        20        11        16        22     9      180.000000        0.345479         4
        22        27        30        31     9        0.000000       -0.223271         1
        22        27        30        31     9      180.000000       -0.304086         2
        22        27        30        31     9        0.000000        0.571301         3
        22        27        30        31     9      180.000000       -0.014273         4
        22        27        30        32     9        0.000000       -0.223271         1
        22        27        30        32     9      180.000000       -0.304086         2
        22        27        30        32     9        0.000000        0.571301         3
        22        27        30        32     9      180.000000       -0.014273         4
        22        27        30        36     9        0.000000        4.878928         1
        22        27        30        36     9      180.000000       -1.266059         2
        22        27        30        36     9        0.000000        0.413741         3
        22        27        30        36     9      180.000000        0.238254         4
        22        27        33        37     9        0.000000        2.211992         1
        22        27        33        37     9      180.000000        0.136857         2
        22        27        33        37     9        0.000000        0.188154         3
        22        27        33        37     9      180.000000        0.064014         4
        22        27        33        59     9        0.000000        0.565942         1
        22        27        33        59     9      180.000000        0.112511         2
        22        27        33        59     9        0.000000        0.212112         3
        22        27        33        59     9      180.000000        0.069623         4
        22        27        54        49     9        0.000000        4.878926         1
        22        27        54        49     9      180.000000       -1.266059         2
        22        27        54        49     9        0.000000        0.413741         3
        22        27        54        49     9      180.000000        0.238254         4
        22        27        54        55     9        0.000000       -0.223272         1
        22        27        54        55     9      180.000000       -0.304087         2
        22        27        54        55     9        0.000000        0.571301         3
        22        27        54        55     9      180.000000       -0.014273         4
        22        27        54        56     9        0.000000       -0.223272         1
        22        27        54        56     9      180.000000       -0.304087         2
        22        27        54        56     9        0.000000        0.571301         3
        22        27        54        56     9      180.000000       -0.014273         4
        23        22        27        30     9        0.000000        0.164832         1
        23        22        27        30     9      180.000000        0.500531         2
        23        22        27        30     9        0.000000        0.510410         3
        23        22        27        30     9      180.000000       -0.057517         4
        23        22        27        33     9        0.000000        2.456551         1
        23        22        27        33     9      180.000000        0.465988         2
        23        22        27        33     9        0.000000        0.589565         3
        23        22        27        33     9      180.000000       -0.232768         4
        23        22        27        54     9        0.000000        0.164833         1
        23        22        27        54     9      180.000000        0.500532         2
        23        22        27        54     9        0.000000        0.510410         3
        23        22        27        54     9      180.000000       -0.057517         4
        24        19        47        38     9        0.000000       -0.205612         1
        24        19        47        38     9      180.000000       19.123311         2
        24        19        47        38     9        0.000000       -1.453324         3
        24        19        47        38     9      180.000000       -0.401233         4
        24        19        47        48     9        0.000000       -0.009058         1
        24        19        47        48     9      180.000000       14.469316         2
        24        19        47        48     9        0.000000       -0.494860         3
        24        19        47        48     9      180.000000        0.044016         4
        24        28        34        35     9        0.000000        0.079110         1
        24        28        34        35     9      180.000000       12.428293         2
        24        28        34        35     9        0.000000       -0.413714         3
        24        28        34        35     9      180.000000        0.183917         4
        24        28        34        38     9        0.000000       -0.218749         1
        24        28        34        38     9      180.000000       17.337808         2
        24        28        34        38     9        0.000000       -1.203634         3
        24        28        34        38     9      180.000000       -0.413087         4
        25        24        19        47     9        0.000000       -0.009057         1
        25        24        19        47     9      180.000000       14.469320         2
        25        24        19        47     9        0.000000       -0.494861         3
        25        24        19        47     9      180.000000        0.044015         4
        25        24        28        29     9        0.000000        0.255465         1
        25        24        28        29     9      180.000000       15.933598         2
        25        24        28        29     9        0.000000        0.317179         3
        25        24        28        29     9      180.000000        0.158737         4
        25        24        28        34     9        0.000000        0.177245         1
        25        24        28        34     9      180.000000       12.878740         2
        25        24        28        34     9        0.000000       -0.471654         3
        25        24        28        34     9      180.000000        0.154552         4
        26        22        27        30     9        0.000000        0.164832         1
        26        22        27        30     9      180.000000        0.500531         2
        26        22        27        30     9        0.000000        0.510410         3
        26        22        27        30     9      180.000000       -0.057517         4
        26        22        27        33     9        0.000000        2.456551         1
        26        22        27        33     9      180.000000        0.465988         2
        26        22        27        33     9        0.000000        0.589565         3
        26        22        27        33     9      180.000000       -0.232768         4
        26        22        27        54     9        0.000000        0.164833         1
        26        22        27        54     9      180.000000        0.500532         2
        26        22        27        54     9        0.000000        0.510410         3
        26        22        27        54     9      180.000000       -0.057517         4
        27        30        36        40     9        0.000000       -0.130424         1
        27        30        36        40     9      180.000000        0.051613         2
        27        30        36        40     9        0.000000        0.270627         3
        27        30        36        40     9      180.000000       -0.016929         4
        27        30        36        41     9        0.000000       -0.130424         1
        27        30        36        41     9      180.000000        0.051613         2
        27        30        36        41     9        0.000000        0.270627         3
        27        30        36        41     9      180.000000       -0.016929         4
        27        30        36        43     9        0.000000        1.855822         1
        27        30        36        43     9      180.000000       -1.859692         2
        27        30        36        43     9        0.000000        0.402254         3
        27        30        36        43     9      180.000000       -0.017079         4
        27        33        37        42     9        0.000000       -0.040514         1
        27        33        37        42     9      180.000000       12.160026         2
        27        33        37        42     9        0.000000       -0.137436         3
        27        33        37        42     9      180.000000        0.056917         4
        27        33        37        46     9        0.000000        0.448878         1
        27        33        37        46     9      180.000000       13.772495         2
        27        33        37        46     9        0.000000        0.094691         3
        27        33        37        46     9      180.000000       -0.230814         4
        27        33        59        57     9        0.000000        0.318514         1
        27        33        59        57     9      180.000000       14.287880         2
        27        33        59        57     9        0.000000        0.038552         3
        27        33        59        57     9      180.000000       -0.203704         4
        27        33        59        60     9        0.000000       -0.039429         1
        27        33        59        60     9      180.000000       12.398892         2
        27        33        59        60     9        0.000000       -0.151741         3
        27        33        59        60     9      180.000000        0.076174         4
        27        54        49        43     9        0.000000        1.855823         1
        27        54        49        43     9      180.000000       -1.859692         2
        27        54        49        43     9        0.000000        0.402254         3
        27        54        49        43     9      180.000000       -0.017080         4
        27        54        49        50     9        0.000000       -0.130423         1
        27        54        49        50     9      180.000000        0.051612         2
        27        54        49        50     9        0.000000        0.270627         3
        27        54        49        50     9      180.000000       -0.016928         4
        27        54        49        51     9        0.000000       -0.130423         1
        27        54        49        51     9      180.000000        0.051612         2
        27        54        49        51     9        0.000000        0.270627         3
        27        54        49        51     9      180.000000       -0.016928         4
        28        24        19        47     9        0.000000       -0.205612         1
        28        24        19        47     9      180.000000       19.123311         2
        28        24        19        47     9        0.000000       -1.453325         3
        28        24        19        47     9      180.000000       -0.401234         4
        28        34        38        39     9        0.000000        0.328224         1
        28        34        38        39     9      180.000000       23.258511         2
        28        34        38        39     9        0.000000        0.635698         3
        28        34        38        39     9      180.000000       -0.760693         4
        28        34        38        47     9        0.000000       -0.218749         1
        28        34        38        47     9      180.000000       17.337808         2
        28        34        38        47     9        0.000000       -1.203634         3
        28        34        38        47     9      180.000000       -0.413087         4
        29        28        34        35     9        0.000000        0.288913         1
        29        28        34        35     9      180.000000       15.093259         2
        29        28        34        35     9        0.000000        0.262813         3
        29        28        34        35     9      180.000000        0.238074         4
        29        28        34        38     9        0.000000        0.328225         1
        29        28        34        38     9      180.000000       23.258511         2
        29        28        34        38     9        0.000000        0.635697         3
        29        28        34        38     9      180.000000       -0.760693         4
        30        27        33        37     9        0.000000       -0.305652         1
        30        27        33        37     9      180.000000        0.374901         2
        30        27        33        37     9        0.000000        0.191271         3
        30        27        33        37     9      180.000000        0.105218         4
        30        27        33        59     9        0.000000       -0.141442         1
        30        27        33        59     9      180.000000        0.147465         2
        30        27        33        59     9        0.000000        0.239853         3
        30        27        33        59     9      180.000000        0.107722         4
        30        27        54        49     9        0.000000        3.734726         1
        30        27        54        49     9      180.000000       -1.537916         2
        30        27        54        49     9        0.000000       -0.016027         3
        30        27        54        49     9      180.000000       -0.066858         4
        30        27        54        55     9        0.000000       -0.083609         1
        30        27        54        55     9      180.000000        0.050295         2
        30        27        54        55     9        0.000000        0.229763         3
        30        27        54        55     9      180.000000        0.021096         4
        30        27        54        56     9        0.000000       -0.083609         1
        30        27        54        56     9      180.000000        0.050295         2
        30        27        54        56     9        0.000000        0.229763         3
        30        27        54        56     9      180.000000        0.021096         4
        30        36        43        44     9        0.000000       -0.033842         1
        30        36        43        44     9      180.000000        0.030998         2
        30        36        43        44     9        0.000000        0.301563         3
        30        36        43        44     9      180.000000       -0.003347         4
        30        36        43        45     9        0.000000       -0.033842         1
        30        36        43        45     9      180.000000        0.030998         2
        30        36        43        45     9        0.000000        0.301563         3
        30        36        43        45     9      180.000000       -0.003347         4
        30        36        43        49     9        0.000000        0.092860         1
        30        36        43        49     9      180.000000       -0.442578         2
        30        36        43        49     9        0.000000        0.283583         3
        30        36        43        49     9      180.000000       -0.020985         4
        31        30        27        33     9        0.000000       -0.013656         1
        31        30        27        33     9      180.000000       -0.025385         2
        31        30        27        33     9        0.000000        0.588674         3
        31        30        27        33     9      180.000000       -0.018459         4
        31        30        27        54     9        0.000000       -0.083608         1
        31        30        27        54     9      180.000000        0.050296         2
        31        30        27        54     9        0.000000        0.229763         3
        31        30        27        54     9      180.000000        0.021096         4
        31        30        36        40     9        0.000000       -0.004378         1
        31        30        36        40     9      180.000000        0.026663         2
        31        30        36        40     9        0.000000        0.377130         3
        31        30        36        40     9      180.000000        0.032123         4
        31        30        36        41     9        0.000000       -0.004378         1
        31        30        36        41     9      180.000000        0.026663         2
        31        30        36        41     9        0.000000        0.377130         3
        31        30        36        41     9      180.000000        0.032123         4
        31        30        36        43     9        0.000000       -0.103203         1
        31        30        36        43     9      180.000000        0.082668         2
        31        30        36        43     9        0.000000        0.373796         3
        31        30        36        43     9      180.000000        0.018453         4
        32        30        27        33     9        0.000000       -0.013656         1
        32        30        27        33     9      180.000000       -0.025385         2
        32        30        27        33     9        0.000000        0.588674         3
        32        30        27        33     9      180.000000       -0.018459         4
        32        30        27        54     9        0.000000       -0.083608         1
        32        30        27        54     9      180.000000        0.050296         2
        32        30        27        54     9        0.000000        0.229763         3
        32        30        27        54     9      180.000000        0.021096         4
        32        30        36        40     9        0.000000       -0.004378         1
        32        30        36        40     9      180.000000        0.026663         2
        32        30        36        40     9        0.000000        0.377130         3
        32        30        36        40     9      180.000000        0.032123         4
        32        30        36        41     9        0.000000       -0.004378         1
        32        30        36        41     9      180.000000        0.026663         2
        32        30        36        41     9        0.000000        0.377130         3
        32        30        36        41     9      180.000000        0.032123         4
        32        30        36        43     9        0.000000       -0.103203         1
        32        30        36        43     9      180.000000        0.082668         2
        32        30        36        43     9        0.000000        0.373796         3
        32        30        36        43     9      180.000000        0.018453         4
        33        27        30        36     9        0.000000       -0.688151         1
        33        27        30        36     9      180.000000        0.071087         2
        33        27        30        36     9        0.000000        0.542743         3
        33        27        30        36     9      180.000000        0.064066         4
        33        27        54        49     9        0.000000       -0.688152         1
        33        27        54        49     9      180.000000        0.071087         2
        33        27        54        49     9        0.000000        0.542743         3
        33        27        54        49     9      180.000000        0.064066         4
        33        27        54        55     9        0.000000       -0.013656         1
        33        27        54        55     9      180.000000       -0.025385         2
        33        27        54        55     9        0.000000        0.588674         3
        33        27        54        55     9      180.000000       -0.018459         4
        33        27        54        56     9        0.000000       -0.013656         1
        33        27        54        56     9      180.000000       -0.025385         2
        33        27        54        56     9        0.000000        0.588674         3
        33        27        54        56     9      180.000000       -0.018459         4
        33        37        46        52     9        0.000000        0.095688         1
        33        37        46        52     9      180.000000       16.908583         2
        33        37        46        52     9        0.000000       -1.100272         3
        33        37        46        52     9      180.000000       -0.431469         4
        33        37        46        63     9        0.000000        0.054148         1
        33        37        46        63     9      180.000000       16.534150         2
        33        37        46        63     9        0.000000        0.138583         3
        33        37        46        63     9      180.000000       -0.260666         4
        33        59        57        52     9        0.000000        0.137760         1
        33        59        57        52     9      180.000000       18.646323         2
        33        59        57        52     9        0.000000       -1.760124         3
        33        59        57        52     9      180.000000       -0.442981         4
        33        59        57        58     9        0.000000        0.013874         1
        33        59        57        58     9      180.000000       15.086819         2
        33        59        57        58     9        0.000000       -0.620527         3
        33        59        57        58     9      180.000000        0.057051         4
        34        38        47        48     9        0.000000        0.177244         1
        34        38        47        48     9      180.000000       12.878742         2
        34        38        47        48     9        0.000000       -0.471655         3
        34        38        47        48     9      180.000000        0.154551         4
        35        34        38        39     9        0.000000        0.288913         1
        35        34        38        39     9      180.000000       15.093259         2
        35        34        38        39     9        0.000000        0.262813         3
        35        34        38        39     9      180.000000        0.238074         4
        35        34        38        47     9        0.000000        0.079111         1
        35        34        38        47     9      180.000000       12.428294         2
        35        34        38        47     9        0.000000       -0.413714         3
        35        34        38        47     9      180.000000        0.183917         4
        36        30        27        54     9        0.000000        3.734726         1
        36        30        27        54     9      180.000000       -1.537916         2
        36        30        27        54     9        0.000000       -0.016026         3
        36        30        27        54     9      180.000000       -0.066857         4
        36        43        49        50     9        0.000000       -0.039274         1
        36        43        49        50     9      180.000000        0.033389         2
        36        43        49        50     9        0.000000        0.272808         3
        36        43        49        50     9      180.000000       -0.003579         4
        36        43        49        51     9        0.000000       -0.039274         1
        36        43        49        51     9      180.000000        0.033389         2
        36        43        49        51     9        0.000000        0.272808         3
        36        43        49        51     9      180.000000       -0.003579         4
        36        43        49        54     9        0.000000        0.092861         1
        36        43        49        54     9      180.000000       -0.442578         2
        36        43        49        54     9        0.000000        0.283583         3
        36        43        49        54     9      180.000000       -0.020985         4
        37        33        27        54     9        0.000000       -0.305651         1
        37        33        27        54     9      180.000000        0.374901         2
        37        33        27        54     9        0.000000        0.191272         3
        37        33        27        54     9      180.000000        0.105218         4
        37        33        59        57     9        0.000000       -0.125850         1
        37        33        59        57     9      180.000000       19.171474         2
        37        33        59        57     9        0.000000       -1.692486         3
        37        33        59        57     9      180.000000       -0.400642         4
        37        33        59        60     9        0.000000        0.110695         1
        37        33        59        60     9      180.000000       15.107393         2
        37        33        59        60     9        0.000000       -0.672000         3
        37        33        59        60     9      180.000000       -0.034137         4
        37        46        52        53     9        0.000000        0.053545         1
        37        46        52        53     9      180.000000       13.374576         2
        37        46        52        53     9        0.000000       -0.418315         3
        37        46        52        53     9      180.000000        0.138801         4
        37        46        52        57     9        0.000000        0.033572         1
        37        46        52        57     9      180.000000       17.090216         2
        37        46        52        57     9        0.000000       -0.976949         3
        37        46        52        57     9      180.000000       -0.172743         4
        37        46        63        62     9        0.000000       -0.063030         1
        37        46        63        62     9      180.000000        5.173167         2
        37        46        63        62     9        0.000000        0.273454         3
        37        46        63        62     9      180.000000        0.987183         4
        37        46        63        64     9        0.000000       -0.793342         1
        37        46        63        64     9      180.000000        4.169122         2
        37        46        63        64     9        0.000000       -0.279660         3
        37        46        63        64     9      180.000000        0.921967         4
        39        38        47        48     9        0.000000        0.255466         1
        39        38        47        48     9      180.000000       15.933598         2
        39        38        47        48     9        0.000000        0.317179         3
        39        38        47        48     9      180.000000        0.158738         4
        40        36        43        44     9        0.000000       -0.011324         1
        40        36        43        44     9      180.000000        0.007821         2
        40        36        43        44     9        0.000000        0.325915         3
        40        36        43        44     9      180.000000        0.007339         4
        40        36        43        45     9        0.000000       -0.011324         1
        40        36        43        45     9      180.000000        0.007821         2
        40        36        43        45     9        0.000000        0.325915         3
        40        36        43        45     9      180.000000        0.007339         4
        40        36        43        49     9        0.000000       -0.039273         1
        40        36        43        49     9      180.000000        0.033390         2
        40        36        43        49     9        0.000000        0.272808         3
        40        36        43        49     9      180.000000       -0.003579         4
        41        36        43        44     9        0.000000       -0.011324         1
        41        36        43        44     9      180.000000        0.007821         2
        41        36        43        44     9        0.000000        0.325915         3
        41        36        43        44     9      180.000000        0.007339         4
        41        36        43        45     9        0.000000       -0.011324         1
        41        36        43        45     9      180.000000        0.007821         2
        41        36        43        45     9        0.000000        0.325915         3
        41        36        43        45     9      180.000000        0.007339         4
        41        36        43        49     9        0.000000       -0.039273         1
        41        36        43        49     9      180.000000        0.033390         2
        41        36        43        49     9        0.000000        0.272808         3
        41        36        43        49     9      180.000000       -0.003579         4
        42        37        33        59     9        0.000000        0.048338         1
        42        37        33        59     9      180.000000       13.786786         2
        42        37        33        59     9        0.000000       -0.649711         3
        42        37        33        59     9      180.000000        0.067688         4
        42        37        46        52     9        0.000000        0.061925         1
        42        37        46        52     9      180.000000       13.031470         2
        42        37        46        52     9        0.000000       -0.506656         3
        42        37        46        52     9      180.000000        0.197297         4
        42        37        46        63     9        0.000000       -0.250759         1
        42        37        46        63     9      180.000000       13.510519         2
        42        37        46        63     9        0.000000       -0.121184         3
        42        37        46        63     9      180.000000        0.237656         4
        43        49        54        55     9        0.000000       -0.103203         1
        43        49        54        55     9      180.000000        0.082669         2
        43        49        54        55     9        0.000000        0.373796         3
        43        49        54        55     9      180.000000        0.018454         4
        43        49        54        56     9        0.000000       -0.103203         1
        43        49        54        56     9      180.000000        0.082669         2
        43        49        54        56     9        0.000000        0.373796         3
        43        49        54        56     9      180.000000        0.018454         4
        44        43        49        50     9        0.000000       -0.011326         1
        44        43        49        50     9      180.000000        0.007821         2
        44        43        49        50     9        0.000000        0.325915         3
        44        43        49        50     9      180.000000        0.007339         4
        44        43        49        51     9        0.000000       -0.011326         1
        44        43        49        51     9      180.000000        0.007821         2
        44        43        49        51     9        0.000000        0.325915         3
        44        43        49        51     9      180.000000        0.007339         4
        44        43        49        54     9        0.000000       -0.033843         1
        44        43        49        54     9      180.000000        0.030999         2
        44        43        49        54     9        0.000000        0.301563         3
        44        43        49        54     9      180.000000       -0.003346         4
        45        43        49        50     9        0.000000       -0.011326         1
        45        43        49        50     9      180.000000        0.007821         2
        45        43        49        50     9        0.000000        0.325915         3
        45        43        49        50     9      180.000000        0.007339         4
        45        43        49        51     9        0.000000       -0.011326         1
        45        43        49        51     9      180.000000        0.007821         2
        45        43        49        51     9        0.000000        0.325915         3
        45        43        49        51     9      180.000000        0.007339         4
        45        43        49        54     9        0.000000       -0.033843         1
        45        43        49        54     9      180.000000        0.030999         2
        45        43        49        54     9        0.000000        0.301563         3
        45        43        49        54     9      180.000000       -0.003346         4
        46        37        33        59     9        0.000000       -0.012491         1
        46        37        33        59     9      180.000000       17.815104         2
        46        37        33        59     9        0.000000       -1.501919         3
        46        37        33        59     9      180.000000       -0.391839         4
        46        52        57        58     9        0.000000        0.050003         1
        46        52        57        58     9      180.000000       14.383944         2
        46        52        57        58     9        0.000000       -0.627771         3
        46        52        57        58     9      180.000000        0.091086         4
        46        52        57        59     9        0.000000       -0.086967         1
        46        52        57        59     9      180.000000       18.259225         2
        46        52        57        59     9        0.000000       -1.526076         3
        46        52        57        59     9      180.000000       -0.413211         4
        46        63        62        61     9        0.000000       -1.631546         1
        46        63        62        61     9      180.000000        0.044929         2
        46        63        62        61     9        0.000000        0.456634         3
        46        63        62        61     9      180.000000        0.072363         4
        46        63        62        69     9        0.000000        0.212668         1
        46        63        62        69     9      180.000000        0.058960         2
        46        63        62        69     9        0.000000        0.537244         3
        46        63        62        69     9      180.000000       -0.095105         4
        46        63        62        70     9        0.000000        0.212668         1
        46        63        62        70     9      180.000000        0.058960         2
        46        63        62        70     9        0.000000        0.537244         3
        46        63        62        70     9      180.000000       -0.095105         4
        46        63        64        65     9        0.000000        1.445571         1
        46        63        64        65     9      180.000000        8.711517         2
        46        63        64        65     9        0.000000        0.347703         3
        46        63        64        65     9      180.000000       -0.332694         4
        46        63        64        75     9        0.000000       -1.584779         1
        46        63        64        75     9      180.000000       11.774679         2
        46        63        64        75     9        0.000000       -1.339876         3
        46        63        64        75     9      180.000000       -0.213466         4
        50        49        54        55     9        0.000000       -0.004378         1
        50        49        54        55     9      180.000000        0.026665         2
        50        49        54        55     9        0.000000        0.377130         3
        50        49        54        55     9      180.000000        0.032123         4
        50        49        54        56     9        0.000000       -0.004378         1
        50        49        54        56     9      180.000000        0.026665         2
        50        49        54        56     9        0.000000        0.377130         3
        50        49        54        56     9      180.000000        0.032123         4
        51        49        54        55     9        0.000000       -0.004378         1
        51        49        54        55     9      180.000000        0.026665         2
        51        49        54        55     9        0.000000        0.377130         3
        51        49        54        55     9      180.000000        0.032123         4
        51        49        54        56     9        0.000000       -0.004378         1
        51        49        54        56     9      180.000000        0.026665         2
        51        49        54        56     9        0.000000        0.377130         3
        51        49        54        56     9      180.000000        0.032123         4
        52        46        63        62     9        0.000000        0.227189         1
        52        46        63        62     9      180.000000        4.864633         2
        52        46        63        62     9        0.000000        0.440076         3
        52        46        63        62     9      180.000000        0.971687         4
        52        46        63        64     9        0.000000       -0.156471         1
        52        46        63        64     9      180.000000        3.750218         2
        52        46        63        64     9        0.000000       -0.243072         3
        52        46        63        64     9      180.000000        0.892879         4
        52        57        59        60     9        0.000000        0.135694         1
        52        57        59        60     9      180.000000       15.162632         2
        52        57        59        60     9        0.000000       -0.679919         3
        52        57        59        60     9      180.000000        0.042120         4
        53        52        46        63     9        0.000000       -0.096239         1
        53        52        46        63     9      180.000000       13.524738         2
        53        52        46        63     9        0.000000       -0.072074         3
        53        52        46        63     9      180.000000        0.225520         4
        53        52        57        58     9        0.000000       -0.143181         1
        53        52        57        58     9      180.000000       12.064279         2
        53        52        57        58     9        0.000000       -0.694022         3
        53        52        57        58     9      180.000000        0.246217         4
        53        52        57        59     9        0.000000        0.090407         1
        53        52        57        59     9      180.000000       14.523436         2
        53        52        57        59     9        0.000000       -0.683865         3
        53        52        57        59     9      180.000000        0.091615         4
        54        27        33        59     9        0.000000       -0.141442         1
        54        27        33        59     9      180.000000        0.147466         2
        54        27        33        59     9        0.000000        0.239853         3
        54        27        33        59     9      180.000000        0.107722         4
        57        52        46        63     9        0.000000        0.262479         1
        57        52        46        63     9      180.000000       17.280958         2
        57        52        46        63     9        0.000000        0.198425         3
        57        52        46        63     9      180.000000       -0.200861         4
        58        57        59        60     9        0.000000       -0.196205         1
        58        57        59        60     9      180.000000       11.779412         2
        58        57        59        60     9        0.000000       -0.672187         3
        58        57        59        60     9      180.000000        0.255452         4
        61        62        63        64     9        0.000000        3.445228         1
        61        62        63        64     9      180.000000       -1.837067         2
        61        62        63        64     9        0.000000       -0.256155         3
        61        62        63        64     9      180.000000        0.682080         4
        61        66        65        64     9        0.000000        0.916421         1
        61        66        65        64     9      180.000000       -1.765965         2
        61        66        65        64     9        0.000000        0.144765         3
        61        66        65        64     9      180.000000        0.091437         4
        61        66        65        71     9        0.000000       -0.072540         1
        61        66        65        71     9      180.000000        0.036879         2
        61        66        65        71     9        0.000000        0.248977         3
        61        66        65        71     9      180.000000        0.014896         4
        61        66        65        72     9        0.000000       -0.072540         1
        61        66        65        72     9      180.000000        0.036879         2
        61        66        65        72     9        0.000000        0.248977         3
        61        66        65        72     9      180.000000        0.014896         4
        62        61        66        65     9        0.000000       -0.366612         1
        62        61        66        65     9      180.000000        0.085854         2
        62        61        66        65     9        0.000000       -0.267620         3
        62        61        66        65     9      180.000000        0.583299         4
        62        61        66        73     9        0.000000       -0.017262         1
        62        61        66        73     9      180.000000        0.020767         2
        62        61        66        73     9        0.000000        0.049710         3
        62        61        66        73     9      180.000000        0.059435         4
        62        61        66        74     9        0.000000       -0.017262         1
        62        61        66        74     9      180.000000        0.020767         2
        62        61        66        74     9        0.000000        0.049710         3
        62        61        66        74     9      180.000000        0.059435         4
        62        63        64        65     9        0.000000        4.584750         1
        62        63        64        65     9      180.000000        4.226301         2
        62        63        64        65     9        0.000000       -0.220659         3
        62        63        64        65     9      180.000000        0.341185         4
        62        63        64        75     9        0.000000        1.724954         1
        62        63        64        75     9      180.000000       13.908844         2
        62        63        64        75     9        0.000000       -0.960210         3
        62        63        64        75     9      180.000000       -0.484993         4
        63        62        61        66     9        0.000000        0.655277         1
        63        62        61        66     9      180.000000       -0.965031         2
        63        62        61        66     9        0.000000        0.242421         3
        63        62        61        66     9      180.000000        0.042291         4
        63        62        61        67     9        0.000000       -0.094364         1
        63        62        61        67     9      180.000000        0.054781         2
        63        62        61        67     9        0.000000        0.159678         3
        63        62        61        67     9      180.000000       -0.014287         4
        63        62        61        68     9        0.000000       -0.094364         1
        63        62        61        68     9      180.000000        0.054781         2
        63        62        61        68     9        0.000000        0.159678         3
        63        62        61        68     9      180.000000       -0.014287         4
        63        64        65        66     9        0.000000        2.644594         1
        63        64        65        66     9      180.000000       -1.466338         2
        63        64        65        66     9        0.000000       -0.710227         3
        63        64        65        66     9      180.000000        0.848535         4
        63        64        65        71     9        0.000000       -0.130262         1
        63        64        65        71     9      180.000000        0.004497         2
        63        64        65        71     9        0.000000       -0.429381         3
        63        64        65        71     9      180.000000       -0.022137         4
        63        64        65        72     9        0.000000       -0.130262         1
        63        64        65        72     9      180.000000        0.004497         2
        63        64        65        72     9        0.000000       -0.429381         3
        63        64        65        72     9      180.000000       -0.022137         4
        64        63        62        69     9        0.000000       -0.000612         1
        64        63        62        69     9      180.000000        0.062314         2
        64        63        62        69     9        0.000000       -0.128129         3
        64        63        62        69     9      180.000000        0.014265         4
        64        63        62        70     9        0.000000       -0.000612         1
        64        63        62        70     9      180.000000        0.062314         2
        64        63        62        70     9        0.000000       -0.128129         3
        64        63        62        70     9      180.000000        0.014265         4
        64        65        66        73     9        0.000000       -0.004068         1
        64        65        66        73     9      180.000000        0.059006         2
        64        65        66        73     9        0.000000        0.192343         3
        64        65        66        73     9      180.000000       -0.005141         4
        64        65        66        74     9        0.000000       -0.004068         1
        64        65        66        74     9      180.000000        0.059006         2
        64        65        66        74     9        0.000000        0.192343         3
        64        65        66        74     9      180.000000       -0.005141         4
        65        66        61        67     9        0.000000       -0.015055         1
        65        66        61        67     9      180.000000        0.001098         2
        65        66        61        67     9        0.000000        0.027970         3
        65        66        61        67     9      180.000000        0.054328         4
        65        66        61        68     9        0.000000       -0.015055         1
        65        66        61        68     9      180.000000        0.001098         2
        65        66        61        68     9        0.000000        0.027970         3
        65        66        61        68     9      180.000000        0.054328         4
        66        61        62        69     9        0.000000       -0.071792         1
        66        61        62        69     9      180.000000        0.034209         2
        66        61        62        69     9        0.000000        0.258560         3
        66        61        62        69     9      180.000000        0.015612         4
        66        61        62        70     9        0.000000       -0.071792         1
        66        61        62        70     9      180.000000        0.034209         2
        66        61        62        70     9        0.000000        0.258560         3
        66        61        62        70     9      180.000000        0.015612         4
        66        65        64        75     9        0.000000        1.115515         1
        66        65        64        75     9      180.000000        0.344000         2
        66        65        64        75     9        0.000000       -0.850944         3
        66        65        64        75     9      180.000000        0.277816         4
        67        61        62        69     9        0.000000        0.004552         1
        67        61        62        69     9      180.000000       -0.020717         2
        67        61        62        69     9        0.000000        0.291195         3
        67        61        62        69     9      180.000000       -0.005054         4
        67        61        62        70     9        0.000000        0.004552         1
        67        61        62        70     9      180.000000       -0.020717         2
        67        61        62        70     9        0.000000        0.291195         3
        67        61        62        70     9      180.000000       -0.005054         4
        67        61        66        73     9        0.000000        0.037785         1
        67        61        66        73     9      180.000000        0.002543         2
        67        61        66        73     9        0.000000        0.163003         3
        67        61        66        73     9      180.000000        0.011776         4
        67        61        66        74     9        0.000000        0.037785         1
        67        61        66        74     9      180.000000        0.002543         2
        67        61        66        74     9        0.000000        0.163003         3
        67        61        66        74     9      180.000000        0.011776         4
        68        61        62        69     9        0.000000        0.004552         1
        68        61        62        69     9      180.000000       -0.020717         2
        68        61        62        69     9        0.000000        0.291195         3
        68        61        62        69     9      180.000000       -0.005054         4
        68        61        62        70     9        0.000000        0.004552         1
        68        61        62        70     9      180.000000       -0.020717         2
        68        61        62        70     9        0.000000        0.291195         3
        68        61        62        70     9      180.000000       -0.005054         4
        68        61        66        73     9        0.000000        0.037785         1
        68        61        66        73     9      180.000000        0.002543         2
        68        61        66        73     9        0.000000        0.163003         3
        68        61        66        73     9      180.000000        0.011776         4
        68        61        66        74     9        0.000000        0.037785         1
        68        61        66        74     9      180.000000        0.002543         2
        68        61        66        74     9        0.000000        0.163003         3
        68        61        66        74     9      180.000000        0.011776         4
        71        65        64        75     9        0.000000        0.056353         1
        71        65        64        75     9      180.000000        0.046934         2
        71        65        64        75     9        0.000000       -0.545788         3
        71        65        64        75     9      180.000000       -0.042616         4
        71        65        66        73     9        0.000000        0.007038         1
        71        65        66        73     9      180.000000       -0.013237         2
        71        65        66        73     9        0.000000        0.276433         3
        71        65        66        73     9      180.000000       -0.005151         4
        71        65        66        74     9        0.000000        0.007038         1
        71        65        66        74     9      180.000000       -0.013237         2
        71        65        66        74     9        0.000000        0.276433         3
        71        65        66        74     9      180.000000       -0.005151         4
        72        65        64        75     9        0.000000        0.056353         1
        72        65        64        75     9      180.000000        0.046934         2
        72        65        64        75     9        0.000000       -0.545788         3
        72        65        64        75     9      180.000000       -0.042616         4
        72        65        66        73     9        0.000000        0.007038         1
        72        65        66        73     9      180.000000       -0.013237         2
        72        65        66        73     9        0.000000        0.276433         3
        72        65        66        73     9      180.000000       -0.005151         4
        72        65        66        74     9        0.000000        0.007038         1
        72        65        66        74     9      180.000000       -0.013237         2
        72        65        66        74     9        0.000000        0.276433         3
        72        65        66        74     9      180.000000       -0.005151         4

[ dihedrals ] ; impropers
;       ai        aj        ak        al funct           phase               k        pn
         5         1         6         7     4      180.000000       27.893333         2
         5         6         7         1     4      180.000000       27.893333         2
         5         7         1         6     4      180.000000       27.893333         2
        28        24        29        34     4      180.000000        2.499926         2
        28        29        34        24     4      180.000000        2.499926         2
        28        34        24        29     4      180.000000        2.499926         2
        38        34        39        47     4      180.000000        2.499923         2
        38        39        47        34     4      180.000000        2.499923         2
        38        47        34        39     4      180.000000        2.499923         2
        64        63        65        75     4      180.000000       19.544702         2
        64        65        75        63     4      180.000000       19.544702         2
        64        75        63        65     4      180.000000       19.544702         2

[ pairs ]
;       ai        aj funct
         1         8     1
         1         9     1
         2         6     1
         2         7     1
         3         6     1
         3         7     1
         4         6     1
         4         7     1
         5        10     1
         5        11     1
         5        13     1
         6         8     1
         6         9     1
         7        12     1
         7        14     1
         7        15     1
         7        16     1
         7        19     1
         7        20     1
         8        10     1
         8        11     1
         8        13     1
         9        17     1
         9        18     1
         9        21     1
         9        22     1
         9        24     1
         9        47     1
        10        12     1
        10        14     1
        10        15     1
        10        16     1
        10        19     1
        10        20     1
        11        14     1
        11        15     1
        11        19     1
        11        23     1
        11        26     1
        11        27     1
        12        13     1
        12        17     1
        12        18     1
        12        21     1
        12        22     1
        13        16     1
        13        20     1
        13        25     1
        13        28     1
        13        38     1
        13        48     1
        14        24     1
        14        47     1
        15        24     1
        15        47     1
        16        21     1
        16        30     1
        16        33     1
        16        54     1
        17        20     1
        17        23     1
        17        26     1
        17        27     1
        18        20     1
        18        23     1
        18        26     1
        18        27     1
        19        29     1
        19        34     1
        19        39     1
        20        22     1
        22        31     1
        22        32     1
        22        36     1
        22        37     1
        22        49     1
        22        55     1
        22        56     1
        22        59     1
        23        30     1
        23        33     1
        23        54     1
        24        35     1
        24        38     1
        24        48     1
        25        29     1
        25        34     1
        25        47     1
        26        30     1
        26        33     1
        26        54     1
        27        40     1
        27        41     1
        27        42     1
        27        43     1
        27        46     1
        27        50     1
        27        51     1
        27        57     1
        27        60     1
        28        39     1
        28        47     1
        29        35     1
        29        38     1
        30        37     1
        30        44     1
        30        45     1
        30        49     1
        30        55     1
        30        56     1
        30        59     1
        31        33     1
        31        40     1
        31        41     1
        31        43     1
        31        54     1
        32        33     1
        32        40     1
        32        41     1
        32        43     1
        32        54     1
        33        36     1
        33        49     1
        33        52     1
        33        55     1
        33        56     1
        33        58     1
        33        63     1
        34        48     1
        35        39     1
        35        47     1
        36        50     1
        36        51     1
        36        54     1
        37        53     1
        37        54     1
        37        57     1
        37        60     1
        37        62     1
        37        64     1
        39        48     1
        40        44     1
        40        45     1
        40        49     1
        41        44     1
        41        45     1
        41        49     1
        42        52     1
        42        59     1
        42        63     1
        43        55     1
        43        56     1
        44        50     1
        44        51     1
        44        54     1
        45        50     1
        45        51     1
        45        54     1
        46        58     1
        46        59     1
        46        61     1
        46        65     1
        46        69     1
        46        70     1
        46        75     1
        50        55     1
        50        56     1
        51        55     1
        51        56     1
        52        60     1
        52        62     1
        52        64     1
        53        58     1
        53        59     1
        53        63     1
        54        59     1
        57        63     1
        58        60     1
        61        64     1
        61        71     1
        61        72     1
        62        65     1
        62        73     1
        62        74     1
        62        75     1
        63        66     1
        63        67     1
        63        68     1
        63        71     1
        63        72     1
        64        69     1
        64        70     1
        64        73     1
        64        74     1
        65        67     1
        65        68     1
        66        69     1
        66        70     1
        66        75     1
        67        69     1
        67        70     1
        67        73     1
        67        74     1
        68        69     1
        68        70     1
        68        73     1
        68        74     1
        71        73     1
        71        74     1
        71        75     1
        72        73     1
        72        74     1
        72        75     1
