; ITP file created by ByteFF-ML, 2025-12-06 08:08:44.544161

[ atomtypes ]
;name           bonded.type        at.num        mass        charge   ptype           sigma         epsilon
 c0bf                                   6      0.0000       0.00000       A     3.39759e-01     4.49643e-01
 h1bf                                   1      0.0000       0.00000       A     2.60016e-01     8.70704e-02
 h2bf                                   1      0.0000       0.00000       A     2.60016e-01     8.70704e-02
 h3bf                                   1      0.0000       0.00000       A     2.60016e-01     8.70704e-02
 c4bf                                   6      0.0000       0.00000       A     3.31571e-01     4.14142e-01
 o5bf                                   8      0.0000       0.00000       A     3.04736e-01     6.12198e-01
 n6bf                                   7      0.0000       0.00000       A     3.26918e-01     4.88910e-01
 h7bf                                   1      0.0000       0.00000       A     1.10581e-01     4.00581e-02
 c8bf                                   6      0.0000       0.00000       A     3.40196e-01     4.52850e-01
 h9bf                                   1      0.0000       0.00000       A     2.42552e-01     8.80025e-02
 c10bf                                  6      0.0000       0.00000       A     3.39753e-01     4.51539e-01
 h11bf                                  1      0.0000       0.00000       A     2.42186e-01     8.70863e-02
 c12bf                                  6      0.0000       0.00000       A     3.39826e-01     4.49268e-01
 h13bf                                  1      0.0000       0.00000       A     2.60038e-01     8.81158e-02
 h14bf                                  1      0.0000       0.00000       A     2.60038e-01     8.81158e-02
 c15bf                                  6      0.0000       0.00000       A     3.39787e-01     4.50885e-01
 h16bf                                  1      0.0000       0.00000       A     1.87782e-01     8.61542e-02
 h17bf                                  1      0.0000       0.00000       A     1.87782e-01     8.61542e-02
 c18bf                                  6      0.0000       0.00000       A     3.31422e-01     4.12179e-01
 o19bf                                  8      0.0000       0.00000       A     3.24609e-01     3.92421e-01
 h20bf                                  1      0.0000       0.00000       A     5.35605e-02     1.98375e-02
 n21bf                                  7      0.0000       0.00000       A     2.67375e-01     7.04506e+00
 h22bf                                  1      0.0000       0.00000       A     1.10868e-01     4.18346e-02
 c23bf                                  6      0.0000       0.00000       A     3.31516e-01     4.12672e-01
 h24bf                                  1      0.0000       0.00000       A     2.62462e-01     6.71642e-02
 h25bf                                  1      0.0000       0.00000       A     1.10868e-01     4.18346e-02
 c26bf                                  6      0.0000       0.00000       A     3.40054e-01     4.49570e-01
 c27bf                                  6      0.0000       0.00000       A     3.31520e-01     4.13508e-01
 f28bf                                  9      0.0000       0.00000       A     3.03421e-01     3.47466e-01
 c29bf                                  6      0.0000       0.00000       A     3.39962e-01     4.51215e-01
 h30bf                                  1      0.0000       0.00000       A     2.59836e-01     8.67256e-02
 h31bf                                  1      0.0000       0.00000       A     2.59836e-01     8.67256e-02
 c32bf                                  6      0.0000       0.00000       A     3.31125e-01     4.13885e-01
 c33bf                                  6      0.0000       0.00000       A     3.31572e-01     4.12292e-01
 h34bf                                  1      0.0000       0.00000       A     2.62456e-01     6.72600e-02
 c35bf                                  6      0.0000       0.00000       A     3.39866e-01     4.50704e-01
 c36bf                                  6      0.0000       0.00000       A     3.31605e-01     4.16660e-01
 c37bf                                  6      0.0000       0.00000       A     3.31520e-01     4.13508e-01
 f38bf                                  9      0.0000       0.00000       A     3.03421e-01     3.47466e-01
 h39bf                                  1      0.0000       0.00000       A     2.60178e-01     8.66937e-02
 h40bf                                  1      0.0000       0.00000       A     2.60178e-01     8.66937e-02
 h41bf                                  1      0.0000       0.00000       A     2.62639e-01     6.76989e-02
 c42bf                                  6      0.0000       0.00000       A     3.39895e-01     4.51375e-01
 h43bf                                  1      0.0000       0.00000       A     2.59998e-01     8.72507e-02
 h44bf                                  1      0.0000       0.00000       A     2.59998e-01     8.72507e-02
 c45bf                                  6      0.0000       0.00000       A     3.31479e-01     4.13152e-01
 c46bf                                  6      0.0000       0.00000       A     3.31516e-01     4.12672e-01
 h47bf                                  1      0.0000       0.00000       A     2.62462e-01     6.71642e-02
 c48bf                                  6      0.0000       0.00000       A     3.39866e-01     4.50704e-01
 h49bf                                  1      0.0000       0.00000       A     2.60178e-01     8.66937e-02
 h50bf                                  1      0.0000       0.00000       A     2.60178e-01     8.66937e-02
 c51bf                                  6      0.0000       0.00000       A     3.31500e-01     4.12812e-01
 h52bf                                  1      0.0000       0.00000       A     2.62545e-01     6.75568e-02
 c53bf                                  6      0.0000       0.00000       A     3.39962e-01     4.51215e-01
 h54bf                                  1      0.0000       0.00000       A     2.59836e-01     8.67256e-02
 h55bf                                  1      0.0000       0.00000       A     2.59836e-01     8.67256e-02
 c56bf                                  6      0.0000       0.00000       A     3.31482e-01     4.13846e-01
 h57bf                                  1      0.0000       0.00000       A     2.62517e-01     6.73860e-02
 c58bf                                  6      0.0000       0.00000       A     3.31481e-01     4.12696e-01
 h59bf                                  1      0.0000       0.00000       A     2.62654e-01     6.75121e-02
 n60bf                                  7      0.0000       0.00000       A     3.18015e-01     6.87909e-01
 c61bf                                  6      0.0000       0.00000       A     3.39889e-01     4.51196e-01
 c62bf                                  6      0.0000       0.00000       A     3.39696e-01     4.52840e-01
 c63bf                                  6      0.0000       0.00000       A     3.39752e-01     4.52257e-01
 o64bf                                  8      0.0000       0.00000       A     3.15950e-01     3.01592e-01
 c65bf                                  6      0.0000       0.00000       A     3.39991e-01     4.52565e-01
 c66bf                                  6      0.0000       0.00000       A     3.31465e-01     4.10707e-01
 h67bf                                  1      0.0000       0.00000       A     2.42242e-01     8.81238e-02
 h68bf                                  1      0.0000       0.00000       A     2.42242e-01     8.81238e-02
 h69bf                                  1      0.0000       0.00000       A     2.60099e-01     8.79195e-02
 h70bf                                  1      0.0000       0.00000       A     2.60099e-01     8.79195e-02
 h71bf                                  1      0.0000       0.00000       A     2.41983e-01     8.64734e-02
 h72bf                                  1      0.0000       0.00000       A     2.41983e-01     8.64734e-02
 h73bf                                  1      0.0000       0.00000       A     2.42221e-01     8.77184e-02
 h74bf                                  1      0.0000       0.00000       A     2.42221e-01     8.77184e-02
 o75bf                                  8      0.0000       0.00000       A     3.04351e-01     6.19904e-01

[ moleculetype ]
;name             nrexcl
 42_0_ligand           3

[ atoms ]
;       nr            type      resi   res      atom      cgnr      charge          mass ; qtot
         1            c0bf         1   UNL        c0         1    -0.17635       12.0110 ; qtot   -0.176
         2            h1bf         1   UNL        h1         2     0.06225        1.0080 ; qtot   -0.114
         3            h2bf         1   UNL        h2         3     0.06225        1.0080 ; qtot   -0.052
         4            h3bf         1   UNL        h3         4     0.06225        1.0080 ; qtot    0.010
         5            c4bf         1   UNL        c4         5     0.60223       12.0110 ; qtot    0.613
         6            o5bf         1   UNL        o5         6    -0.61219       15.9990 ; qtot    0.000
         7            n6bf         1   UNL        n6         7    -0.51471       14.0070 ; qtot   -0.514
         8            h7bf         1   UNL        h7         8     0.32227        1.0080 ; qtot   -0.192
         9            c8bf         1   UNL        c8         9     0.10285       12.0110 ; qtot   -0.089
        10            h9bf         1   UNL        h9        10     0.08510        1.0080 ; qtot   -0.004
        11           c10bf         1   UNL       c10        11     0.15086       12.0110 ; qtot    0.147
        12           h11bf         1   UNL       h11        12     0.07889        1.0080 ; qtot    0.226
        13           c12bf         1   UNL       c12        13    -0.03751       12.0110 ; qtot    0.188
        14           h13bf         1   UNL       h13        14     0.06639        1.0080 ; qtot    0.255
        15           h14bf         1   UNL       h14        15     0.06639        1.0080 ; qtot    0.321
        16           c15bf         1   UNL       c15        16     0.11168       12.0110 ; qtot    0.433
        17           h16bf         1   UNL       h16        17     0.11120        1.0080 ; qtot    0.544
        18           h17bf         1   UNL       h17        18     0.11120        1.0080 ; qtot    0.655
        19           c18bf         1   UNL       c18        19    -0.03374       12.0110 ; qtot    0.621
        20           o19bf         1   UNL       o19        20    -0.69061       15.9990 ; qtot   -0.069
        21           h20bf         1   UNL       h20        21     0.49888        1.0080 ; qtot    0.430
        22           n21bf         1   UNL       n21        22    -0.82786       14.0070 ; qtot   -0.398
        23           h22bf         1   UNL       h22        23     0.51482        1.0080 ; qtot    0.117
        24           c23bf         1   UNL       c23        24    -0.15563       12.0110 ; qtot   -0.039
        25           h24bf         1   UNL       h24        25     0.13725        1.0080 ; qtot    0.098
        26           h25bf         1   UNL       h25        26     0.51482        1.0080 ; qtot    0.613
        27           c26bf         1   UNL       c26        27     0.21437       12.0110 ; qtot    0.827
        28           c27bf         1   UNL       c27        28     0.18913       12.0110 ; qtot    1.016
        29           f28bf         1   UNL       f28        29    -0.17421       18.9980 ; qtot    0.842
        30           c29bf         1   UNL       c29        30    -0.08790       12.0110 ; qtot    0.754
        31           h30bf         1   UNL       h30        31     0.07147        1.0080 ; qtot    0.826
        32           h31bf         1   UNL       h31        32     0.07147        1.0080 ; qtot    0.897
        33           c32bf         1   UNL       c32        33    -0.13958       12.0110 ; qtot    0.758
        34           c33bf         1   UNL       c33        34    -0.18801       12.0110 ; qtot    0.570
        35           h34bf         1   UNL       h34        35     0.15358        1.0080 ; qtot    0.723
        36           c35bf         1   UNL       c35        36    -0.07132       12.0110 ; qtot    0.652
        37           c36bf         1   UNL       c36        37    -0.08272       12.0110 ; qtot    0.569
        38           c37bf         1   UNL       c37        38     0.18913       12.0110 ; qtot    0.758
        39           f38bf         1   UNL       f38        39    -0.17421       18.9980 ; qtot    0.584
        40           h39bf         1   UNL       h39        40     0.05675        1.0080 ; qtot    0.641
        41           h40bf         1   UNL       h40        41     0.05675        1.0080 ; qtot    0.698
        42           h41bf         1   UNL       h41        42     0.13520        1.0080 ; qtot    0.833
        43           c42bf         1   UNL       c42        43    -0.08473       12.0110 ; qtot    0.748
        44           h43bf         1   UNL       h43        44     0.04473        1.0080 ; qtot    0.793
        45           h44bf         1   UNL       h44        45     0.04473        1.0080 ; qtot    0.838
        46           c45bf         1   UNL       c45        46    -0.01242       12.0110 ; qtot    0.825
        47           c46bf         1   UNL       c46        47    -0.15563       12.0110 ; qtot    0.670
        48           h47bf         1   UNL       h47        48     0.13725        1.0080 ; qtot    0.807
        49           c48bf         1   UNL       c48        49    -0.07132       12.0110 ; qtot    0.735
        50           h49bf         1   UNL       h49        50     0.05675        1.0080 ; qtot    0.792
        51           h50bf         1   UNL       h50        51     0.05675        1.0080 ; qtot    0.849
        52           c51bf         1   UNL       c51        52    -0.11128       12.0110 ; qtot    0.738
        53           h52bf         1   UNL       h52        53     0.12810        1.0080 ; qtot    0.866
        54           c53bf         1   UNL       c53        54    -0.08790       12.0110 ; qtot    0.778
        55           h54bf         1   UNL       h54        55     0.07147        1.0080 ; qtot    0.849
        56           h55bf         1   UNL       h55        56     0.07147        1.0080 ; qtot    0.921
        57           c56bf         1   UNL       c56        57    -0.06606       12.0110 ; qtot    0.855
        58           h57bf         1   UNL       h57        58     0.12661        1.0080 ; qtot    0.981
        59           c58bf         1   UNL       c58        59    -0.09643       12.0110 ; qtot    0.885
        60           h59bf         1   UNL       h59        60     0.12457        1.0080 ; qtot    1.010
        61           n60bf         1   UNL       n60        61    -0.24789       14.0070 ; qtot    0.762
        62           c61bf         1   UNL       c61        62     0.11228       12.0110 ; qtot    0.874
        63           c62bf         1   UNL       c62        63    -0.13040       12.0110 ; qtot    0.744
        64           c63bf         1   UNL       c63        64     0.15549       12.0110 ; qtot    0.899
        65           o64bf         1   UNL       o64        65    -0.45465       15.9990 ; qtot    0.444
        66           c65bf         1   UNL       c65        66     0.08167       12.0110 ; qtot    0.526
        67           c66bf         1   UNL       c66        67     0.52791       12.0110 ; qtot    1.054
        68           h67bf         1   UNL       h67        68     0.05815        1.0080 ; qtot    1.112
        69           h68bf         1   UNL       h68        69     0.05815        1.0080 ; qtot    1.170
        70           h69bf         1   UNL       h69        70     0.05870        1.0080 ; qtot    1.229
        71           h70bf         1   UNL       h70        71     0.05870        1.0080 ; qtot    1.288
        72           h71bf         1   UNL       h71        72     0.04934        1.0080 ; qtot    1.337
        73           h72bf         1   UNL       h72        73     0.04934        1.0080 ; qtot    1.386
        74           h73bf         1   UNL       h73        74     0.07391        1.0080 ; qtot    1.460
        75           h74bf         1   UNL       h74        75     0.07391        1.0080 ; qtot    1.534
        76           o75bf         1   UNL       o75        76    -0.53415       15.9990 ; qtot    1.000

[ bonds ]
;       ai        aj funct               r               k
         1         2     1        0.109281   307290.514209
         1         3     1        0.109281   307290.514209
         1         4     1        0.109281   307290.514209
         1         5     1        0.151969   180454.982788
         5         6     1        0.123279   600628.726562
         5         7     1        0.137142   287890.534033
         7         8     1        0.101116   421821.972656
         7         9     1        0.146373   194348.676978
         9        10     1        0.109305   304137.115332
         9        11     1        0.154875   156247.858838
         9        13     1        0.154784   160322.049268
        11        12     1        0.109730   293205.725830
        11        16     1        0.153379   175303.407251
        11        20     1        0.143114   199672.896143
        13        14     1        0.109359   298803.204834
        13        15     1        0.109359   298803.204834
        13        19     1        0.151125   199379.959961
        16        17     1        0.108996   313885.574854
        16        18     1        0.108996   313885.574854
        16        22     1        0.150836   148835.725610
        19        24     1        0.140252   293000.075488
        19        47     1        0.140252   293000.075488
        20        21     1        0.097256   464269.040820
        22        23     1        0.103134   365660.710645
        22        26     1        0.103134   365660.710645
        22        27     1        0.155945    72994.666931
        24        25     1        0.108529   322235.571191
        24        28     1        0.139078   310079.983740
        27        30     1        0.154390   161645.471655
        27        33     1        0.152394   169731.337671
        27        54     1        0.154390   161645.471655
        28        29     1        0.135546   290992.169189
        28        34     1        0.139189   307398.306348
        30        31     1        0.109416   298922.182227
        30        32     1        0.109416   298922.182227
        30        36     1        0.153944   176575.768188
        33        37     1        0.140299   287601.428418
        33        59     1        0.140350   284805.166016
        34        35     1        0.108371   329625.908496
        34        38     1        0.139189   307398.306348
        36        40     1        0.109449   298707.696045
        36        41     1        0.109449   298707.696045
        36        43     1        0.153880   182223.491455
        37        42     1        0.108384   323550.476953
        37        46     1        0.140092   289600.575488
        38        39     1        0.135546   290992.143652
        38        47     1        0.139078   310079.958203
        43        44     1        0.109565   295187.277832
        43        45     1        0.109565   295187.277832
        43        49     1        0.153880   182223.478687
        46        52     1        0.140127   291699.036377
        46        61     1        0.143065   218533.047363
        47        48     1        0.108529   322235.571191
        49        50     1        0.109449   298707.721582
        49        51     1        0.109449   298707.721582
        49        54     1        0.153944   176575.755420
        52        53     1        0.108365   325352.400928
        52        57     1        0.139558   319191.930811
        54        55     1        0.109416   298922.156689
        54        56     1        0.109416   298922.156689
        57        58     1        0.108564   321561.800098
        57        59     1        0.139659   314029.680762
        59        60     1        0.108541   320118.774658
        61        62     1        0.147435   184927.117993
        61        67     1        0.137928   259827.370410
        62        63     1        0.153286   184710.627148
        62        68     1        0.109251   300093.058691
        62        69     1        0.109251   300093.058691
        63        64     1        0.153439   181653.260571
        63        70     1        0.109512   296368.828809
        63        71     1        0.109512   296368.828809
        64        65     1        0.143099   196039.578369
        64        72     1        0.109611   291867.172705
        64        73     1        0.109611   291867.172705
        65        66     1        0.141998   208113.996118
        66        67     1        0.153476   163723.132568
        66        74     1        0.109436   297697.473535
        66        75     1        0.109436   297697.473535
        67        76     1        0.122977   602010.539551

[ angles ]
;       ai        aj        ak funct           theta             cth
         1         5         6     1      121.559692      494.520952
         1         5         7     1      115.538086      521.033387
         2         1         3     1      108.611633      361.230424
         2         1         4     1      108.611633      361.230424
         2         1         5     1      110.304222      512.627784
         3         1         4     1      108.611633      361.230424
         3         1         5     1      110.304222      512.627784
         4         1         5     1      110.304222      512.627784
         5         7         8     1      117.683533      451.298692
         5         7         9     1      122.640366      552.466696
         6         5         7     1      122.450035      640.179772
         7         9        10     1      106.497803      505.172480
         7         9        11     1      110.426743      532.987563
         7         9        13     1      111.197876      573.809846
         8         7         9     1      117.095421      413.878559
         9        11        12     1      108.341751      462.109572
         9        11        16     1      112.884842      561.501023
         9        11        20     1      111.191750      612.905117
         9        13        14     1      108.267471      482.646515
         9        13        15     1      108.267471      482.646515
         9        13        19     1      112.656578      534.840632
        10         9        11     1      107.271194      477.840367
        10         9        13     1      108.351517      455.059031
        11         9        13     1      113.293007      563.278533
        11        16        17     1      111.060204      456.883339
        11        16        18     1      111.060204      456.883339
        11        16        22     1      109.917152      636.085151
        11        20        21     1      110.000771      551.136340
        12        11        16     1      108.906960      478.214965
        12        11        20     1      109.651207      458.729161
        13        19        24     1      120.204666      490.498346
        13        19        47     1      120.204666      490.498346
        14        13        15     1      106.998825      359.051949
        14        13        19     1      109.898193      498.113257
        15        13        19     1      109.898193      498.113257
        16        11        20     1      104.964554      637.700948
        16        22        23     1      107.818253      499.612924
        16        22        26     1      107.818253      499.612924
        16        22        27     1      119.469627      549.247360
        17        16        18     1      109.240089      345.596446
        17        16        22     1      107.771469      547.277875
        18        16        22     1      107.771469      547.277875
        19        24        25     1      121.399818      395.876206
        19        24        28     1      119.171677      687.357857
        19        47        38     1      119.171677      687.357857
        19        47        48     1      121.399818      395.876206
        22        27        30     1      107.319801      660.579261
        22        27        33     1      105.724487      658.809284
        22        27        54     1      107.319801      660.579198
        23        22        26     1      106.733261      396.539341
        23        22        27     1      107.354149      449.634247
        24        19        47     1      119.304344      683.717670
        24        28        29     1      118.697449      556.856206
        24        28        34     1      123.014793      599.300542
        25        24        28     1      119.458008      430.140782
        26        22        27     1      107.354149      449.634247
        27        30        31     1      109.294968      478.790316
        27        30        32     1      109.294968      478.790316
        27        30        36     1      112.354881      593.602574
        27        33        37     1      120.523972      450.479908
        27        33        59     1      120.829636      510.577473
        27        54        49     1      112.354881      593.602574
        27        54        55     1      109.294968      478.790252
        27        54        56     1      109.294968      478.790252
        28        34        35     1      121.810081      421.339641
        28        34        38     1      116.394432      716.641388
        29        28        34     1      118.251686      546.060393
        30        27        33     1      114.091125      600.284359
        30        27        54     1      110.259888      514.458795
        30        36        40     1      109.192032      512.058562
        30        36        41     1      109.192032      512.058562
        30        36        43     1      111.497757      644.440830
        31        30        32     1      106.345482      358.854388
        31        30        36     1      109.594704      502.313345
        32        30        36     1      109.594704      502.313345
        33        27        54     1      114.091125      600.284359
        33        37        42     1      121.153732      398.482012
        33        37        46     1      120.955093      641.975733
        33        59        57     1      119.889999      661.643584
        33        59        60     1      121.291199      410.295862
        34        38        39     1      118.251686      546.060393
        34        38        47     1      123.014793      599.300542
        35        34        38     1      121.810081      421.339641
        36        43        44     1      109.732216      505.339301
        36        43        45     1      109.732216      505.339301
        36        43        49     1      111.340858      582.517809
        37        33        59     1      118.821877      653.684753
        37        46        52     1      119.282188      635.259984
        37        46        61     1      120.304016      444.610459
        38        47        48     1      119.458008      430.140782
        39        38        47     1      118.697449      556.856206
        40        36        41     1      106.261375      362.881718
        40        36        43     1      110.076126      490.303881
        41        36        43     1      110.076126      490.303881
        42        37        46     1      118.278038      442.143064
        43        49        50     1      110.076126      490.303913
        43        49        51     1      110.076126      490.303913
        43        49        54     1      111.497765      644.440830
        44        43        45     1      106.436600      366.271003
        44        43        49     1      109.732216      505.339301
        45        43        49     1      109.732216      505.339301
        46        52        53     1      119.762733      445.410026
        46        52        57     1      119.788712      694.025980
        46        61        62     1      117.377220      523.967026
        46        61        67     1      120.115944      580.986604
        49        54        55     1      109.594704      502.313409
        49        54        56     1      109.594704      502.313409
        50        49        51     1      106.261375      362.881718
        50        49        54     1      109.192032      512.058562
        51        49        54     1      109.192032      512.058562
        52        46        61     1      120.435974      526.320846
        52        57        58     1      119.517906      438.275851
        52        57        59     1      120.500526      714.592865
        53        52        57     1      120.466835      412.269498
        55        54        56     1      106.345482      358.854420
        57        59        60     1      118.975685      436.138747
        58        57        59     1      119.777390      431.566838
        61        62        63     1      113.863174      584.203960
        61        62        68     1      108.026344      462.159018
        61        62        69     1      108.026344      462.159018
        61        67        66     1      117.996971      561.511940
        61        67        76     1      122.972229      602.187767
        62        61        67     1      122.315773      488.086941
        62        63        64     1      113.217552      695.042804
        62        63        70     1      108.925339      501.237116
        62        63        71     1      108.925339      501.237116
        63        62        68     1      109.937027      486.538722
        63        62        69     1      109.937027      486.538722
        63        64        65     1      113.145630      583.960400
        63        64        72     1      110.217896      480.304666
        63        64        73     1      110.217896      480.304666
        64        63        70     1      109.054245      495.957797
        64        63        71     1      109.054245      495.957797
        64        65        66     1      114.781723      609.621237
        65        64        72     1      107.510864      464.485289
        65        64        73     1      107.510864      464.485289
        65        66        67     1      116.417770      574.031699
        65        66        74     1      108.659447      462.477817
        65        66        75     1      108.659447      462.477817
        66        67        76     1      118.697556      451.865456
        67        66        74     1      107.424355      518.054164
        67        66        75     1      107.424355      518.054164
        68        62        69     1      106.888145      353.218316
        70        63        71     1      106.960899      359.991460
        72        64        73     1      107.780884      344.932290
        74        66        75     1      108.114906      342.788514

[ dihedrals ] ; propers for gromacs 4.5 or higher, use funct 9
;       ai        aj        ak        al funct           phase               k        pn
         1         5         7         8     9        0.000000       -0.984681         1
         1         5         7         8     9      180.000000       10.713816         2
         1         5         7         8     9        0.000000        0.266309         3
         1         5         7         8     9      180.000000        1.049624         4
         1         5         7         9     9        0.000000        2.899699         1
         1         5         7         9     9      180.000000       10.926082         2
         1         5         7         9     9        0.000000        2.211648         3
         1         5         7         9     9      180.000000        0.541693         4
         2         1         5         6     9        0.000000        0.021298         1
         2         1         5         6     9      180.000000        0.079376         2
         2         1         5         6     9        0.000000       -0.551453         3
         2         1         5         6     9      180.000000        0.118633         4
         2         1         5         7     9        0.000000        0.050138         1
         2         1         5         7     9      180.000000        0.087191         2
         2         1         5         7     9        0.000000       -0.625790         3
         2         1         5         7     9      180.000000        0.214023         4
         3         1         5         6     9        0.000000        0.021298         1
         3         1         5         6     9      180.000000        0.079376         2
         3         1         5         6     9        0.000000       -0.551453         3
         3         1         5         6     9      180.000000        0.118633         4
         3         1         5         7     9        0.000000        0.050138         1
         3         1         5         7     9      180.000000        0.087191         2
         3         1         5         7     9        0.000000       -0.625790         3
         3         1         5         7     9      180.000000        0.214023         4
         4         1         5         6     9        0.000000        0.021298         1
         4         1         5         6     9      180.000000        0.079376         2
         4         1         5         6     9        0.000000       -0.551453         3
         4         1         5         6     9      180.000000        0.118633         4
         4         1         5         7     9        0.000000        0.050138         1
         4         1         5         7     9      180.000000        0.087191         2
         4         1         5         7     9        0.000000       -0.625790         3
         4         1         5         7     9      180.000000        0.214023         4
         5         7         9        10     9        0.000000       -0.179301         1
         5         7         9        10     9      180.000000       -0.134417         2
         5         7         9        10     9        0.000000        0.024570         3
         5         7         9        10     9      180.000000        0.224107         4
         5         7         9        11     9        0.000000        5.050317         1
         5         7         9        11     9      180.000000       -0.563328         2
         5         7         9        11     9        0.000000        0.226314         3
         5         7         9        11     9      180.000000        0.154439         4
         5         7         9        13     9        0.000000        0.167201         1
         5         7         9        13     9      180.000000        0.020954         2
         5         7         9        13     9        0.000000        0.412499         3
         5         7         9        13     9      180.000000        0.148208         4
         6         5         7         8     9        0.000000        0.832867         1
         6         5         7         8     9      180.000000       11.780037         2
         6         5         7         8     9        0.000000       -0.375982         3
         6         5         7         8     9      180.000000        0.948326         4
         6         5         7         9     9        0.000000        1.017243         1
         6         5         7         9     9      180.000000        8.664891         2
         6         5         7         9     9        0.000000        1.257682         3
         6         5         7         9     9      180.000000       -2.081175         4
         7         9        11        12     9        0.000000       -0.330931         1
         7         9        11        12     9      180.000000        0.160754         2
         7         9        11        12     9        0.000000        0.605276         3
         7         9        11        12     9      180.000000        0.012970         4
         7         9        11        16     9        0.000000        0.004374         1
         7         9        11        16     9      180.000000        0.355583         2
         7         9        11        16     9        0.000000        0.432313         3
         7         9        11        16     9      180.000000       -0.051368         4
         7         9        11        20     9        0.000000        3.106880         1
         7         9        11        20     9      180.000000       -1.127416         2
         7         9        11        20     9        0.000000        0.329768         3
         7         9        11        20     9      180.000000       -0.362983         4
         7         9        13        14     9        0.000000        0.023705         1
         7         9        13        14     9      180.000000       -0.046295         2
         7         9        13        14     9        0.000000        0.601711         3
         7         9        13        14     9      180.000000       -0.015242         4
         7         9        13        15     9        0.000000        0.023705         1
         7         9        13        15     9      180.000000       -0.046295         2
         7         9        13        15     9        0.000000        0.601711         3
         7         9        13        15     9      180.000000       -0.015242         4
         7         9        13        19     9        0.000000        0.020857         1
         7         9        13        19     9      180.000000       -0.227535         2
         7         9        13        19     9        0.000000        0.602447         3
         7         9        13        19     9      180.000000        0.017764         4
         8         7         9        10     9        0.000000       -0.341458         1
         8         7         9        10     9      180.000000        0.079792         2
         8         7         9        10     9        0.000000        0.711576         3
         8         7         9        10     9      180.000000        0.176783         4
         8         7         9        11     9        0.000000       -1.745272         1
         8         7         9        11     9      180.000000       -1.615863         2
         8         7         9        11     9        0.000000        0.669381         3
         8         7         9        11     9      180.000000        0.033695         4
         8         7         9        13     9        0.000000       -0.797733         1
         8         7         9        13     9      180.000000       -0.748927         2
         8         7         9        13     9        0.000000        0.646438         3
         8         7         9        13     9      180.000000        0.076137         4
         9        11        16        17     9        0.000000       -0.126504         1
         9        11        16        17     9      180.000000       -0.019151         2
         9        11        16        17     9        0.000000        0.628461         3
         9        11        16        17     9      180.000000        0.073642         4
         9        11        16        18     9        0.000000       -0.126504         1
         9        11        16        18     9      180.000000       -0.019151         2
         9        11        16        18     9        0.000000        0.628461         3
         9        11        16        18     9      180.000000        0.073642         4
         9        11        16        22     9        0.000000        1.936346         1
         9        11        16        22     9      180.000000       -1.159781         2
         9        11        16        22     9        0.000000        0.704519         3
         9        11        16        22     9      180.000000       -0.010776         4
         9        11        20        21     9        0.000000        3.235326         1
         9        11        20        21     9      180.000000       -2.294890         2
         9        11        20        21     9        0.000000        1.178564         3
         9        11        20        21     9      180.000000       -0.104336         4
         9        13        19        24     9        0.000000       -0.434990         1
         9        13        19        24     9      180.000000        0.453058         2
         9        13        19        24     9        0.000000        0.234189         3
         9        13        19        24     9      180.000000        0.023247         4
         9        13        19        47     9        0.000000       -0.434991         1
         9        13        19        47     9      180.000000        0.453058         2
         9        13        19        47     9        0.000000        0.234189         3
         9        13        19        47     9      180.000000        0.023247         4
        10         9        11        12     9        0.000000        0.643777         1
        10         9        11        12     9      180.000000       -0.177609         2
        10         9        11        12     9        0.000000        0.674420         3
        10         9        11        12     9      180.000000       -0.134003         4
        10         9        11        16     9        0.000000       -0.936020         1
        10         9        11        16     9      180.000000        0.138600         2
        10         9        11        16     9        0.000000        0.563772         3
        10         9        11        16     9      180.000000        0.010756         4
        10         9        11        20     9        0.000000       -0.418147         1
        10         9        11        20     9      180.000000       -0.069201         2
        10         9        11        20     9        0.000000        0.567563         3
        10         9        11        20     9      180.000000       -0.028416         4
        10         9        13        14     9        0.000000        0.220681         1
        10         9        13        14     9      180.000000        0.105451         2
        10         9        13        14     9        0.000000        0.645369         3
        10         9        13        14     9      180.000000       -0.080367         4
        10         9        13        15     9        0.000000        0.220681         1
        10         9        13        15     9      180.000000        0.105451         2
        10         9        13        15     9        0.000000        0.645369         3
        10         9        13        15     9      180.000000       -0.080367         4
        10         9        13        19     9        0.000000       -0.400935         1
        10         9        13        19     9      180.000000        0.178764         2
        10         9        13        19     9        0.000000        0.717846         3
        10         9        13        19     9      180.000000       -0.040457         4
        11         9        13        14     9        0.000000       -0.477508         1
        11         9        13        14     9      180.000000        0.019137         2
        11         9        13        14     9        0.000000        0.477494         3
        11         9        13        14     9      180.000000        0.046079         4
        11         9        13        15     9        0.000000       -0.477508         1
        11         9        13        15     9      180.000000        0.019137         2
        11         9        13        15     9        0.000000        0.477494         3
        11         9        13        15     9      180.000000        0.046079         4
        11         9        13        19     9        0.000000        1.868184         1
        11         9        13        19     9      180.000000       -0.476962         2
        11         9        13        19     9        0.000000        0.646744         3
        11         9        13        19     9      180.000000        0.008005         4
        11        16        22        23     9        0.000000        1.741430         1
        11        16        22        23     9      180.000000       -0.446185         2
        11        16        22        23     9        0.000000        0.387189         3
        11        16        22        23     9      180.000000       -0.096213         4
        11        16        22        26     9        0.000000        1.741430         1
        11        16        22        26     9      180.000000       -0.446185         2
        11        16        22        26     9        0.000000        0.387189         3
        11        16        22        26     9      180.000000       -0.096213         4
        11        16        22        27     9        0.000000       -2.052648         1
        11        16        22        27     9      180.000000       -0.453541         2
        11        16        22        27     9        0.000000        0.411320         3
        11        16        22        27     9      180.000000        0.041472         4
        12        11         9        13     9        0.000000       -0.468971         1
        12        11         9        13     9      180.000000        0.120166         2
        12        11         9        13     9        0.000000        0.585545         3
        12        11         9        13     9      180.000000        0.057195         4
        12        11        16        17     9        0.000000       -0.087599         1
        12        11        16        17     9      180.000000        0.018618         2
        12        11        16        17     9        0.000000        0.654544         3
        12        11        16        17     9      180.000000       -0.077011         4
        12        11        16        18     9        0.000000       -0.087599         1
        12        11        16        18     9      180.000000        0.018618         2
        12        11        16        18     9        0.000000        0.654544         3
        12        11        16        18     9      180.000000       -0.077011         4
        12        11        16        22     9        0.000000       -0.515792         1
        12        11        16        22     9      180.000000       -0.327778         2
        12        11        16        22     9        0.000000        0.689629         3
        12        11        16        22     9      180.000000        0.083347         4
        12        11        20        21     9        0.000000       -0.307051         1
        12        11        20        21     9      180.000000        0.107826         2
        12        11        20        21     9        0.000000        0.883692         3
        12        11        20        21     9      180.000000        0.026240         4
        13         9        11        16     9        0.000000        1.013016         1
        13         9        11        16     9      180.000000        0.066151         2
        13         9        11        16     9        0.000000        0.619163         3
        13         9        11        16     9      180.000000       -0.069289         4
        13         9        11        20     9        0.000000       -0.841251         1
        13         9        11        20     9      180.000000        0.042010         2
        13         9        11        20     9        0.000000        0.600459         3
        13         9        11        20     9      180.000000       -0.036811         4
        13        19        24        25     9        0.000000       -0.160824         1
        13        19        24        25     9      180.000000       12.658723         2
        13        19        24        25     9        0.000000       -0.529256         3
        13        19        24        25     9      180.000000        0.225383         4
        13        19        24        28     9        0.000000        0.158952         1
        13        19        24        28     9      180.000000       15.991497         2
        13        19        24        28     9        0.000000       -0.281609         3
        13        19        24        28     9      180.000000       -0.244265         4
        13        19        47        38     9        0.000000        0.158953         1
        13        19        47        38     9      180.000000       15.991497         2
        13        19        47        38     9        0.000000       -0.281610         3
        13        19        47        38     9      180.000000       -0.244264         4
        13        19        47        48     9        0.000000       -0.160824         1
        13        19        47        48     9      180.000000       12.658727         2
        13        19        47        48     9        0.000000       -0.529255         3
        13        19        47        48     9      180.000000        0.225383         4
        14        13        19        24     9        0.000000        0.017127         1
        14        13        19        24     9      180.000000        0.005908         2
        14        13        19        24     9        0.000000        0.214914         3
        14        13        19        24     9      180.000000        0.010055         4
        14        13        19        47     9        0.000000        0.017126         1
        14        13        19        47     9      180.000000        0.005907         2
        14        13        19        47     9        0.000000        0.214915         3
        14        13        19        47     9      180.000000        0.010055         4
        15        13        19        24     9        0.000000        0.017127         1
        15        13        19        24     9      180.000000        0.005908         2
        15        13        19        24     9        0.000000        0.214914         3
        15        13        19        24     9      180.000000        0.010055         4
        15        13        19        47     9        0.000000        0.017126         1
        15        13        19        47     9      180.000000        0.005907         2
        15        13        19        47     9        0.000000        0.214915         3
        15        13        19        47     9      180.000000        0.010055         4
        16        11        20        21     9        0.000000       -0.911918         1
        16        11        20        21     9      180.000000       -2.218268         2
        16        11        20        21     9        0.000000        0.861332         3
        16        11        20        21     9      180.000000        0.065271         4
        16        22        27        30     9        0.000000       -0.165812         1
        16        22        27        30     9      180.000000        0.753082         2
        16        22        27        30     9        0.000000        0.858443         3
        16        22        27        30     9      180.000000        0.048336         4
        16        22        27        33     9        0.000000       -1.428329         1
        16        22        27        33     9      180.000000        0.035514         2
        16        22        27        33     9        0.000000        1.267491         3
        16        22        27        33     9      180.000000        0.115317         4
        16        22        27        54     9        0.000000       -0.165812         1
        16        22        27        54     9      180.000000        0.753082         2
        16        22        27        54     9        0.000000        0.858443         3
        16        22        27        54     9      180.000000        0.048336         4
        17        16        11        20     9        0.000000        0.517341         1
        17        16        11        20     9      180.000000       -0.334263         2
        17        16        11        20     9        0.000000        0.615665         3
        17        16        11        20     9      180.000000       -0.010583         4
        17        16        22        23     9        0.000000        0.063202         1
        17        16        22        23     9      180.000000       -0.105366         2
        17        16        22        23     9        0.000000        0.307068         3
        17        16        22        23     9      180.000000        0.101691         4
        17        16        22        26     9        0.000000        0.063202         1
        17        16        22        26     9      180.000000       -0.105366         2
        17        16        22        26     9        0.000000        0.307068         3
        17        16        22        26     9      180.000000        0.101691         4
        17        16        22        27     9        0.000000       -0.265339         1
        17        16        22        27     9      180.000000       -0.013831         2
        17        16        22        27     9        0.000000        0.584971         3
        17        16        22        27     9      180.000000       -0.059221         4
        18        16        11        20     9        0.000000        0.517341         1
        18        16        11        20     9      180.000000       -0.334263         2
        18        16        11        20     9        0.000000        0.615665         3
        18        16        11        20     9      180.000000       -0.010583         4
        18        16        22        23     9        0.000000        0.063202         1
        18        16        22        23     9      180.000000       -0.105366         2
        18        16        22        23     9        0.000000        0.307068         3
        18        16        22        23     9      180.000000        0.101691         4
        18        16        22        26     9        0.000000        0.063202         1
        18        16        22        26     9      180.000000       -0.105366         2
        18        16        22        26     9        0.000000        0.307068         3
        18        16        22        26     9      180.000000        0.101691         4
        18        16        22        27     9        0.000000       -0.265339         1
        18        16        22        27     9      180.000000       -0.013831         2
        18        16        22        27     9        0.000000        0.584971         3
        18        16        22        27     9      180.000000       -0.059221         4
        19        24        28        29     9        0.000000        0.558322         1
        19        24        28        29     9      180.000000       22.600098         2
        19        24        28        29     9        0.000000        0.580146         3
        19        24        28        29     9      180.000000       -0.676260         4
        19        24        28        34     9        0.000000       -0.009833         1
        19        24        28        34     9      180.000000       16.983544         2
        19        24        28        34     9        0.000000       -1.224299         3
        19        24        28        34     9      180.000000       -0.325714         4
        19        47        38        34     9        0.000000       -0.009834         1
        19        47        38        34     9      180.000000       16.983546         2
        19        47        38        34     9        0.000000       -1.224300         3
        19        47        38        34     9      180.000000       -0.325714         4
        19        47        38        39     9        0.000000        0.558321         1
        19        47        38        39     9      180.000000       22.600102         2
        19        47        38        39     9        0.000000        0.580145         3
        19        47        38        39     9      180.000000       -0.676261         4
        20        11        16        22     9        0.000000       11.736840         1
        20        11        16        22     9      180.000000       -2.757430         2
        20        11        16        22     9        0.000000        0.182550         3
        20        11        16        22     9      180.000000        0.345479         4
        22        27        30        31     9        0.000000       -0.222629         1
        22        27        30        31     9      180.000000       -0.303681         2
        22        27        30        31     9        0.000000        0.571486         3
        22        27        30        31     9      180.000000       -0.014225         4
        22        27        30        32     9        0.000000       -0.222629         1
        22        27        30        32     9      180.000000       -0.303681         2
        22        27        30        32     9        0.000000        0.571486         3
        22        27        30        32     9      180.000000       -0.014225         4
        22        27        30        36     9        0.000000        4.866685         1
        22        27        30        36     9      180.000000       -1.267429         2
        22        27        30        36     9        0.000000        0.414348         3
        22        27        30        36     9      180.000000        0.237334         4
        22        27        33        37     9        0.000000        2.415221         1
        22        27        33        37     9      180.000000        0.175151         2
        22        27        33        37     9        0.000000        0.222668         3
        22        27        33        37     9      180.000000        0.088602         4
        22        27        33        59     9        0.000000        0.588026         1
        22        27        33        59     9      180.000000        0.111608         2
        22        27        33        59     9        0.000000        0.209269         3
        22        27        33        59     9      180.000000        0.077585         4
        22        27        54        49     9        0.000000        4.866684         1
        22        27        54        49     9      180.000000       -1.267428         2
        22        27        54        49     9        0.000000        0.414348         3
        22        27        54        49     9      180.000000        0.237334         4
        22        27        54        55     9        0.000000       -0.222628         1
        22        27        54        55     9      180.000000       -0.303679         2
        22        27        54        55     9        0.000000        0.571486         3
        22        27        54        55     9      180.000000       -0.014224         4
        22        27        54        56     9        0.000000       -0.222628         1
        22        27        54        56     9      180.000000       -0.303679         2
        22        27        54        56     9        0.000000        0.571486         3
        22        27        54        56     9      180.000000       -0.014224         4
        23        22        27        30     9        0.000000        0.161896         1
        23        22        27        30     9      180.000000        0.499751         2
        23        22        27        30     9        0.000000        0.510618         3
        23        22        27        30     9      180.000000       -0.057562         4
        23        22        27        33     9        0.000000        2.484761         1
        23        22        27        33     9      180.000000        0.471160         2
        23        22        27        33     9        0.000000        0.587080         3
        23        22        27        33     9      180.000000       -0.232451         4
        23        22        27        54     9        0.000000        0.161895         1
        23        22        27        54     9      180.000000        0.499752         2
        23        22        27        54     9        0.000000        0.510619         3
        23        22        27        54     9      180.000000       -0.057562         4
        24        19        47        38     9        0.000000       -0.205612         1
        24        19        47        38     9      180.000000       19.123311         2
        24        19        47        38     9        0.000000       -1.453325         3
        24        19        47        38     9      180.000000       -0.401234         4
        24        19        47        48     9        0.000000       -0.009058         1
        24        19        47        48     9      180.000000       14.469316         2
        24        19        47        48     9        0.000000       -0.494860         3
        24        19        47        48     9      180.000000        0.044015         4
        24        28        34        35     9        0.000000        0.079111         1
        24        28        34        35     9      180.000000       12.428293         2
        24        28        34        35     9        0.000000       -0.413714         3
        24        28        34        35     9      180.000000        0.183917         4
        24        28        34        38     9        0.000000       -0.218748         1
        24        28        34        38     9      180.000000       17.337806         2
        24        28        34        38     9        0.000000       -1.203635         3
        24        28        34        38     9      180.000000       -0.413087         4
        25        24        19        47     9        0.000000       -0.009057         1
        25        24        19        47     9      180.000000       14.469316         2
        25        24        19        47     9        0.000000       -0.494860         3
        25        24        19        47     9      180.000000        0.044015         4
        25        24        28        29     9        0.000000        0.255465         1
        25        24        28        29     9      180.000000       15.933598         2
        25        24        28        29     9        0.000000        0.317178         3
        25        24        28        29     9      180.000000        0.158738         4
        25        24        28        34     9        0.000000        0.177244         1
        25        24        28        34     9      180.000000       12.878740         2
        25        24        28        34     9        0.000000       -0.471654         3
        25        24        28        34     9      180.000000        0.154551         4
        26        22        27        30     9        0.000000        0.161896         1
        26        22        27        30     9      180.000000        0.499751         2
        26        22        27        30     9        0.000000        0.510618         3
        26        22        27        30     9      180.000000       -0.057562         4
        26        22        27        33     9        0.000000        2.484761         1
        26        22        27        33     9      180.000000        0.471160         2
        26        22        27        33     9        0.000000        0.587080         3
        26        22        27        33     9      180.000000       -0.232451         4
        26        22        27        54     9        0.000000        0.161895         1
        26        22        27        54     9      180.000000        0.499752         2
        26        22        27        54     9        0.000000        0.510619         3
        26        22        27        54     9      180.000000       -0.057562         4
        27        30        36        40     9        0.000000       -0.130223         1
        27        30        36        40     9      180.000000        0.051332         2
        27        30        36        40     9        0.000000        0.270893         3
        27        30        36        40     9      180.000000       -0.017080         4
        27        30        36        41     9        0.000000       -0.130223         1
        27        30        36        41     9      180.000000        0.051332         2
        27        30        36        41     9        0.000000        0.270893         3
        27        30        36        41     9      180.000000       -0.017080         4
        27        30        36        43     9        0.000000        1.860618         1
        27        30        36        43     9      180.000000       -1.859263         2
        27        30        36        43     9        0.000000        0.401048         3
        27        30        36        43     9      180.000000       -0.016731         4
        27        33        37        42     9        0.000000       -0.070998         1
        27        33        37        42     9      180.000000       12.165649         2
        27        33        37        42     9        0.000000       -0.155680         3
        27        33        37        42     9      180.000000        0.075249         4
        27        33        37        46     9        0.000000        0.406526         1
        27        33        37        46     9      180.000000       13.442054         2
        27        33        37        46     9        0.000000        0.063338         3
        27        33        37        46     9      180.000000       -0.160370         4
        27        33        59        57     9        0.000000        0.319498         1
        27        33        59        57     9      180.000000       14.226945         2
        27        33        59        57     9        0.000000        0.047957         3
        27        33        59        57     9      180.000000       -0.196363         4
        27        33        59        60     9        0.000000       -0.039299         1
        27        33        59        60     9      180.000000       12.373358         2
        27        33        59        60     9        0.000000       -0.156914         3
        27        33        59        60     9      180.000000        0.077979         4
        27        54        49        43     9        0.000000        1.860618         1
        27        54        49        43     9      180.000000       -1.859263         2
        27        54        49        43     9        0.000000        0.401048         3
        27        54        49        43     9      180.000000       -0.016731         4
        27        54        49        50     9        0.000000       -0.130223         1
        27        54        49        50     9      180.000000        0.051331         2
        27        54        49        50     9        0.000000        0.270892         3
        27        54        49        50     9      180.000000       -0.017081         4
        27        54        49        51     9        0.000000       -0.130223         1
        27        54        49        51     9      180.000000        0.051331         2
        27        54        49        51     9        0.000000        0.270892         3
        27        54        49        51     9      180.000000       -0.017081         4
        28        24        19        47     9        0.000000       -0.205612         1
        28        24        19        47     9      180.000000       19.123309         2
        28        24        19        47     9        0.000000       -1.453325         3
        28        24        19        47     9      180.000000       -0.401233         4
        28        34        38        39     9        0.000000        0.328224         1
        28        34        38        39     9      180.000000       23.258511         2
        28        34        38        39     9        0.000000        0.635698         3
        28        34        38        39     9      180.000000       -0.760693         4
        28        34        38        47     9        0.000000       -0.218749         1
        28        34        38        47     9      180.000000       17.337810         2
        28        34        38        47     9        0.000000       -1.203635         3
        28        34        38        47     9      180.000000       -0.413087         4
        29        28        34        35     9        0.000000        0.288913         1
        29        28        34        35     9      180.000000       15.093259         2
        29        28        34        35     9        0.000000        0.262813         3
        29        28        34        35     9      180.000000        0.238074         4
        29        28        34        38     9        0.000000        0.328225         1
        29        28        34        38     9      180.000000       23.258509         2
        29        28        34        38     9        0.000000        0.635698         3
        29        28        34        38     9      180.000000       -0.760692         4
        30        27        33        37     9        0.000000       -0.282078         1
        30        27        33        37     9      180.000000        0.374129         2
        30        27        33        37     9        0.000000        0.215002         3
        30        27        33        37     9      180.000000        0.090953         4
        30        27        33        59     9        0.000000       -0.137704         1
        30        27        33        59     9      180.000000        0.144861         2
        30        27        33        59     9        0.000000        0.237827         3
        30        27        33        59     9      180.000000        0.109482         4
        30        27        54        49     9        0.000000        3.723563         1
        30        27        54        49     9      180.000000       -1.539051         2
        30        27        54        49     9        0.000000       -0.014278         3
        30        27        54        49     9      180.000000       -0.066310         4
        30        27        54        55     9        0.000000       -0.084403         1
        30        27        54        55     9      180.000000        0.049438         2
        30        27        54        55     9        0.000000        0.231010         3
        30        27        54        55     9      180.000000        0.020760         4
        30        27        54        56     9        0.000000       -0.084403         1
        30        27        54        56     9      180.000000        0.049438         2
        30        27        54        56     9        0.000000        0.231010         3
        30        27        54        56     9      180.000000        0.020760         4
        30        36        43        44     9        0.000000       -0.033843         1
        30        36        43        44     9      180.000000        0.030999         2
        30        36        43        44     9        0.000000        0.301563         3
        30        36        43        44     9      180.000000       -0.003346         4
        30        36        43        45     9        0.000000       -0.033843         1
        30        36        43        45     9      180.000000        0.030999         2
        30        36        43        45     9        0.000000        0.301563         3
        30        36        43        45     9      180.000000       -0.003346         4
        30        36        43        49     9        0.000000        0.092861         1
        30        36        43        49     9      180.000000       -0.442578         2
        30        36        43        49     9        0.000000        0.283583         3
        30        36        43        49     9      180.000000       -0.020985         4
        31        30        27        33     9        0.000000       -0.015121         1
        31        30        27        33     9      180.000000       -0.027864         2
        31        30        27        33     9        0.000000        0.587022         3
        31        30        27        33     9      180.000000       -0.016621         4
        31        30        27        54     9        0.000000       -0.084404         1
        31        30        27        54     9      180.000000        0.049439         2
        31        30        27        54     9        0.000000        0.231010         3
        31        30        27        54     9      180.000000        0.020760         4
        31        30        36        40     9        0.000000       -0.004377         1
        31        30        36        40     9      180.000000        0.026665         2
        31        30        36        40     9        0.000000        0.377130         3
        31        30        36        40     9      180.000000        0.032123         4
        31        30        36        41     9        0.000000       -0.004377         1
        31        30        36        41     9      180.000000        0.026665         2
        31        30        36        41     9        0.000000        0.377130         3
        31        30        36        41     9      180.000000        0.032123         4
        31        30        36        43     9        0.000000       -0.103203         1
        31        30        36        43     9      180.000000        0.082669         2
        31        30        36        43     9        0.000000        0.373797         3
        31        30        36        43     9      180.000000        0.018453         4
        32        30        27        33     9        0.000000       -0.015121         1
        32        30        27        33     9      180.000000       -0.027864         2
        32        30        27        33     9        0.000000        0.587022         3
        32        30        27        33     9      180.000000       -0.016621         4
        32        30        27        54     9        0.000000       -0.084404         1
        32        30        27        54     9      180.000000        0.049439         2
        32        30        27        54     9        0.000000        0.231010         3
        32        30        27        54     9      180.000000        0.020760         4
        32        30        36        40     9        0.000000       -0.004377         1
        32        30        36        40     9      180.000000        0.026665         2
        32        30        36        40     9        0.000000        0.377130         3
        32        30        36        40     9      180.000000        0.032123         4
        32        30        36        41     9        0.000000       -0.004377         1
        32        30        36        41     9      180.000000        0.026665         2
        32        30        36        41     9        0.000000        0.377130         3
        32        30        36        41     9      180.000000        0.032123         4
        32        30        36        43     9        0.000000       -0.103203         1
        32        30        36        43     9      180.000000        0.082669         2
        32        30        36        43     9        0.000000        0.373797         3
        32        30        36        43     9      180.000000        0.018453         4
        33        27        30        36     9        0.000000       -0.690868         1
        33        27        30        36     9      180.000000        0.082482         2
        33        27        30        36     9        0.000000        0.542022         3
        33        27        30        36     9      180.000000        0.063025         4
        33        27        54        49     9        0.000000       -0.690868         1
        33        27        54        49     9      180.000000        0.082483         2
        33        27        54        49     9        0.000000        0.542022         3
        33        27        54        49     9      180.000000        0.063024         4
        33        27        54        55     9        0.000000       -0.015120         1
        33        27        54        55     9      180.000000       -0.027864         2
        33        27        54        55     9        0.000000        0.587022         3
        33        27        54        55     9      180.000000       -0.016621         4
        33        27        54        56     9        0.000000       -0.015120         1
        33        27        54        56     9      180.000000       -0.027864         2
        33        27        54        56     9        0.000000        0.587022         3
        33        27        54        56     9      180.000000       -0.016621         4
        33        37        46        52     9        0.000000        0.139042         1
        33        37        46        52     9      180.000000       16.942340         2
        33        37        46        52     9        0.000000       -1.119766         3
        33        37        46        52     9      180.000000       -0.391396         4
        33        37        46        61     9        0.000000        0.218565         1
        33        37        46        61     9      180.000000       17.033735         2
        33        37        46        61     9        0.000000        0.363852         3
        33        37        46        61     9      180.000000       -0.405418         4
        33        59        57        52     9        0.000000        0.138133         1
        33        59        57        52     9      180.000000       18.732338         2
        33        59        57        52     9        0.000000       -1.796186         3
        33        59        57        52     9      180.000000       -0.437136         4
        33        59        57        58     9        0.000000        0.007714         1
        33        59        57        58     9      180.000000       15.102966         2
        33        59        57        58     9        0.000000       -0.628546         3
        33        59        57        58     9      180.000000        0.052822         4
        34        38        47        48     9        0.000000        0.177245         1
        34        38        47        48     9      180.000000       12.878742         2
        34        38        47        48     9        0.000000       -0.471655         3
        34        38        47        48     9      180.000000        0.154551         4
        35        34        38        39     9        0.000000        0.288914         1
        35        34        38        39     9      180.000000       15.093259         2
        35        34        38        39     9        0.000000        0.262814         3
        35        34        38        39     9      180.000000        0.238073         4
        35        34        38        47     9        0.000000        0.079111         1
        35        34        38        47     9      180.000000       12.428294         2
        35        34        38        47     9        0.000000       -0.413714         3
        35        34        38        47     9      180.000000        0.183917         4
        36        30        27        54     9        0.000000        3.723565         1
        36        30        27        54     9      180.000000       -1.539050         2
        36        30        27        54     9        0.000000       -0.014278         3
        36        30        27        54     9      180.000000       -0.066311         4
        36        43        49        50     9        0.000000       -0.039273         1
        36        43        49        50     9      180.000000        0.033389         2
        36        43        49        50     9        0.000000        0.272808         3
        36        43        49        50     9      180.000000       -0.003579         4
        36        43        49        51     9        0.000000       -0.039273         1
        36        43        49        51     9      180.000000        0.033389         2
        36        43        49        51     9        0.000000        0.272808         3
        36        43        49        51     9      180.000000       -0.003579         4
        36        43        49        54     9        0.000000        0.092861         1
        36        43        49        54     9      180.000000       -0.442579         2
        36        43        49        54     9        0.000000        0.283583         3
        36        43        49        54     9      180.000000       -0.020985         4
        37        33        27        54     9        0.000000       -0.282078         1
        37        33        27        54     9      180.000000        0.374130         2
        37        33        27        54     9        0.000000        0.215003         3
        37        33        27        54     9      180.000000        0.090953         4
        37        33        59        57     9        0.000000       -0.128989         1
        37        33        59        57     9      180.000000       19.267490         2
        37        33        59        57     9        0.000000       -1.719811         3
        37        33        59        57     9      180.000000       -0.410415         4
        37        33        59        60     9        0.000000        0.130026         1
        37        33        59        60     9      180.000000       15.228579         2
        37        33        59        60     9        0.000000       -0.683668         3
        37        33        59        60     9      180.000000       -0.063053         4
        37        46        52        53     9        0.000000        0.139356         1
        37        46        52        53     9      180.000000       13.606116         2
        37        46        52        53     9        0.000000       -0.431391         3
        37        46        52        53     9      180.000000        0.084205         4
        37        46        52        57     9        0.000000        0.121375         1
        37        46        52        57     9      180.000000       16.979498         2
        37        46        52        57     9        0.000000       -0.946967         3
        37        46        52        57     9      180.000000       -0.162416         4
        37        46        61        62     9        0.000000        0.052509         1
        37        46        61        62     9      180.000000        5.493552         2
        37        46        61        62     9        0.000000        0.464861         3
        37        46        61        62     9      180.000000        0.914457         4
        37        46        61        67     9        0.000000       -0.027874         1
        37        46        61        67     9      180.000000        4.491230         2
        37        46        61        67     9        0.000000       -0.208028         3
        37        46        61        67     9      180.000000        0.922800         4
        39        38        47        48     9        0.000000        0.255465         1
        39        38        47        48     9      180.000000       15.933602         2
        39        38        47        48     9        0.000000        0.317179         3
        39        38        47        48     9      180.000000        0.158738         4
        40        36        43        44     9        0.000000       -0.011324         1
        40        36        43        44     9      180.000000        0.007822         2
        40        36        43        44     9        0.000000        0.325915         3
        40        36        43        44     9      180.000000        0.007339         4
        40        36        43        45     9        0.000000       -0.011324         1
        40        36        43        45     9      180.000000        0.007822         2
        40        36        43        45     9        0.000000        0.325915         3
        40        36        43        45     9      180.000000        0.007339         4
        40        36        43        49     9        0.000000       -0.039273         1
        40        36        43        49     9      180.000000        0.033389         2
        40        36        43        49     9        0.000000        0.272808         3
        40        36        43        49     9      180.000000       -0.003579         4
        41        36        43        44     9        0.000000       -0.011324         1
        41        36        43        44     9      180.000000        0.007822         2
        41        36        43        44     9        0.000000        0.325915         3
        41        36        43        44     9      180.000000        0.007339         4
        41        36        43        45     9        0.000000       -0.011324         1
        41        36        43        45     9      180.000000        0.007822         2
        41        36        43        45     9        0.000000        0.325915         3
        41        36        43        45     9      180.000000        0.007339         4
        41        36        43        49     9        0.000000       -0.039273         1
        41        36        43        49     9      180.000000        0.033389         2
        41        36        43        49     9        0.000000        0.272808         3
        41        36        43        49     9      180.000000       -0.003579         4
        42        37        33        59     9        0.000000        0.131336         1
        42        37        33        59     9      180.000000       13.416251         2
        42        37        33        59     9        0.000000       -0.679715         3
        42        37        33        59     9      180.000000        0.096475         4
        42        37        46        52     9        0.000000        0.056887         1
        42        37        46        52     9      180.000000       12.978050         2
        42        37        46        52     9        0.000000       -0.443542         3
        42        37        46        52     9      180.000000        0.207240         4
        42        37        46        61     9        0.000000       -0.233353         1
        42        37        46        61     9      180.000000       13.661859         2
        42        37        46        61     9        0.000000       -0.078432         3
        42        37        46        61     9      180.000000        0.237733         4
        43        49        54        55     9        0.000000       -0.103203         1
        43        49        54        55     9      180.000000        0.082668         2
        43        49        54        55     9        0.000000        0.373797         3
        43        49        54        55     9      180.000000        0.018454         4
        43        49        54        56     9        0.000000       -0.103203         1
        43        49        54        56     9      180.000000        0.082668         2
        43        49        54        56     9        0.000000        0.373797         3
        43        49        54        56     9      180.000000        0.018454         4
        44        43        49        50     9        0.000000       -0.011325         1
        44        43        49        50     9      180.000000        0.007821         2
        44        43        49        50     9        0.000000        0.325915         3
        44        43        49        50     9      180.000000        0.007339         4
        44        43        49        51     9        0.000000       -0.011325         1
        44        43        49        51     9      180.000000        0.007821         2
        44        43        49        51     9        0.000000        0.325915         3
        44        43        49        51     9      180.000000        0.007339         4
        44        43        49        54     9        0.000000       -0.033843         1
        44        43        49        54     9      180.000000        0.030998         2
        44        43        49        54     9        0.000000        0.301562         3
        44        43        49        54     9      180.000000       -0.003347         4
        45        43        49        50     9        0.000000       -0.011325         1
        45        43        49        50     9      180.000000        0.007821         2
        45        43        49        50     9        0.000000        0.325915         3
        45        43        49        50     9      180.000000        0.007339         4
        45        43        49        51     9        0.000000       -0.011325         1
        45        43        49        51     9      180.000000        0.007821         2
        45        43        49        51     9        0.000000        0.325915         3
        45        43        49        51     9      180.000000        0.007339         4
        45        43        49        54     9        0.000000       -0.033843         1
        45        43        49        54     9      180.000000        0.030998         2
        45        43        49        54     9        0.000000        0.301562         3
        45        43        49        54     9      180.000000       -0.003347         4
        46        37        33        59     9        0.000000       -0.023520         1
        46        37        33        59     9      180.000000       17.441550         2
        46        37        33        59     9        0.000000       -1.517294         3
        46        37        33        59     9      180.000000       -0.334620         4
        46        52        57        58     9        0.000000        0.066835         1
        46        52        57        58     9      180.000000       14.139001         2
        46        52        57        58     9        0.000000       -0.655182         3
        46        52        57        58     9      180.000000        0.076380         4
        46        52        57        59     9        0.000000       -0.078282         1
        46        52        57        59     9      180.000000       17.937597         2
        46        52        57        59     9        0.000000       -1.506075         3
        46        52        57        59     9      180.000000       -0.371118         4
        46        61        62        63     9        0.000000       -3.469249         1
        46        61        62        63     9      180.000000        0.166968         2
        46        61        62        63     9        0.000000        0.454519         3
        46        61        62        63     9      180.000000        0.014930         4
        46        61        62        68     9        0.000000        0.498217         1
        46        61        62        68     9      180.000000        0.282881         2
        46        61        62        68     9        0.000000        0.386771         3
        46        61        62        68     9      180.000000       -0.058543         4
        46        61        62        69     9        0.000000        0.498217         1
        46        61        62        69     9      180.000000        0.282881         2
        46        61        62        69     9        0.000000        0.386771         3
        46        61        62        69     9      180.000000       -0.058543         4
        46        61        67        66     9        0.000000        3.799752         1
        46        61        67        66     9      180.000000       10.202604         2
        46        61        67        66     9        0.000000        0.045698         3
        46        61        67        66     9      180.000000       -0.520668         4
        46        61        67        76     9        0.000000       -1.885984         1
        46        61        67        76     9      180.000000       11.914624         2
        46        61        67        76     9        0.000000       -1.035434         3
        46        61        67        76     9      180.000000       -0.368316         4
        50        49        54        55     9        0.000000       -0.004377         1
        50        49        54        55     9      180.000000        0.026664         2
        50        49        54        55     9        0.000000        0.377130         3
        50        49        54        55     9      180.000000        0.032123         4
        50        49        54        56     9        0.000000       -0.004377         1
        50        49        54        56     9      180.000000        0.026664         2
        50        49        54        56     9        0.000000        0.377130         3
        50        49        54        56     9      180.000000        0.032123         4
        51        49        54        55     9        0.000000       -0.004377         1
        51        49        54        55     9      180.000000        0.026664         2
        51        49        54        55     9        0.000000        0.377130         3
        51        49        54        55     9      180.000000        0.032123         4
        51        49        54        56     9        0.000000       -0.004377         1
        51        49        54        56     9      180.000000        0.026664         2
        51        49        54        56     9        0.000000        0.377130         3
        51        49        54        56     9      180.000000        0.032123         4
        52        46        61        62     9        0.000000        0.360519         1
        52        46        61        62     9      180.000000        5.126636         2
        52        46        61        62     9        0.000000        0.531727         3
        52        46        61        62     9      180.000000        0.922384         4
        52        46        61        67     9        0.000000        0.396551         1
        52        46        61        67     9      180.000000        4.075029         2
        52        46        61        67     9        0.000000       -0.234099         3
        52        46        61        67     9      180.000000        0.891731         4
        52        57        59        60     9        0.000000        0.148758         1
        52        57        59        60     9      180.000000       15.253539         2
        52        57        59        60     9        0.000000       -0.684500         3
        52        57        59        60     9      180.000000        0.046935         4
        53        52        46        61     9        0.000000       -0.098603         1
        53        52        46        61     9      180.000000       14.012409         2
        53        52        46        61     9        0.000000       -0.007803         3
        53        52        46        61     9      180.000000        0.167093         4
        53        52        57        58     9        0.000000       -0.133834         1
        53        52        57        58     9      180.000000       12.012220         2
        53        52        57        58     9        0.000000       -0.692529         3
        53        52        57        58     9      180.000000        0.256457         4
        53        52        57        59     9        0.000000        0.101066         1
        53        52        57        59     9      180.000000       14.217985         2
        53        52        57        59     9        0.000000       -0.729205         3
        53        52        57        59     9      180.000000        0.117796         4
        54        27        33        59     9        0.000000       -0.137704         1
        54        27        33        59     9      180.000000        0.144861         2
        54        27        33        59     9        0.000000        0.237827         3
        54        27        33        59     9      180.000000        0.109482         4
        57        52        46        61     9        0.000000        0.418592         1
        57        52        46        61     9      180.000000       18.296024         2
        57        52        46        61     9        0.000000        0.476279         3
        57        52        46        61     9      180.000000       -0.427855         4
        58        57        59        60     9        0.000000       -0.187794         1
        58        57        59        60     9      180.000000       11.825175         2
        58        57        59        60     9        0.000000       -0.663532         3
        58        57        59        60     9      180.000000        0.262106         4
        61        62        63        64     9        0.000000       -0.140195         1
        61        62        63        64     9      180.000000       -0.175777         2
        61        62        63        64     9        0.000000        0.096626         3
        61        62        63        64     9      180.000000        0.033662         4
        61        62        63        70     9        0.000000        0.025288         1
        61        62        63        70     9      180.000000       -0.029079         2
        61        62        63        70     9        0.000000        0.315800         3
        61        62        63        70     9      180.000000       -0.001057         4
        61        62        63        71     9        0.000000        0.025288         1
        61        62        63        71     9      180.000000       -0.029079         2
        61        62        63        71     9        0.000000        0.315800         3
        61        62        63        71     9      180.000000       -0.001057         4
        61        67        66        65     9        0.000000        9.943565         1
        61        67        66        65     9      180.000000        5.145228         2
        61        67        66        65     9        0.000000       -1.769928         3
        61        67        66        65     9      180.000000       -0.604753         4
        61        67        66        74     9        0.000000       -0.198113         1
        61        67        66        74     9      180.000000       -0.045382         2
        61        67        66        74     9        0.000000       -0.431349         3
        61        67        66        74     9      180.000000        0.111142         4
        61        67        66        75     9        0.000000       -0.198113         1
        61        67        66        75     9      180.000000       -0.045382         2
        61        67        66        75     9        0.000000       -0.431349         3
        61        67        66        75     9      180.000000        0.111142         4
        62        61        67        66     9        0.000000        9.603062         1
        62        61        67        66     9      180.000000        7.664147         2
        62        61        67        66     9        0.000000       -0.977297         3
        62        61        67        66     9      180.000000       -0.225975         4
        62        61        67        76     9        0.000000        2.041511         1
        62        61        67        76     9      180.000000       10.582309         2
        62        61        67        76     9        0.000000       -0.124559         3
        62        61        67        76     9      180.000000       -0.194943         4
        62        63        64        65     9        0.000000       -0.358945         1
        62        63        64        65     9      180.000000        0.193041         2
        62        63        64        65     9        0.000000        0.243757         3
        62        63        64        65     9      180.000000       -0.112914         4
        62        63        64        72     9        0.000000       -0.075463         1
        62        63        64        72     9      180.000000        0.037111         2
        62        63        64        72     9        0.000000        0.481636         3
        62        63        64        72     9      180.000000        0.022689         4
        62        63        64        73     9        0.000000       -0.075463         1
        62        63        64        73     9      180.000000        0.037111         2
        62        63        64        73     9        0.000000        0.481636         3
        62        63        64        73     9      180.000000        0.022689         4
        63        62        61        67     9        0.000000        2.565899         1
        63        62        61        67     9      180.000000        0.325229         2
        63        62        61        67     9        0.000000       -0.430331         3
        63        62        61        67     9      180.000000        0.077399         4
        63        64        65        66     9        0.000000        4.271877         1
        63        64        65        66     9      180.000000        1.054477         2
        63        64        65        66     9        0.000000        0.374387         3
        63        64        65        66     9      180.000000       -0.356571         4
        64        63        62        68     9        0.000000       -0.039669         1
        64        63        62        68     9      180.000000       -0.043545         2
        64        63        62        68     9        0.000000        0.143519         3
        64        63        62        68     9      180.000000        0.012757         4
        64        63        62        69     9        0.000000       -0.039669         1
        64        63        62        69     9      180.000000       -0.043545         2
        64        63        62        69     9        0.000000        0.143519         3
        64        63        62        69     9      180.000000        0.012757         4
        64        65        66        67     9        0.000000       21.237861         1
        64        65        66        67     9      180.000000        3.552859         2
        64        65        66        67     9        0.000000       -0.252760         3
        64        65        66        67     9      180.000000       -0.804948         4
        64        65        66        74     9        0.000000       -0.545102         1
        64        65        66        74     9      180.000000        0.235538         2
        64        65        66        74     9        0.000000        0.841115         3
        64        65        66        74     9      180.000000        0.077605         4
        64        65        66        75     9        0.000000       -0.545102         1
        64        65        66        75     9      180.000000        0.235538         2
        64        65        66        75     9        0.000000        0.841115         3
        64        65        66        75     9      180.000000        0.077605         4
        65        64        63        70     9        0.000000        0.046615         1
        65        64        63        70     9      180.000000        0.016799         2
        65        64        63        70     9        0.000000        0.431705         3
        65        64        63        70     9      180.000000        0.011312         4
        65        64        63        71     9        0.000000        0.046615         1
        65        64        63        71     9      180.000000        0.016799         2
        65        64        63        71     9        0.000000        0.431705         3
        65        64        63        71     9      180.000000        0.011312         4
        65        66        67        76     9        0.000000       -0.970638         1
        65        66        67        76     9      180.000000       -1.463785         2
        65        66        67        76     9        0.000000        0.229983         3
        65        66        67        76     9      180.000000        0.820526         4
        66        65        64        72     9        0.000000       -0.061523         1
        66        65        64        72     9      180.000000        0.004963         2
        66        65        64        72     9        0.000000        0.714351         3
        66        65        64        72     9      180.000000        0.007249         4
        66        65        64        73     9        0.000000       -0.061523         1
        66        65        64        73     9      180.000000        0.004963         2
        66        65        64        73     9        0.000000        0.714351         3
        66        65        64        73     9      180.000000        0.007249         4
        67        61        62        68     9        0.000000        0.006124         1
        67        61        62        68     9      180.000000        0.055610         2
        67        61        62        68     9        0.000000       -0.452776         3
        67        61        62        68     9      180.000000        0.082060         4
        67        61        62        69     9        0.000000        0.006124         1
        67        61        62        69     9      180.000000        0.055610         2
        67        61        62        69     9        0.000000       -0.452776         3
        67        61        62        69     9      180.000000        0.082060         4
        68        62        63        70     9        0.000000        0.003421         1
        68        62        63        70     9      180.000000        0.013965         2
        68        62        63        70     9        0.000000        0.448881         3
        68        62        63        70     9      180.000000        0.014257         4
        68        62        63        71     9        0.000000        0.003421         1
        68        62        63        71     9      180.000000        0.013965         2
        68        62        63        71     9        0.000000        0.448881         3
        68        62        63        71     9      180.000000        0.014257         4
        69        62        63        70     9        0.000000        0.003421         1
        69        62        63        70     9      180.000000        0.013965         2
        69        62        63        70     9        0.000000        0.448881         3
        69        62        63        70     9      180.000000        0.014257         4
        69        62        63        71     9        0.000000        0.003421         1
        69        62        63        71     9      180.000000        0.013965         2
        69        62        63        71     9        0.000000        0.448881         3
        69        62        63        71     9      180.000000        0.014257         4
        70        63        64        72     9        0.000000       -0.030605         1
        70        63        64        72     9      180.000000        0.020307         2
        70        63        64        72     9        0.000000        0.564448         3
        70        63        64        72     9      180.000000       -0.010934         4
        70        63        64        73     9        0.000000       -0.030605         1
        70        63        64        73     9      180.000000        0.020307         2
        70        63        64        73     9        0.000000        0.564448         3
        70        63        64        73     9      180.000000       -0.010934         4
        71        63        64        72     9        0.000000       -0.030605         1
        71        63        64        72     9      180.000000        0.020307         2
        71        63        64        72     9        0.000000        0.564448         3
        71        63        64        72     9      180.000000       -0.010934         4
        71        63        64        73     9        0.000000       -0.030605         1
        71        63        64        73     9      180.000000        0.020307         2
        71        63        64        73     9        0.000000        0.564448         3
        71        63        64        73     9      180.000000       -0.010934         4
        74        66        67        76     9        0.000000        0.189187         1
        74        66        67        76     9      180.000000        0.363188         2
        74        66        67        76     9        0.000000        0.027114         3
        74        66        67        76     9      180.000000       -0.111533         4
        75        66        67        76     9        0.000000        0.189187         1
        75        66        67        76     9      180.000000        0.363188         2
        75        66        67        76     9        0.000000        0.027114         3
        75        66        67        76     9      180.000000       -0.111533         4

[ dihedrals ] ; impropers
;       ai        aj        ak        al funct           phase               k        pn
         5         1         6         7     4      180.000000       27.893333         2
         5         6         7         1     4      180.000000       27.893333         2
         5         7         1         6     4      180.000000       27.893333         2
        28        24        29        34     4      180.000000        2.499926         2
        28        29        34        24     4      180.000000        2.499926         2
        28        34        24        29     4      180.000000        2.499926         2
        38        34        39        47     4      180.000000        2.499923         2
        38        39        47        34     4      180.000000        2.499923         2
        38        47        34        39     4      180.000000        2.499923         2
        67        61        66        76     4      180.000000       21.194279         2
        67        66        76        61     4      180.000000       21.194279         2
        67        76        61        66     4      180.000000       21.194279         2

[ pairs ]
;       ai        aj funct
         1         8     1
         1         9     1
         2         6     1
         2         7     1
         3         6     1
         3         7     1
         4         6     1
         4         7     1
         5        10     1
         5        11     1
         5        13     1
         6         8     1
         6         9     1
         7        12     1
         7        14     1
         7        15     1
         7        16     1
         7        19     1
         7        20     1
         8        10     1
         8        11     1
         8        13     1
         9        17     1
         9        18     1
         9        21     1
         9        22     1
         9        24     1
         9        47     1
        10        12     1
        10        14     1
        10        15     1
        10        16     1
        10        19     1
        10        20     1
        11        14     1
        11        15     1
        11        19     1
        11        23     1
        11        26     1
        11        27     1
        12        13     1
        12        17     1
        12        18     1
        12        21     1
        12        22     1
        13        16     1
        13        20     1
        13        25     1
        13        28     1
        13        38     1
        13        48     1
        14        24     1
        14        47     1
        15        24     1
        15        47     1
        16        21     1
        16        30     1
        16        33     1
        16        54     1
        17        20     1
        17        23     1
        17        26     1
        17        27     1
        18        20     1
        18        23     1
        18        26     1
        18        27     1
        19        29     1
        19        34     1
        19        39     1
        20        22     1
        22        31     1
        22        32     1
        22        36     1
        22        37     1
        22        49     1
        22        55     1
        22        56     1
        22        59     1
        23        30     1
        23        33     1
        23        54     1
        24        35     1
        24        38     1
        24        48     1
        25        29     1
        25        34     1
        25        47     1
        26        30     1
        26        33     1
        26        54     1
        27        40     1
        27        41     1
        27        42     1
        27        43     1
        27        46     1
        27        50     1
        27        51     1
        27        57     1
        27        60     1
        28        39     1
        28        47     1
        29        35     1
        29        38     1
        30        37     1
        30        44     1
        30        45     1
        30        49     1
        30        55     1
        30        56     1
        30        59     1
        31        33     1
        31        40     1
        31        41     1
        31        43     1
        31        54     1
        32        33     1
        32        40     1
        32        41     1
        32        43     1
        32        54     1
        33        36     1
        33        49     1
        33        52     1
        33        55     1
        33        56     1
        33        58     1
        33        61     1
        34        48     1
        35        39     1
        35        47     1
        36        50     1
        36        51     1
        36        54     1
        37        53     1
        37        54     1
        37        57     1
        37        60     1
        37        62     1
        37        67     1
        39        48     1
        40        44     1
        40        45     1
        40        49     1
        41        44     1
        41        45     1
        41        49     1
        42        52     1
        42        59     1
        42        61     1
        43        55     1
        43        56     1
        44        50     1
        44        51     1
        44        54     1
        45        50     1
        45        51     1
        45        54     1
        46        58     1
        46        59     1
        46        63     1
        46        66     1
        46        68     1
        46        69     1
        46        76     1
        50        55     1
        50        56     1
        51        55     1
        51        56     1
        52        60     1
        52        62     1
        52        67     1
        53        58     1
        53        59     1
        53        61     1
        54        59     1
        57        61     1
        58        60     1
        61        64     1
        61        65     1
        61        70     1
        61        71     1
        61        74     1
        61        75     1
        62        65     1
        62        66     1
        62        72     1
        62        73     1
        62        76     1
        63        66     1
        63        67     1
        64        67     1
        64        68     1
        64        69     1
        64        74     1
        64        75     1
        65        70     1
        65        71     1
        65        76     1
        66        72     1
        66        73     1
        67        68     1
        67        69     1
        68        70     1
        68        71     1
        69        70     1
        69        71     1
        70        72     1
        70        73     1
        71        72     1
        71        73     1
        74        76     1
        75        76     1
