; ITP file created by ByteFF-ML, 2025-12-06 08:10:14.240299

[ atomtypes ]
;name           bonded.type        at.num        mass        charge   ptype           sigma         epsilon
 c0bf                                   6      0.0000       0.00000       A     3.39759e-01     4.49643e-01
 h1bf                                   1      0.0000       0.00000       A     2.60016e-01     8.70704e-02
 h2bf                                   1      0.0000       0.00000       A     2.60016e-01     8.70704e-02
 h3bf                                   1      0.0000       0.00000       A     2.60016e-01     8.70704e-02
 c4bf                                   6      0.0000       0.00000       A     3.31571e-01     4.14142e-01
 o5bf                                   8      0.0000       0.00000       A     3.04736e-01     6.12198e-01
 n6bf                                   7      0.0000       0.00000       A     3.26918e-01     4.88910e-01
 h7bf                                   1      0.0000       0.00000       A     1.10581e-01     4.00581e-02
 c8bf                                   6      0.0000       0.00000       A     3.40196e-01     4.52850e-01
 h9bf                                   1      0.0000       0.00000       A     2.42552e-01     8.80025e-02
 c10bf                                  6      0.0000       0.00000       A     3.39753e-01     4.51539e-01
 h11bf                                  1      0.0000       0.00000       A     2.42186e-01     8.70863e-02
 c12bf                                  6      0.0000       0.00000       A     3.39826e-01     4.49268e-01
 h13bf                                  1      0.0000       0.00000       A     2.60038e-01     8.81158e-02
 h14bf                                  1      0.0000       0.00000       A     2.60038e-01     8.81158e-02
 c15bf                                  6      0.0000       0.00000       A     3.39787e-01     4.50885e-01
 h16bf                                  1      0.0000       0.00000       A     1.87782e-01     8.61542e-02
 h17bf                                  1      0.0000       0.00000       A     1.87782e-01     8.61542e-02
 c18bf                                  6      0.0000       0.00000       A     3.31422e-01     4.12179e-01
 o19bf                                  8      0.0000       0.00000       A     3.24609e-01     3.92421e-01
 h20bf                                  1      0.0000       0.00000       A     5.35605e-02     1.98375e-02
 n21bf                                  7      0.0000       0.00000       A     2.67375e-01     7.04506e+00
 h22bf                                  1      0.0000       0.00000       A     1.10868e-01     4.18346e-02
 c23bf                                  6      0.0000       0.00000       A     3.31516e-01     4.12672e-01
 h24bf                                  1      0.0000       0.00000       A     2.62462e-01     6.71642e-02
 h25bf                                  1      0.0000       0.00000       A     1.10868e-01     4.18346e-02
 c26bf                                  6      0.0000       0.00000       A     3.40054e-01     4.49570e-01
 c27bf                                  6      0.0000       0.00000       A     3.31520e-01     4.13508e-01
 f28bf                                  9      0.0000       0.00000       A     3.03421e-01     3.47466e-01
 c29bf                                  6      0.0000       0.00000       A     3.39962e-01     4.51215e-01
 h30bf                                  1      0.0000       0.00000       A     2.59836e-01     8.67256e-02
 h31bf                                  1      0.0000       0.00000       A     2.59836e-01     8.67256e-02
 c32bf                                  6      0.0000       0.00000       A     3.30971e-01     4.13465e-01
 c33bf                                  6      0.0000       0.00000       A     3.31572e-01     4.12292e-01
 h34bf                                  1      0.0000       0.00000       A     2.62456e-01     6.72600e-02
 c35bf                                  6      0.0000       0.00000       A     3.39866e-01     4.50704e-01
 c36bf                                  6      0.0000       0.00000       A     3.31692e-01     4.16569e-01
 c37bf                                  6      0.0000       0.00000       A     3.31520e-01     4.13508e-01
 f38bf                                  9      0.0000       0.00000       A     3.03421e-01     3.47466e-01
 h39bf                                  1      0.0000       0.00000       A     2.60178e-01     8.66937e-02
 h40bf                                  1      0.0000       0.00000       A     2.60178e-01     8.66937e-02
 h41bf                                  1      0.0000       0.00000       A     2.62645e-01     6.78266e-02
 c42bf                                  6      0.0000       0.00000       A     3.39895e-01     4.51375e-01
 h43bf                                  1      0.0000       0.00000       A     2.59998e-01     8.72507e-02
 h44bf                                  1      0.0000       0.00000       A     2.59998e-01     8.72507e-02
 c45bf                                  6      0.0000       0.00000       A     3.31357e-01     4.14324e-01
 c46bf                                  6      0.0000       0.00000       A     3.31516e-01     4.12672e-01
 h47bf                                  1      0.0000       0.00000       A     2.62462e-01     6.71642e-02
 c48bf                                  6      0.0000       0.00000       A     3.39866e-01     4.50704e-01
 h49bf                                  1      0.0000       0.00000       A     2.60178e-01     8.66937e-02
 h50bf                                  1      0.0000       0.00000       A     2.60178e-01     8.66937e-02
 c51bf                                  6      0.0000       0.00000       A     3.31499e-01     4.12041e-01
 h52bf                                  1      0.0000       0.00000       A     2.62473e-01     6.75840e-02
 c53bf                                  6      0.0000       0.00000       A     3.39962e-01     4.51215e-01
 h54bf                                  1      0.0000       0.00000       A     2.59836e-01     8.67256e-02
 h55bf                                  1      0.0000       0.00000       A     2.59836e-01     8.67256e-02
 c56bf                                  6      0.0000       0.00000       A     3.31506e-01     4.13277e-01
 h57bf                                  1      0.0000       0.00000       A     2.62517e-01     6.73860e-02
 c58bf                                  6      0.0000       0.00000       A     3.31481e-01     4.12696e-01
 h59bf                                  1      0.0000       0.00000       A     2.62654e-01     6.75121e-02
 n60bf                                  7      0.0000       0.00000       A     3.19042e-01     8.98777e-01
 c61bf                                  6      0.0000       0.00000       A     3.39787e-01     4.50824e-01
 c62bf                                  6      0.0000       0.00000       A     3.39672e-01     4.52368e-01
 c63bf                                  6      0.0000       0.00000       A     3.39719e-01     4.51510e-01
 o64bf                                  8      0.0000       0.00000       A     3.15740e-01     2.99510e-01
 c65bf                                  6      0.0000       0.00000       A     3.39813e-01     4.52288e-01
 c66bf                                  6      0.0000       0.00000       A     3.39655e-01     4.50010e-01
 h67bf                                  1      0.0000       0.00000       A     2.42010e-01     8.74183e-02
 h68bf                                  1      0.0000       0.00000       A     2.42010e-01     8.74183e-02
 h69bf                                  1      0.0000       0.00000       A     2.59952e-01     8.82594e-02
 h70bf                                  1      0.0000       0.00000       A     2.59952e-01     8.82594e-02
 h71bf                                  1      0.0000       0.00000       A     2.42001e-01     8.65820e-02
 h72bf                                  1      0.0000       0.00000       A     2.42001e-01     8.65820e-02
 h73bf                                  1      0.0000       0.00000       A     2.42050e-01     8.76003e-02
 h74bf                                  1      0.0000       0.00000       A     2.42050e-01     8.76003e-02
 h75bf                                  1      0.0000       0.00000       A     2.41965e-01     8.68980e-02
 h76bf                                  1      0.0000       0.00000       A     2.41965e-01     8.68980e-02

[ moleculetype ]
;name             nrexcl
 44_0_ligand           3

[ atoms ]
;       nr            type      resi   res      atom      cgnr      charge          mass ; qtot
         1            c0bf         1   UNL        c0         1    -0.17635       12.0110 ; qtot   -0.176
         2            h1bf         1   UNL        h1         2     0.06225        1.0080 ; qtot   -0.114
         3            h2bf         1   UNL        h2         3     0.06225        1.0080 ; qtot   -0.052
         4            h3bf         1   UNL        h3         4     0.06225        1.0080 ; qtot    0.010
         5            c4bf         1   UNL        c4         5     0.60223       12.0110 ; qtot    0.613
         6            o5bf         1   UNL        o5         6    -0.61219       15.9990 ; qtot    0.000
         7            n6bf         1   UNL        n6         7    -0.51471       14.0070 ; qtot   -0.514
         8            h7bf         1   UNL        h7         8     0.32227        1.0080 ; qtot   -0.192
         9            c8bf         1   UNL        c8         9     0.10285       12.0110 ; qtot   -0.089
        10            h9bf         1   UNL        h9        10     0.08510        1.0080 ; qtot   -0.004
        11           c10bf         1   UNL       c10        11     0.15086       12.0110 ; qtot    0.147
        12           h11bf         1   UNL       h11        12     0.07889        1.0080 ; qtot    0.226
        13           c12bf         1   UNL       c12        13    -0.03751       12.0110 ; qtot    0.188
        14           h13bf         1   UNL       h13        14     0.06639        1.0080 ; qtot    0.255
        15           h14bf         1   UNL       h14        15     0.06639        1.0080 ; qtot    0.321
        16           c15bf         1   UNL       c15        16     0.11168       12.0110 ; qtot    0.433
        17           h16bf         1   UNL       h16        17     0.11120        1.0080 ; qtot    0.544
        18           h17bf         1   UNL       h17        18     0.11120        1.0080 ; qtot    0.655
        19           c18bf         1   UNL       c18        19    -0.03374       12.0110 ; qtot    0.621
        20           o19bf         1   UNL       o19        20    -0.69061       15.9990 ; qtot   -0.069
        21           h20bf         1   UNL       h20        21     0.49888        1.0080 ; qtot    0.430
        22           n21bf         1   UNL       n21        22    -0.82786       14.0070 ; qtot   -0.398
        23           h22bf         1   UNL       h22        23     0.51482        1.0080 ; qtot    0.117
        24           c23bf         1   UNL       c23        24    -0.15563       12.0110 ; qtot   -0.039
        25           h24bf         1   UNL       h24        25     0.13725        1.0080 ; qtot    0.098
        26           h25bf         1   UNL       h25        26     0.51482        1.0080 ; qtot    0.613
        27           c26bf         1   UNL       c26        27     0.21457       12.0110 ; qtot    0.828
        28           c27bf         1   UNL       c27        28     0.18913       12.0110 ; qtot    1.017
        29           f28bf         1   UNL       f28        29    -0.17421       18.9980 ; qtot    0.842
        30           c29bf         1   UNL       c29        30    -0.08790       12.0110 ; qtot    0.755
        31           h30bf         1   UNL       h30        31     0.07147        1.0080 ; qtot    0.826
        32           h31bf         1   UNL       h31        32     0.07147        1.0080 ; qtot    0.898
        33           c32bf         1   UNL       c32        33    -0.12324       12.0110 ; qtot    0.774
        34           c33bf         1   UNL       c33        34    -0.18801       12.0110 ; qtot    0.586
        35           h34bf         1   UNL       h34        35     0.15358        1.0080 ; qtot    0.740
        36           c35bf         1   UNL       c35        36    -0.07132       12.0110 ; qtot    0.669
        37           c36bf         1   UNL       c36        37    -0.16348       12.0110 ; qtot    0.505
        38           c37bf         1   UNL       c37        38     0.18913       12.0110 ; qtot    0.694
        39           f38bf         1   UNL       f38        39    -0.17421       18.9980 ; qtot    0.520
        40           h39bf         1   UNL       h39        40     0.05675        1.0080 ; qtot    0.577
        41           h40bf         1   UNL       h40        41     0.05675        1.0080 ; qtot    0.633
        42           h41bf         1   UNL       h41        42     0.12178        1.0080 ; qtot    0.755
        43           c42bf         1   UNL       c42        43    -0.08473       12.0110 ; qtot    0.671
        44           h43bf         1   UNL       h43        44     0.04473        1.0080 ; qtot    0.715
        45           h44bf         1   UNL       h44        45     0.04473        1.0080 ; qtot    0.760
        46           c45bf         1   UNL       c45        46     0.34307       12.0110 ; qtot    1.103
        47           c46bf         1   UNL       c46        47    -0.15563       12.0110 ; qtot    0.947
        48           h47bf         1   UNL       h47        48     0.13725        1.0080 ; qtot    1.085
        49           c48bf         1   UNL       c48        49    -0.07132       12.0110 ; qtot    1.013
        50           h49bf         1   UNL       h49        50     0.05675        1.0080 ; qtot    1.070
        51           h50bf         1   UNL       h50        51     0.05675        1.0080 ; qtot    1.127
        52           c51bf         1   UNL       c51        52    -0.17558       12.0110 ; qtot    0.951
        53           h52bf         1   UNL       h52        53     0.11473        1.0080 ; qtot    1.066
        54           c53bf         1   UNL       c53        54    -0.08790       12.0110 ; qtot    0.978
        55           h54bf         1   UNL       h54        55     0.07147        1.0080 ; qtot    1.050
        56           h55bf         1   UNL       h55        56     0.07147        1.0080 ; qtot    1.121
        57           c56bf         1   UNL       c56        57    -0.05051       12.0110 ; qtot    1.071
        58           h57bf         1   UNL       h57        58     0.12156        1.0080 ; qtot    1.192
        59           c58bf         1   UNL       c58        59    -0.10926       12.0110 ; qtot    1.083
        60           h59bf         1   UNL       h59        60     0.12457        1.0080 ; qtot    1.207
        61           n60bf         1   UNL       n60        61    -0.81166       14.0070 ; qtot    0.396
        62           c61bf         1   UNL       c61        62     0.21464       12.0110 ; qtot    0.610
        63           c62bf         1   UNL       c62        63    -0.12782       12.0110 ; qtot    0.483
        64           c63bf         1   UNL       c63        64     0.15843       12.0110 ; qtot    0.641
        65           o64bf         1   UNL       o64        65    -0.46381       15.9990 ; qtot    0.177
        66           c65bf         1   UNL       c65        66     0.14319       12.0110 ; qtot    0.320
        67           c66bf         1   UNL       c66        67     0.18070       12.0110 ; qtot    0.501
        68           h67bf         1   UNL       h67        68     0.04765        1.0080 ; qtot    0.549
        69           h68bf         1   UNL       h68        69     0.04765        1.0080 ; qtot    0.596
        70           h69bf         1   UNL       h69        70     0.05473        1.0080 ; qtot    0.651
        71           h70bf         1   UNL       h70        71     0.05473        1.0080 ; qtot    0.706
        72           h71bf         1   UNL       h71        72     0.04469        1.0080 ; qtot    0.751
        73           h72bf         1   UNL       h72        73     0.04469        1.0080 ; qtot    0.795
        74           h73bf         1   UNL       h73        74     0.04946        1.0080 ; qtot    0.845
        75           h74bf         1   UNL       h74        75     0.04946        1.0080 ; qtot    0.894
        76           h75bf         1   UNL       h75        76     0.05294        1.0080 ; qtot    0.947
        77           h76bf         1   UNL       h76        77     0.05294        1.0080 ; qtot    1.000

[ bonds ]
;       ai        aj funct               r               k
         1         2     1        0.109281   307290.514209
         1         3     1        0.109281   307290.514209
         1         4     1        0.109281   307290.514209
         1         5     1        0.151969   180454.982788
         5         6     1        0.123279   600628.726562
         5         7     1        0.137142   287890.534033
         7         8     1        0.101116   421821.972656
         7         9     1        0.146373   194348.676978
         9        10     1        0.109305   304137.115332
         9        11     1        0.154875   156247.858838
         9        13     1        0.154784   160322.049268
        11        12     1        0.109730   293205.725830
        11        16     1        0.153379   175303.407251
        11        20     1        0.143114   199672.896143
        13        14     1        0.109359   298803.204834
        13        15     1        0.109359   298803.204834
        13        19     1        0.151125   199379.959961
        16        17     1        0.108996   313885.574854
        16        18     1        0.108996   313885.574854
        16        22     1        0.150836   148835.725610
        19        24     1        0.140252   293000.075488
        19        47     1        0.140252   293000.075488
        20        21     1        0.097256   464269.040820
        22        23     1        0.103134   365660.710645
        22        26     1        0.103134   365660.710645
        22        27     1        0.155945    72994.666931
        24        25     1        0.108529   322235.571191
        24        28     1        0.139078   310079.983740
        27        30     1        0.154390   161645.471655
        27        33     1        0.152391   169624.043506
        27        54     1        0.154390   161645.471655
        28        29     1        0.135546   290992.169189
        28        34     1        0.139189   307398.306348
        30        31     1        0.109416   298922.182227
        30        32     1        0.109416   298922.182227
        30        36     1        0.153944   176575.768188
        33        37     1        0.140187   289040.035938
        33        59     1        0.140309   285500.030762
        34        35     1        0.108371   329625.908496
        34        38     1        0.139189   307398.306348
        36        40     1        0.109449   298707.696045
        36        41     1        0.109449   298707.696045
        36        43     1        0.153880   182223.491455
        37        42     1        0.108320   322378.783301
        37        46     1        0.141465   266067.797217
        38        39     1        0.135546   290992.143652
        38        47     1        0.139078   310079.958203
        43        44     1        0.109565   295187.277832
        43        45     1        0.109565   295187.277832
        43        49     1        0.153880   182223.478687
        46        52     1        0.141535   266768.739795
        46        61     1        0.139035   277249.399316
        47        48     1        0.108529   322235.571191
        49        50     1        0.109449   298707.721582
        49        51     1        0.109449   298707.721582
        49        54     1        0.153944   176575.755420
        52        53     1        0.108396   322109.571094
        52        57     1        0.139401   321673.090820
        54        55     1        0.109416   298922.156689
        54        56     1        0.109416   298922.156689
        57        58     1        0.108610   319930.132031
        57        59     1        0.139684   313221.788770
        59        60     1        0.108541   320118.774658
        61        62     1        0.146489   191587.362109
        61        67     1        0.146039   197744.295337
        62        63     1        0.153890   177103.607471
        62        68     1        0.109527   291526.533203
        62        69     1        0.109527   291526.533203
        63        64     1        0.153703   178498.431616
        63        70     1        0.109525   295626.720410
        63        71     1        0.109525   295626.720410
        64        65     1        0.142978   198001.977539
        64        72     1        0.109674   289360.986328
        64        73     1        0.109674   289360.986328
        65        66     1        0.142497   203064.351953
        66        67     1        0.153488   176135.240283
        66        74     1        0.109656   289645.776172
        66        75     1        0.109656   289645.776172
        67        76     1        0.109559   291464.018359
        67        77     1        0.109559   291464.018359

[ angles ]
;       ai        aj        ak funct           theta             cth
         1         5         6     1      121.559692      494.520952
         1         5         7     1      115.538086      521.033387
         2         1         3     1      108.611633      361.230424
         2         1         4     1      108.611633      361.230424
         2         1         5     1      110.304222      512.627784
         3         1         4     1      108.611633      361.230424
         3         1         5     1      110.304222      512.627784
         4         1         5     1      110.304222      512.627784
         5         7         8     1      117.683533      451.298692
         5         7         9     1      122.640366      552.466696
         6         5         7     1      122.450035      640.179772
         7         9        10     1      106.497803      505.172480
         7         9        11     1      110.426743      532.987563
         7         9        13     1      111.197876      573.809846
         8         7         9     1      117.095421      413.878559
         9        11        12     1      108.341751      462.109572
         9        11        16     1      112.884842      561.501023
         9        11        20     1      111.191750      612.905117
         9        13        14     1      108.267471      482.646515
         9        13        15     1      108.267471      482.646515
         9        13        19     1      112.656578      534.840632
        10         9        11     1      107.271194      477.840367
        10         9        13     1      108.351517      455.059031
        11         9        13     1      113.293007      563.278533
        11        16        17     1      111.060204      456.883339
        11        16        18     1      111.060204      456.883339
        11        16        22     1      109.917152      636.085151
        11        20        21     1      110.000771      551.136340
        12        11        16     1      108.906960      478.214965
        12        11        20     1      109.651207      458.729161
        13        19        24     1      120.204666      490.498346
        13        19        47     1      120.204666      490.498346
        14        13        15     1      106.998825      359.051949
        14        13        19     1      109.898193      498.113257
        15        13        19     1      109.898193      498.113257
        16        11        20     1      104.964554      637.700948
        16        22        23     1      107.818253      499.612924
        16        22        26     1      107.818253      499.612924
        16        22        27     1      119.469627      549.247360
        17        16        18     1      109.240089      345.596446
        17        16        22     1      107.771469      547.277875
        18        16        22     1      107.771469      547.277875
        19        24        25     1      121.399818      395.876206
        19        24        28     1      119.171677      687.357857
        19        47        38     1      119.171677      687.357857
        19        47        48     1      121.399818      395.876206
        22        27        30     1      107.319801      660.579261
        22        27        33     1      105.604599      660.178201
        22        27        54     1      107.319801      660.579198
        23        22        26     1      106.733261      396.539341
        23        22        27     1      107.354149      449.634247
        24        19        47     1      119.304344      683.717670
        24        28        29     1      118.697449      556.856206
        24        28        34     1      123.014793      599.300542
        25        24        28     1      119.458008      430.140782
        26        22        27     1      107.354149      449.634247
        27        30        31     1      109.294968      478.790316
        27        30        32     1      109.294968      478.790316
        27        30        36     1      112.354881      593.602574
        27        33        37     1      120.382408      443.752827
        27        33        59     1      120.735817      513.733349
        27        54        49     1      112.354881      593.602574
        27        54        55     1      109.294968      478.790252
        27        54        56     1      109.294968      478.790252
        28        34        35     1      121.810081      421.339609
        28        34        38     1      116.394432      716.641388
        29        28        34     1      118.251686      546.060393
        30        27        33     1      114.140602      600.844004
        30        27        54     1      110.259888      514.458795
        30        36        40     1      109.192032      512.058562
        30        36        41     1      109.192032      512.058562
        30        36        43     1      111.497757      644.440830
        31        30        32     1      106.345482      358.854388
        31        30        36     1      109.594704      502.313345
        32        30        36     1      109.594704      502.313345
        33        27        54     1      114.140602      600.843941
        33        37        42     1      120.188477      407.557518
        33        37        46     1      121.710617      703.315869
        33        59        57     1      119.439499      655.500697
        33        59        60     1      121.413048      411.013998
        34        38        39     1      118.251686      546.060393
        34        38        47     1      123.014793      599.300542
        35        34        38     1      121.810081      421.339641
        36        43        44     1      109.732216      505.339301
        36        43        45     1      109.732216      505.339301
        36        43        49     1      111.340858      582.517809
        37        33        59     1      119.123703      625.071315
        37        46        52     1      117.369019      638.085537
        37        46        61     1      121.211441      481.718433
        38        47        48     1      119.458008      430.140782
        39        38        47     1      118.697449      556.856206
        40        36        41     1      106.261375      362.881718
        40        36        43     1      110.076126      490.303881
        41        36        43     1      110.076126      490.303881
        42        37        46     1      118.809448      433.845003
        43        49        50     1      110.076126      490.303913
        43        49        51     1      110.076126      490.303913
        43        49        54     1      111.497765      644.440830
        44        43        45     1      106.436600      366.271003
        44        43        49     1      109.732216      505.339301
        45        43        49     1      109.732216      505.339301
        46        52        53     1      120.247658      428.802190
        46        52        57     1      120.683289      767.935099
        46        61        62     1      119.668312      519.277807
        46        61        67     1      119.726059      521.189100
        49        54        55     1      109.594704      502.313409
        49        54        56     1      109.594704      502.313409
        50        49        51     1      106.261375      362.881718
        50        49        54     1      109.192032      512.058562
        51        49        54     1      109.192032      512.058562
        52        46        61     1      121.538376      552.066529
        52        57        58     1      119.220337      434.077168
        52        57        59     1      120.901810      695.234332
        53        52        57     1      119.065353      430.539927
        55        54        56     1      106.345482      358.854420
        57        59        60     1      119.139694      439.521041
        58        57        59     1      119.723129      431.554484
        61        62        63     1      114.019089      593.155675
        61        62        68     1      108.731262      424.239315
        61        62        69     1      108.731262      424.239315
        61        67        66     1      114.029068      600.339646
        61        67        76     1      109.492249      420.558556
        61        67        77     1      109.492249      420.558556
        62        61        67     1      116.738014      488.054062
        62        63        64     1      114.386307      687.032387
        62        63        70     1      108.884804      506.678212
        62        63        71     1      108.884804      506.678212
        63        62        68     1      109.079002      482.517808
        63        62        69     1      109.079002      482.517744
        63        64        65     1      114.145126      580.494248
        63        64        72     1      109.926208      479.041378
        63        64        73     1      109.926208      479.041378
        64        63        70     1      108.865677      498.693173
        64        63        71     1      108.865677      498.693173
        64        65        66     1      115.298119      608.181071
        65        64        72     1      107.386429      463.357251
        65        64        73     1      107.386429      463.357251
        65        66        67     1      114.395668      595.676187
        65        66        74     1      107.946266      459.827480
        65        66        75     1      107.946266      459.827480
        66        67        76     1      108.270241      494.673121
        66        67        77     1      108.270241      494.673121
        67        66        74     1      109.165512      491.672415
        67        66        75     1      109.165512      491.672415
        68        62        69     1      106.540482      349.403934
        70        63        71     1      106.624130      361.776312
        72        64        73     1      107.539406      345.288309
        74        66        75     1      107.949989      340.953608
        76        67        77     1      106.990761      347.242824

[ dihedrals ] ; propers for gromacs 4.5 or higher, use funct 9
;       ai        aj        ak        al funct           phase               k        pn
         1         5         7         8     9        0.000000       -0.984680         1
         1         5         7         8     9      180.000000       10.713815         2
         1         5         7         8     9        0.000000        0.266309         3
         1         5         7         8     9      180.000000        1.049624         4
         1         5         7         9     9        0.000000        2.899698         1
         1         5         7         9     9      180.000000       10.926082         2
         1         5         7         9     9        0.000000        2.211648         3
         1         5         7         9     9      180.000000        0.541693         4
         2         1         5         6     9        0.000000        0.021300         1
         2         1         5         6     9      180.000000        0.079376         2
         2         1         5         6     9        0.000000       -0.551453         3
         2         1         5         6     9      180.000000        0.118634         4
         2         1         5         7     9        0.000000        0.050137         1
         2         1         5         7     9      180.000000        0.087192         2
         2         1         5         7     9        0.000000       -0.625790         3
         2         1         5         7     9      180.000000        0.214023         4
         3         1         5         6     9        0.000000        0.021300         1
         3         1         5         6     9      180.000000        0.079376         2
         3         1         5         6     9        0.000000       -0.551453         3
         3         1         5         6     9      180.000000        0.118634         4
         3         1         5         7     9        0.000000        0.050137         1
         3         1         5         7     9      180.000000        0.087192         2
         3         1         5         7     9        0.000000       -0.625790         3
         3         1         5         7     9      180.000000        0.214023         4
         4         1         5         6     9        0.000000        0.021300         1
         4         1         5         6     9      180.000000        0.079376         2
         4         1         5         6     9        0.000000       -0.551453         3
         4         1         5         6     9      180.000000        0.118634         4
         4         1         5         7     9        0.000000        0.050137         1
         4         1         5         7     9      180.000000        0.087192         2
         4         1         5         7     9        0.000000       -0.625790         3
         4         1         5         7     9      180.000000        0.214023         4
         5         7         9        10     9        0.000000       -0.179301         1
         5         7         9        10     9      180.000000       -0.134417         2
         5         7         9        10     9        0.000000        0.024570         3
         5         7         9        10     9      180.000000        0.224108         4
         5         7         9        11     9        0.000000        5.050321         1
         5         7         9        11     9      180.000000       -0.563329         2
         5         7         9        11     9        0.000000        0.226315         3
         5         7         9        11     9      180.000000        0.154439         4
         5         7         9        13     9        0.000000        0.167201         1
         5         7         9        13     9      180.000000        0.020953         2
         5         7         9        13     9        0.000000        0.412500         3
         5         7         9        13     9      180.000000        0.148209         4
         6         5         7         8     9        0.000000        0.832867         1
         6         5         7         8     9      180.000000       11.780037         2
         6         5         7         8     9        0.000000       -0.375981         3
         6         5         7         8     9      180.000000        0.948325         4
         6         5         7         9     9        0.000000        1.017241         1
         6         5         7         9     9      180.000000        8.664891         2
         6         5         7         9     9        0.000000        1.257682         3
         6         5         7         9     9      180.000000       -2.081175         4
         7         9        11        12     9        0.000000       -0.330930         1
         7         9        11        12     9      180.000000        0.160754         2
         7         9        11        12     9        0.000000        0.605276         3
         7         9        11        12     9      180.000000        0.012970         4
         7         9        11        16     9        0.000000        0.004375         1
         7         9        11        16     9      180.000000        0.355582         2
         7         9        11        16     9        0.000000        0.432313         3
         7         9        11        16     9      180.000000       -0.051368         4
         7         9        11        20     9        0.000000        3.106881         1
         7         9        11        20     9      180.000000       -1.127417         2
         7         9        11        20     9        0.000000        0.329768         3
         7         9        11        20     9      180.000000       -0.362984         4
         7         9        13        14     9        0.000000        0.023705         1
         7         9        13        14     9      180.000000       -0.046296         2
         7         9        13        14     9        0.000000        0.601711         3
         7         9        13        14     9      180.000000       -0.015242         4
         7         9        13        15     9        0.000000        0.023705         1
         7         9        13        15     9      180.000000       -0.046296         2
         7         9        13        15     9        0.000000        0.601711         3
         7         9        13        15     9      180.000000       -0.015242         4
         7         9        13        19     9        0.000000        0.020857         1
         7         9        13        19     9      180.000000       -0.227535         2
         7         9        13        19     9        0.000000        0.602448         3
         7         9        13        19     9      180.000000        0.017764         4
         8         7         9        10     9        0.000000       -0.341457         1
         8         7         9        10     9      180.000000        0.079791         2
         8         7         9        10     9        0.000000        0.711576         3
         8         7         9        10     9      180.000000        0.176784         4
         8         7         9        11     9        0.000000       -1.745272         1
         8         7         9        11     9      180.000000       -1.615864         2
         8         7         9        11     9        0.000000        0.669381         3
         8         7         9        11     9      180.000000        0.033695         4
         8         7         9        13     9        0.000000       -0.797731         1
         8         7         9        13     9      180.000000       -0.748925         2
         8         7         9        13     9        0.000000        0.646439         3
         8         7         9        13     9      180.000000        0.076137         4
         9        11        16        17     9        0.000000       -0.126504         1
         9        11        16        17     9      180.000000       -0.019152         2
         9        11        16        17     9        0.000000        0.628461         3
         9        11        16        17     9      180.000000        0.073642         4
         9        11        16        18     9        0.000000       -0.126504         1
         9        11        16        18     9      180.000000       -0.019152         2
         9        11        16        18     9        0.000000        0.628461         3
         9        11        16        18     9      180.000000        0.073642         4
         9        11        16        22     9        0.000000        1.936345         1
         9        11        16        22     9      180.000000       -1.159782         2
         9        11        16        22     9        0.000000        0.704520         3
         9        11        16        22     9      180.000000       -0.010777         4
         9        11        20        21     9        0.000000        3.235327         1
         9        11        20        21     9      180.000000       -2.294890         2
         9        11        20        21     9        0.000000        1.178564         3
         9        11        20        21     9      180.000000       -0.104336         4
         9        13        19        24     9        0.000000       -0.434991         1
         9        13        19        24     9      180.000000        0.453058         2
         9        13        19        24     9        0.000000        0.234189         3
         9        13        19        24     9      180.000000        0.023247         4
         9        13        19        47     9        0.000000       -0.434991         1
         9        13        19        47     9      180.000000        0.453058         2
         9        13        19        47     9        0.000000        0.234189         3
         9        13        19        47     9      180.000000        0.023247         4
        10         9        11        12     9        0.000000        0.643778         1
        10         9        11        12     9      180.000000       -0.177609         2
        10         9        11        12     9        0.000000        0.674420         3
        10         9        11        12     9      180.000000       -0.134003         4
        10         9        11        16     9        0.000000       -0.936021         1
        10         9        11        16     9      180.000000        0.138600         2
        10         9        11        16     9        0.000000        0.563772         3
        10         9        11        16     9      180.000000        0.010756         4
        10         9        11        20     9        0.000000       -0.418147         1
        10         9        11        20     9      180.000000       -0.069201         2
        10         9        11        20     9        0.000000        0.567563         3
        10         9        11        20     9      180.000000       -0.028416         4
        10         9        13        14     9        0.000000        0.220682         1
        10         9        13        14     9      180.000000        0.105451         2
        10         9        13        14     9        0.000000        0.645369         3
        10         9        13        14     9      180.000000       -0.080367         4
        10         9        13        15     9        0.000000        0.220682         1
        10         9        13        15     9      180.000000        0.105451         2
        10         9        13        15     9        0.000000        0.645369         3
        10         9        13        15     9      180.000000       -0.080367         4
        10         9        13        19     9        0.000000       -0.400934         1
        10         9        13        19     9      180.000000        0.178764         2
        10         9        13        19     9        0.000000        0.717846         3
        10         9        13        19     9      180.000000       -0.040456         4
        11         9        13        14     9        0.000000       -0.477508         1
        11         9        13        14     9      180.000000        0.019137         2
        11         9        13        14     9        0.000000        0.477494         3
        11         9        13        14     9      180.000000        0.046079         4
        11         9        13        15     9        0.000000       -0.477508         1
        11         9        13        15     9      180.000000        0.019137         2
        11         9        13        15     9        0.000000        0.477494         3
        11         9        13        15     9      180.000000        0.046079         4
        11         9        13        19     9        0.000000        1.868184         1
        11         9        13        19     9      180.000000       -0.476961         2
        11         9        13        19     9        0.000000        0.646744         3
        11         9        13        19     9      180.000000        0.008005         4
        11        16        22        23     9        0.000000        1.741429         1
        11        16        22        23     9      180.000000       -0.446185         2
        11        16        22        23     9        0.000000        0.387189         3
        11        16        22        23     9      180.000000       -0.096213         4
        11        16        22        26     9        0.000000        1.741429         1
        11        16        22        26     9      180.000000       -0.446185         2
        11        16        22        26     9        0.000000        0.387189         3
        11        16        22        26     9      180.000000       -0.096213         4
        11        16        22        27     9        0.000000       -2.052651         1
        11        16        22        27     9      180.000000       -0.453541         2
        11        16        22        27     9        0.000000        0.411320         3
        11        16        22        27     9      180.000000        0.041472         4
        12        11         9        13     9        0.000000       -0.468970         1
        12        11         9        13     9      180.000000        0.120167         2
        12        11         9        13     9        0.000000        0.585544         3
        12        11         9        13     9      180.000000        0.057195         4
        12        11        16        17     9        0.000000       -0.087599         1
        12        11        16        17     9      180.000000        0.018618         2
        12        11        16        17     9        0.000000        0.654544         3
        12        11        16        17     9      180.000000       -0.077010         4
        12        11        16        18     9        0.000000       -0.087599         1
        12        11        16        18     9      180.000000        0.018618         2
        12        11        16        18     9        0.000000        0.654544         3
        12        11        16        18     9      180.000000       -0.077010         4
        12        11        16        22     9        0.000000       -0.515792         1
        12        11        16        22     9      180.000000       -0.327777         2
        12        11        16        22     9        0.000000        0.689629         3
        12        11        16        22     9      180.000000        0.083348         4
        12        11        20        21     9        0.000000       -0.307051         1
        12        11        20        21     9      180.000000        0.107825         2
        12        11        20        21     9        0.000000        0.883692         3
        12        11        20        21     9      180.000000        0.026240         4
        13         9        11        16     9        0.000000        1.013015         1
        13         9        11        16     9      180.000000        0.066150         2
        13         9        11        16     9        0.000000        0.619164         3
        13         9        11        16     9      180.000000       -0.069290         4
        13         9        11        20     9        0.000000       -0.841251         1
        13         9        11        20     9      180.000000        0.042010         2
        13         9        11        20     9        0.000000        0.600458         3
        13         9        11        20     9      180.000000       -0.036811         4
        13        19        24        25     9        0.000000       -0.160824         1
        13        19        24        25     9      180.000000       12.658724         2
        13        19        24        25     9        0.000000       -0.529256         3
        13        19        24        25     9      180.000000        0.225383         4
        13        19        24        28     9        0.000000        0.158953         1
        13        19        24        28     9      180.000000       15.991499         2
        13        19        24        28     9        0.000000       -0.281609         3
        13        19        24        28     9      180.000000       -0.244265         4
        13        19        47        38     9        0.000000        0.158952         1
        13        19        47        38     9      180.000000       15.991496         2
        13        19        47        38     9        0.000000       -0.281609         3
        13        19        47        38     9      180.000000       -0.244264         4
        13        19        47        48     9        0.000000       -0.160824         1
        13        19        47        48     9      180.000000       12.658723         2
        13        19        47        48     9        0.000000       -0.529256         3
        13        19        47        48     9      180.000000        0.225383         4
        14        13        19        24     9        0.000000        0.017126         1
        14        13        19        24     9      180.000000        0.005908         2
        14        13        19        24     9        0.000000        0.214915         3
        14        13        19        24     9      180.000000        0.010055         4
        14        13        19        47     9        0.000000        0.017127         1
        14        13        19        47     9      180.000000        0.005907         2
        14        13        19        47     9        0.000000        0.214915         3
        14        13        19        47     9      180.000000        0.010054         4
        15        13        19        24     9        0.000000        0.017126         1
        15        13        19        24     9      180.000000        0.005908         2
        15        13        19        24     9        0.000000        0.214915         3
        15        13        19        24     9      180.000000        0.010055         4
        15        13        19        47     9        0.000000        0.017127         1
        15        13        19        47     9      180.000000        0.005907         2
        15        13        19        47     9        0.000000        0.214915         3
        15        13        19        47     9      180.000000        0.010054         4
        16        11        20        21     9        0.000000       -0.911918         1
        16        11        20        21     9      180.000000       -2.218269         2
        16        11        20        21     9        0.000000        0.861332         3
        16        11        20        21     9      180.000000        0.065271         4
        16        22        27        30     9        0.000000       -0.165812         1
        16        22        27        30     9      180.000000        0.753081         2
        16        22        27        30     9        0.000000        0.858442         3
        16        22        27        30     9      180.000000        0.048335         4
        16        22        27        33     9        0.000000       -1.483406         1
        16        22        27        33     9      180.000000        0.036994         2
        16        22        27        33     9        0.000000        1.259339         3
        16        22        27        33     9      180.000000        0.105457         4
        16        22        27        54     9        0.000000       -0.165812         1
        16        22        27        54     9      180.000000        0.753082         2
        16        22        27        54     9        0.000000        0.858443         3
        16        22        27        54     9      180.000000        0.048336         4
        17        16        11        20     9        0.000000        0.517340         1
        17        16        11        20     9      180.000000       -0.334264         2
        17        16        11        20     9        0.000000        0.615665         3
        17        16        11        20     9      180.000000       -0.010583         4
        17        16        22        23     9        0.000000        0.063203         1
        17        16        22        23     9      180.000000       -0.105367         2
        17        16        22        23     9        0.000000        0.307068         3
        17        16        22        23     9      180.000000        0.101692         4
        17        16        22        26     9        0.000000        0.063203         1
        17        16        22        26     9      180.000000       -0.105367         2
        17        16        22        26     9        0.000000        0.307068         3
        17        16        22        26     9      180.000000        0.101692         4
        17        16        22        27     9        0.000000       -0.265338         1
        17        16        22        27     9      180.000000       -0.013833         2
        17        16        22        27     9        0.000000        0.584972         3
        17        16        22        27     9      180.000000       -0.059221         4
        18        16        11        20     9        0.000000        0.517340         1
        18        16        11        20     9      180.000000       -0.334264         2
        18        16        11        20     9        0.000000        0.615665         3
        18        16        11        20     9      180.000000       -0.010583         4
        18        16        22        23     9        0.000000        0.063203         1
        18        16        22        23     9      180.000000       -0.105367         2
        18        16        22        23     9        0.000000        0.307068         3
        18        16        22        23     9      180.000000        0.101692         4
        18        16        22        26     9        0.000000        0.063203         1
        18        16        22        26     9      180.000000       -0.105367         2
        18        16        22        26     9        0.000000        0.307068         3
        18        16        22        26     9      180.000000        0.101692         4
        18        16        22        27     9        0.000000       -0.265338         1
        18        16        22        27     9      180.000000       -0.013833         2
        18        16        22        27     9        0.000000        0.584972         3
        18        16        22        27     9      180.000000       -0.059221         4
        19        24        28        29     9        0.000000        0.558321         1
        19        24        28        29     9      180.000000       22.600098         2
        19        24        28        29     9        0.000000        0.580146         3
        19        24        28        29     9      180.000000       -0.676260         4
        19        24        28        34     9        0.000000       -0.009833         1
        19        24        28        34     9      180.000000       16.983542         2
        19        24        28        34     9        0.000000       -1.224300         3
        19        24        28        34     9      180.000000       -0.325713         4
        19        47        38        34     9        0.000000       -0.009834         1
        19        47        38        34     9      180.000000       16.983544         2
        19        47        38        34     9        0.000000       -1.224300         3
        19        47        38        34     9      180.000000       -0.325713         4
        19        47        38        39     9        0.000000        0.558322         1
        19        47        38        39     9      180.000000       22.600100         2
        19        47        38        39     9        0.000000        0.580146         3
        19        47        38        39     9      180.000000       -0.676260         4
        20        11        16        22     9        0.000000       11.736838         1
        20        11        16        22     9      180.000000       -2.757430         2
        20        11        16        22     9        0.000000        0.182550         3
        20        11        16        22     9      180.000000        0.345479         4
        22        27        30        31     9        0.000000       -0.222628         1
        22        27        30        31     9      180.000000       -0.303679         2
        22        27        30        31     9        0.000000        0.571487         3
        22        27        30        31     9      180.000000       -0.014225         4
        22        27        30        32     9        0.000000       -0.222628         1
        22        27        30        32     9      180.000000       -0.303679         2
        22        27        30        32     9        0.000000        0.571487         3
        22        27        30        32     9      180.000000       -0.014225         4
        22        27        30        36     9        0.000000        4.866684         1
        22        27        30        36     9      180.000000       -1.267429         2
        22        27        30        36     9        0.000000        0.414348         3
        22        27        30        36     9      180.000000        0.237334         4
        22        27        33        37     9        0.000000        3.909084         1
        22        27        33        37     9      180.000000       -0.043509         2
        22        27        33        37     9        0.000000        0.127458         3
        22        27        33        37     9      180.000000        0.128631         4
        22        27        33        59     9        0.000000        0.450238         1
        22        27        33        59     9      180.000000        0.059913         2
        22        27        33        59     9        0.000000        0.204227         3
        22        27        33        59     9      180.000000        0.090423         4
        22        27        54        49     9        0.000000        4.866684         1
        22        27        54        49     9      180.000000       -1.267427         2
        22        27        54        49     9        0.000000        0.414348         3
        22        27        54        49     9      180.000000        0.237334         4
        22        27        54        55     9        0.000000       -0.222628         1
        22        27        54        55     9      180.000000       -0.303679         2
        22        27        54        55     9        0.000000        0.571486         3
        22        27        54        55     9      180.000000       -0.014225         4
        22        27        54        56     9        0.000000       -0.222628         1
        22        27        54        56     9      180.000000       -0.303679         2
        22        27        54        56     9        0.000000        0.571486         3
        22        27        54        56     9      180.000000       -0.014225         4
        23        22        27        30     9        0.000000        0.161895         1
        23        22        27        30     9      180.000000        0.499751         2
        23        22        27        30     9        0.000000        0.510619         3
        23        22        27        30     9      180.000000       -0.057562         4
        23        22        27        33     9        0.000000        2.631626         1
        23        22        27        33     9      180.000000        0.431411         2
        23        22        27        33     9        0.000000        0.595566         3
        23        22        27        33     9      180.000000       -0.232644         4
        23        22        27        54     9        0.000000        0.161895         1
        23        22        27        54     9      180.000000        0.499752         2
        23        22        27        54     9        0.000000        0.510619         3
        23        22        27        54     9      180.000000       -0.057562         4
        24        19        47        38     9        0.000000       -0.205612         1
        24        19        47        38     9      180.000000       19.123311         2
        24        19        47        38     9        0.000000       -1.453324         3
        24        19        47        38     9      180.000000       -0.401233         4
        24        19        47        48     9        0.000000       -0.009058         1
        24        19        47        48     9      180.000000       14.469316         2
        24        19        47        48     9        0.000000       -0.494860         3
        24        19        47        48     9      180.000000        0.044016         4
        24        28        34        35     9        0.000000        0.079110         1
        24        28        34        35     9      180.000000       12.428293         2
        24        28        34        35     9        0.000000       -0.413714         3
        24        28        34        35     9      180.000000        0.183917         4
        24        28        34        38     9        0.000000       -0.218749         1
        24        28        34        38     9      180.000000       17.337808         2
        24        28        34        38     9        0.000000       -1.203634         3
        24        28        34        38     9      180.000000       -0.413087         4
        25        24        19        47     9        0.000000       -0.009057         1
        25        24        19        47     9      180.000000       14.469320         2
        25        24        19        47     9        0.000000       -0.494861         3
        25        24        19        47     9      180.000000        0.044015         4
        25        24        28        29     9        0.000000        0.255465         1
        25        24        28        29     9      180.000000       15.933598         2
        25        24        28        29     9        0.000000        0.317179         3
        25        24        28        29     9      180.000000        0.158737         4
        25        24        28        34     9        0.000000        0.177245         1
        25        24        28        34     9      180.000000       12.878740         2
        25        24        28        34     9        0.000000       -0.471654         3
        25        24        28        34     9      180.000000        0.154552         4
        26        22        27        30     9        0.000000        0.161895         1
        26        22        27        30     9      180.000000        0.499751         2
        26        22        27        30     9        0.000000        0.510619         3
        26        22        27        30     9      180.000000       -0.057562         4
        26        22        27        33     9        0.000000        2.631626         1
        26        22        27        33     9      180.000000        0.431411         2
        26        22        27        33     9        0.000000        0.595566         3
        26        22        27        33     9      180.000000       -0.232644         4
        26        22        27        54     9        0.000000        0.161895         1
        26        22        27        54     9      180.000000        0.499752         2
        26        22        27        54     9        0.000000        0.510619         3
        26        22        27        54     9      180.000000       -0.057562         4
        27        30        36        40     9        0.000000       -0.130223         1
        27        30        36        40     9      180.000000        0.051331         2
        27        30        36        40     9        0.000000        0.270893         3
        27        30        36        40     9      180.000000       -0.017080         4
        27        30        36        41     9        0.000000       -0.130223         1
        27        30        36        41     9      180.000000        0.051331         2
        27        30        36        41     9        0.000000        0.270893         3
        27        30        36        41     9      180.000000       -0.017080         4
        27        30        36        43     9        0.000000        1.860618         1
        27        30        36        43     9      180.000000       -1.859263         2
        27        30        36        43     9        0.000000        0.401048         3
        27        30        36        43     9      180.000000       -0.016731         4
        27        33        37        42     9        0.000000       -0.051120         1
        27        33        37        42     9      180.000000       12.567969         2
        27        33        37        42     9        0.000000       -0.212250         3
        27        33        37        42     9      180.000000        0.062442         4
        27        33        37        46     9        0.000000        0.554414         1
        27        33        37        46     9      180.000000       14.273471         2
        27        33        37        46     9        0.000000        0.143407         3
        27        33        37        46     9      180.000000       -0.220786         4
        27        33        59        57     9        0.000000        0.334703         1
        27        33        59        57     9      180.000000       14.115675         2
        27        33        59        57     9        0.000000        0.063810         3
        27        33        59        57     9      180.000000       -0.191692         4
        27        33        59        60     9        0.000000       -0.044543         1
        27        33        59        60     9      180.000000       12.302807         2
        27        33        59        60     9        0.000000       -0.152088         3
        27        33        59        60     9      180.000000        0.070422         4
        27        54        49        43     9        0.000000        1.860619         1
        27        54        49        43     9      180.000000       -1.859262         2
        27        54        49        43     9        0.000000        0.401048         3
        27        54        49        43     9      180.000000       -0.016731         4
        27        54        49        50     9        0.000000       -0.130223         1
        27        54        49        50     9      180.000000        0.051332         2
        27        54        49        50     9        0.000000        0.270893         3
        27        54        49        50     9      180.000000       -0.017081         4
        27        54        49        51     9        0.000000       -0.130223         1
        27        54        49        51     9      180.000000        0.051332         2
        27        54        49        51     9        0.000000        0.270893         3
        27        54        49        51     9      180.000000       -0.017081         4
        28        24        19        47     9        0.000000       -0.205612         1
        28        24        19        47     9      180.000000       19.123311         2
        28        24        19        47     9        0.000000       -1.453325         3
        28        24        19        47     9      180.000000       -0.401234         4
        28        34        38        39     9        0.000000        0.328224         1
        28        34        38        39     9      180.000000       23.258511         2
        28        34        38        39     9        0.000000        0.635698         3
        28        34        38        39     9      180.000000       -0.760693         4
        28        34        38        47     9        0.000000       -0.218749         1
        28        34        38        47     9      180.000000       17.337808         2
        28        34        38        47     9        0.000000       -1.203634         3
        28        34        38        47     9      180.000000       -0.413087         4
        29        28        34        35     9        0.000000        0.288913         1
        29        28        34        35     9      180.000000       15.093259         2
        29        28        34        35     9        0.000000        0.262813         3
        29        28        34        35     9      180.000000        0.238074         4
        29        28        34        38     9        0.000000        0.328225         1
        29        28        34        38     9      180.000000       23.258511         2
        29        28        34        38     9        0.000000        0.635697         3
        29        28        34        38     9      180.000000       -0.760693         4
        30        27        33        37     9        0.000000       -0.346888         1
        30        27        33        37     9      180.000000        0.356659         2
        30        27        33        37     9        0.000000        0.187090         3
        30        27        33        37     9      180.000000        0.107767         4
        30        27        33        59     9        0.000000       -0.147033         1
        30        27        33        59     9      180.000000        0.120048         2
        30        27        33        59     9        0.000000        0.237035         3
        30        27        33        59     9      180.000000        0.111761         4
        30        27        54        49     9        0.000000        3.723563         1
        30        27        54        49     9      180.000000       -1.539051         2
        30        27        54        49     9        0.000000       -0.014278         3
        30        27        54        49     9      180.000000       -0.066310         4
        30        27        54        55     9        0.000000       -0.084404         1
        30        27        54        55     9      180.000000        0.049439         2
        30        27        54        55     9        0.000000        0.231010         3
        30        27        54        55     9      180.000000        0.020760         4
        30        27        54        56     9        0.000000       -0.084404         1
        30        27        54        56     9      180.000000        0.049439         2
        30        27        54        56     9        0.000000        0.231010         3
        30        27        54        56     9      180.000000        0.020760         4
        30        36        43        44     9        0.000000       -0.033842         1
        30        36        43        44     9      180.000000        0.030998         2
        30        36        43        44     9        0.000000        0.301563         3
        30        36        43        44     9      180.000000       -0.003347         4
        30        36        43        45     9        0.000000       -0.033842         1
        30        36        43        45     9      180.000000        0.030998         2
        30        36        43        45     9        0.000000        0.301563         3
        30        36        43        45     9      180.000000       -0.003347         4
        30        36        43        49     9        0.000000        0.092860         1
        30        36        43        49     9      180.000000       -0.442578         2
        30        36        43        49     9        0.000000        0.283583         3
        30        36        43        49     9      180.000000       -0.020985         4
        31        30        27        33     9        0.000000       -0.006577         1
        31        30        27        33     9      180.000000       -0.035109         2
        31        30        27        33     9        0.000000        0.585089         3
        31        30        27        33     9      180.000000       -0.019729         4
        31        30        27        54     9        0.000000       -0.084404         1
        31        30        27        54     9      180.000000        0.049439         2
        31        30        27        54     9        0.000000        0.231010         3
        31        30        27        54     9      180.000000        0.020760         4
        31        30        36        40     9        0.000000       -0.004378         1
        31        30        36        40     9      180.000000        0.026663         2
        31        30        36        40     9        0.000000        0.377130         3
        31        30        36        40     9      180.000000        0.032123         4
        31        30        36        41     9        0.000000       -0.004378         1
        31        30        36        41     9      180.000000        0.026663         2
        31        30        36        41     9        0.000000        0.377130         3
        31        30        36        41     9      180.000000        0.032123         4
        31        30        36        43     9        0.000000       -0.103203         1
        31        30        36        43     9      180.000000        0.082668         2
        31        30        36        43     9        0.000000        0.373796         3
        31        30        36        43     9      180.000000        0.018453         4
        32        30        27        33     9        0.000000       -0.006577         1
        32        30        27        33     9      180.000000       -0.035109         2
        32        30        27        33     9        0.000000        0.585089         3
        32        30        27        33     9      180.000000       -0.019729         4
        32        30        27        54     9        0.000000       -0.084404         1
        32        30        27        54     9      180.000000        0.049439         2
        32        30        27        54     9        0.000000        0.231010         3
        32        30        27        54     9      180.000000        0.020760         4
        32        30        36        40     9        0.000000       -0.004378         1
        32        30        36        40     9      180.000000        0.026663         2
        32        30        36        40     9        0.000000        0.377130         3
        32        30        36        40     9      180.000000        0.032123         4
        32        30        36        41     9        0.000000       -0.004378         1
        32        30        36        41     9      180.000000        0.026663         2
        32        30        36        41     9        0.000000        0.377130         3
        32        30        36        41     9      180.000000        0.032123         4
        32        30        36        43     9        0.000000       -0.103203         1
        32        30        36        43     9      180.000000        0.082668         2
        32        30        36        43     9        0.000000        0.373796         3
        32        30        36        43     9      180.000000        0.018453         4
        33        27        30        36     9        0.000000       -0.718964         1
        33        27        30        36     9      180.000000        0.078410         2
        33        27        30        36     9        0.000000        0.528743         3
        33        27        30        36     9      180.000000        0.063762         4
        33        27        54        49     9        0.000000       -0.718964         1
        33        27        54        49     9      180.000000        0.078411         2
        33        27        54        49     9        0.000000        0.528743         3
        33        27        54        49     9      180.000000        0.063762         4
        33        27        54        55     9        0.000000       -0.006576         1
        33        27        54        55     9      180.000000       -0.035110         2
        33        27        54        55     9        0.000000        0.585089         3
        33        27        54        55     9      180.000000       -0.019729         4
        33        27        54        56     9        0.000000       -0.006576         1
        33        27        54        56     9      180.000000       -0.035110         2
        33        27        54        56     9        0.000000        0.585089         3
        33        27        54        56     9      180.000000       -0.019729         4
        33        37        46        52     9        0.000000        0.166165         1
        33        37        46        52     9      180.000000       14.372275         2
        33        37        46        52     9        0.000000       -0.618701         3
        33        37        46        52     9      180.000000       -0.404316         4
        33        37        46        61     9        0.000000        0.187681         1
        33        37        46        61     9      180.000000       15.876609         2
        33        37        46        61     9        0.000000        0.152592         3
        33        37        46        61     9      180.000000       -0.697118         4
        33        59        57        52     9        0.000000        0.060444         1
        33        59        57        52     9      180.000000       18.634600         2
        33        59        57        52     9        0.000000       -1.755664         3
        33        59        57        52     9      180.000000       -0.414643         4
        33        59        57        58     9        0.000000       -0.012755         1
        33        59        57        58     9      180.000000       15.054565         2
        33        59        57        58     9        0.000000       -0.644378         3
        33        59        57        58     9      180.000000        0.057319         4
        34        38        47        48     9        0.000000        0.177244         1
        34        38        47        48     9      180.000000       12.878742         2
        34        38        47        48     9        0.000000       -0.471655         3
        34        38        47        48     9      180.000000        0.154551         4
        35        34        38        39     9        0.000000        0.288913         1
        35        34        38        39     9      180.000000       15.093259         2
        35        34        38        39     9        0.000000        0.262813         3
        35        34        38        39     9      180.000000        0.238074         4
        35        34        38        47     9        0.000000        0.079111         1
        35        34        38        47     9      180.000000       12.428294         2
        35        34        38        47     9        0.000000       -0.413714         3
        35        34        38        47     9      180.000000        0.183917         4
        36        30        27        54     9        0.000000        3.723566         1
        36        30        27        54     9      180.000000       -1.539051         2
        36        30        27        54     9        0.000000       -0.014278         3
        36        30        27        54     9      180.000000       -0.066310         4
        36        43        49        50     9        0.000000       -0.039274         1
        36        43        49        50     9      180.000000        0.033389         2
        36        43        49        50     9        0.000000        0.272808         3
        36        43        49        50     9      180.000000       -0.003579         4
        36        43        49        51     9        0.000000       -0.039274         1
        36        43        49        51     9      180.000000        0.033389         2
        36        43        49        51     9        0.000000        0.272808         3
        36        43        49        51     9      180.000000       -0.003579         4
        36        43        49        54     9        0.000000        0.092861         1
        36        43        49        54     9      180.000000       -0.442578         2
        36        43        49        54     9        0.000000        0.283583         3
        36        43        49        54     9      180.000000       -0.020985         4
        37        33        27        54     9        0.000000       -0.346888         1
        37        33        27        54     9      180.000000        0.356660         2
        37        33        27        54     9        0.000000        0.187090         3
        37        33        27        54     9      180.000000        0.107767         4
        37        33        59        57     9        0.000000       -0.156750         1
        37        33        59        57     9      180.000000       18.750776         2
        37        33        59        57     9        0.000000       -1.787357         3
        37        33        59        57     9      180.000000       -0.324088         4
        37        33        59        60     9        0.000000        0.071611         1
        37        33        59        60     9      180.000000       14.253394         2
        37        33        59        60     9        0.000000       -0.617173         3
        37        33        59        60     9      180.000000        0.007171         4
        37        46        52        53     9        0.000000       -0.004150         1
        37        46        52        53     9      180.000000       12.211225         2
        37        46        52        53     9        0.000000       -0.390188         3
        37        46        52        53     9      180.000000        0.112107         4
        37        46        52        57     9        0.000000        0.111370         1
        37        46        52        57     9      180.000000       14.309949         2
        37        46        52        57     9        0.000000       -0.530571         3
        37        46        52        57     9      180.000000       -0.161528         4
        37        46        61        62     9        0.000000        0.312718         1
        37        46        61        62     9      180.000000        7.304107         2
        37        46        61        62     9        0.000000        0.001187         3
        37        46        61        62     9      180.000000        0.404152         4
        37        46        61        67     9        0.000000        0.317304         1
        37        46        61        67     9      180.000000        7.157992         2
        37        46        61        67     9        0.000000        0.039325         3
        37        46        61        67     9      180.000000        0.332754         4
        39        38        47        48     9        0.000000        0.255466         1
        39        38        47        48     9      180.000000       15.933598         2
        39        38        47        48     9        0.000000        0.317179         3
        39        38        47        48     9      180.000000        0.158738         4
        40        36        43        44     9        0.000000       -0.011324         1
        40        36        43        44     9      180.000000        0.007821         2
        40        36        43        44     9        0.000000        0.325915         3
        40        36        43        44     9      180.000000        0.007339         4
        40        36        43        45     9        0.000000       -0.011324         1
        40        36        43        45     9      180.000000        0.007821         2
        40        36        43        45     9        0.000000        0.325915         3
        40        36        43        45     9      180.000000        0.007339         4
        40        36        43        49     9        0.000000       -0.039273         1
        40        36        43        49     9      180.000000        0.033390         2
        40        36        43        49     9        0.000000        0.272808         3
        40        36        43        49     9      180.000000       -0.003579         4
        41        36        43        44     9        0.000000       -0.011324         1
        41        36        43        44     9      180.000000        0.007821         2
        41        36        43        44     9        0.000000        0.325915         3
        41        36        43        44     9      180.000000        0.007339         4
        41        36        43        45     9        0.000000       -0.011324         1
        41        36        43        45     9      180.000000        0.007821         2
        41        36        43        45     9        0.000000        0.325915         3
        41        36        43        45     9      180.000000        0.007339         4
        41        36        43        49     9        0.000000       -0.039273         1
        41        36        43        49     9      180.000000        0.033390         2
        41        36        43        49     9        0.000000        0.272808         3
        41        36        43        49     9      180.000000       -0.003579         4
        42        37        33        59     9        0.000000        0.123709         1
        42        37        33        59     9      180.000000       13.687777         2
        42        37        33        59     9        0.000000       -0.678667         3
        42        37        33        59     9      180.000000        0.058363         4
        42        37        46        52     9        0.000000        0.035781         1
        42        37        46        52     9      180.000000       11.275977         2
        42        37        46        52     9        0.000000       -0.411853         3
        42        37        46        52     9      180.000000        0.114235         4
        42        37        46        61     9        0.000000        0.005347         1
        42        37        46        61     9      180.000000       12.717447         2
        42        37        46        61     9        0.000000       -0.113082         3
        42        37        46        61     9      180.000000        0.043312         4
        43        49        54        55     9        0.000000       -0.103203         1
        43        49        54        55     9      180.000000        0.082669         2
        43        49        54        55     9        0.000000        0.373796         3
        43        49        54        55     9      180.000000        0.018454         4
        43        49        54        56     9        0.000000       -0.103203         1
        43        49        54        56     9      180.000000        0.082669         2
        43        49        54        56     9        0.000000        0.373796         3
        43        49        54        56     9      180.000000        0.018454         4
        44        43        49        50     9        0.000000       -0.011326         1
        44        43        49        50     9      180.000000        0.007821         2
        44        43        49        50     9        0.000000        0.325915         3
        44        43        49        50     9      180.000000        0.007339         4
        44        43        49        51     9        0.000000       -0.011326         1
        44        43        49        51     9      180.000000        0.007821         2
        44        43        49        51     9        0.000000        0.325915         3
        44        43        49        51     9      180.000000        0.007339         4
        44        43        49        54     9        0.000000       -0.033843         1
        44        43        49        54     9      180.000000        0.030999         2
        44        43        49        54     9        0.000000        0.301563         3
        44        43        49        54     9      180.000000       -0.003346         4
        45        43        49        50     9        0.000000       -0.011326         1
        45        43        49        50     9      180.000000        0.007821         2
        45        43        49        50     9        0.000000        0.325915         3
        45        43        49        50     9      180.000000        0.007339         4
        45        43        49        51     9        0.000000       -0.011326         1
        45        43        49        51     9      180.000000        0.007821         2
        45        43        49        51     9        0.000000        0.325915         3
        45        43        49        51     9      180.000000        0.007339         4
        45        43        49        54     9        0.000000       -0.033843         1
        45        43        49        54     9      180.000000        0.030999         2
        45        43        49        54     9        0.000000        0.301563         3
        45        43        49        54     9      180.000000       -0.003346         4
        46        37        33        59     9        0.000000       -0.099650         1
        46        37        33        59     9      180.000000       18.129740         2
        46        37        33        59     9        0.000000       -1.811664         3
        46        37        33        59     9      180.000000       -0.445839         4
        46        52        57        58     9        0.000000        0.013350         1
        46        52        57        58     9      180.000000       13.998885         2
        46        52        57        58     9        0.000000       -0.588996         3
        46        52        57        58     9      180.000000        0.127352         4
        46        52        57        59     9        0.000000       -0.065155         1
        46        52        57        59     9      180.000000       17.804191         2
        46        52        57        59     9        0.000000       -1.620004         3
        46        52        57        59     9      180.000000       -0.355850         4
        46        61        62        63     9        0.000000        0.372180         1
        46        61        62        63     9      180.000000        0.554253         2
        46        61        62        63     9        0.000000        0.556443         3
        46        61        62        63     9      180.000000        0.016229         4
        46        61        62        68     9        0.000000       -0.256317         1
        46        61        62        68     9      180.000000       -0.086907         2
        46        61        62        68     9        0.000000        0.792611         3
        46        61        62        68     9      180.000000       -0.000774         4
        46        61        62        69     9        0.000000       -0.256317         1
        46        61        62        69     9      180.000000       -0.086907         2
        46        61        62        69     9        0.000000        0.792611         3
        46        61        62        69     9      180.000000       -0.000774         4
        46        61        67        66     9        0.000000        0.750994         1
        46        61        67        66     9      180.000000        0.502984         2
        46        61        67        66     9        0.000000        0.508421         3
        46        61        67        66     9      180.000000        0.100225         4
        46        61        67        76     9        0.000000       -0.181456         1
        46        61        67        76     9      180.000000       -0.047543         2
        46        61        67        76     9        0.000000        0.668401         3
        46        61        67        76     9      180.000000        0.001018         4
        46        61        67        77     9        0.000000       -0.181456         1
        46        61        67        77     9      180.000000       -0.047543         2
        46        61        67        77     9        0.000000        0.668401         3
        46        61        67        77     9      180.000000        0.001018         4
        50        49        54        55     9        0.000000       -0.004378         1
        50        49        54        55     9      180.000000        0.026665         2
        50        49        54        55     9        0.000000        0.377130         3
        50        49        54        55     9      180.000000        0.032123         4
        50        49        54        56     9        0.000000       -0.004378         1
        50        49        54        56     9      180.000000        0.026665         2
        50        49        54        56     9        0.000000        0.377130         3
        50        49        54        56     9      180.000000        0.032123         4
        51        49        54        55     9        0.000000       -0.004378         1
        51        49        54        55     9      180.000000        0.026665         2
        51        49        54        55     9        0.000000        0.377130         3
        51        49        54        55     9      180.000000        0.032123         4
        51        49        54        56     9        0.000000       -0.004378         1
        51        49        54        56     9      180.000000        0.026665         2
        51        49        54        56     9        0.000000        0.377130         3
        51        49        54        56     9      180.000000        0.032123         4
        52        46        61        62     9        0.000000        0.780142         1
        52        46        61        62     9      180.000000        6.725063         2
        52        46        61        62     9        0.000000        0.055387         3
        52        46        61        62     9      180.000000        0.408833         4
        52        46        61        67     9        0.000000        0.797623         1
        52        46        61        67     9      180.000000        6.542136         2
        52        46        61        67     9        0.000000        0.083050         3
        52        46        61        67     9      180.000000        0.343544         4
        52        57        59        60     9        0.000000        0.074162         1
        52        57        59        60     9      180.000000       14.444632         2
        52        57        59        60     9        0.000000       -0.689661         3
        52        57        59        60     9      180.000000        0.103707         4
        53        52        46        61     9        0.000000       -0.057652         1
        53        52        46        61     9      180.000000       13.097534         2
        53        52        46        61     9        0.000000       -0.144442         3
        53        52        46        61     9      180.000000        0.105659         4
        53        52        57        58     9        0.000000       -0.145501         1
        53        52        57        58     9      180.000000       11.883644         2
        53        52        57        58     9        0.000000       -0.688281         3
        53        52        57        58     9      180.000000        0.296476         4
        53        52        57        59     9        0.000000        0.120376         1
        53        52        57        59     9      180.000000       14.300186         2
        53        52        57        59     9        0.000000       -0.731387         3
        53        52        57        59     9      180.000000        0.152962         4
        54        27        33        59     9        0.000000       -0.147032         1
        54        27        33        59     9      180.000000        0.120048         2
        54        27        33        59     9        0.000000        0.237035         3
        54        27        33        59     9      180.000000        0.111761         4
        57        52        46        61     9        0.000000        0.222496         1
        57        52        46        61     9      180.000000       15.809070         2
        57        52        46        61     9        0.000000        0.087166         3
        57        52        46        61     9      180.000000       -0.312991         4
        58        57        59        60     9        0.000000       -0.177869         1
        58        57        59        60     9      180.000000       11.718634         2
        58        57        59        60     9        0.000000       -0.663652         3
        58        57        59        60     9      180.000000        0.259773         4
        61        62        63        64     9        0.000000        1.549999         1
        61        62        63        64     9      180.000000       -1.305930         2
        61        62        63        64     9        0.000000        0.242277         3
        61        62        63        64     9      180.000000        0.098015         4
        61        62        63        70     9        0.000000       -0.054774         1
        61        62        63        70     9      180.000000        0.032211         2
        61        62        63        70     9        0.000000        0.379087         3
        61        62        63        70     9      180.000000       -0.013469         4
        61        62        63        71     9        0.000000       -0.054774         1
        61        62        63        71     9      180.000000        0.032211         2
        61        62        63        71     9        0.000000        0.379087         3
        61        62        63        71     9      180.000000       -0.013469         4
        61        67        66        65     9        0.000000        0.160953         1
        61        67        66        65     9      180.000000        1.434189         2
        61        67        66        65     9        0.000000        0.396497         3
        61        67        66        65     9      180.000000       -0.952526         4
        61        67        66        74     9        0.000000       -0.220691         1
        61        67        66        74     9      180.000000       -0.043383         2
        61        67        66        74     9        0.000000        0.524275         3
        61        67        66        74     9      180.000000        0.077751         4
        61        67        66        75     9        0.000000       -0.220691         1
        61        67        66        75     9      180.000000       -0.043383         2
        61        67        66        75     9        0.000000        0.524275         3
        61        67        66        75     9      180.000000        0.077751         4
        62        61        67        66     9        0.000000        7.562946         1
        62        61        67        66     9      180.000000       -0.321269         2
        62        61        67        66     9        0.000000        0.255915         3
        62        61        67        66     9      180.000000       -0.175942         4
        62        61        67        76     9        0.000000       -0.079642         1
        62        61        67        76     9      180.000000        0.132077         2
        62        61        67        76     9        0.000000        0.869289         3
        62        61        67        76     9      180.000000        0.054461         4
        62        61        67        77     9        0.000000       -0.079642         1
        62        61        67        77     9      180.000000        0.132077         2
        62        61        67        77     9        0.000000        0.869289         3
        62        61        67        77     9      180.000000        0.054461         4
        62        63        64        65     9        0.000000        1.088444         1
        62        63        64        65     9      180.000000       -0.743325         2
        62        63        64        65     9        0.000000        0.268387         3
        62        63        64        65     9      180.000000       -0.103681         4
        62        63        64        72     9        0.000000       -0.003863         1
        62        63        64        72     9      180.000000        0.046529         2
        62        63        64        72     9        0.000000        0.455362         3
        62        63        64        72     9      180.000000       -0.019513         4
        62        63        64        73     9        0.000000       -0.003863         1
        62        63        64        73     9      180.000000        0.046529         2
        62        63        64        73     9        0.000000        0.455362         3
        62        63        64        73     9      180.000000       -0.019513         4
        63        62        61        67     9        0.000000        5.722217         1
        63        62        61        67     9      180.000000        1.050170         2
        63        62        61        67     9        0.000000        0.314032         3
        63        62        61        67     9      180.000000       -0.357402         4
        63        64        65        66     9        0.000000        4.889526         1
        63        64        65        66     9      180.000000       -0.264562         2
        63        64        65        66     9        0.000000        0.285032         3
        63        64        65        66     9      180.000000       -0.114588         4
        64        63        62        68     9        0.000000       -0.011019         1
        64        63        62        68     9      180.000000        0.019156         2
        64        63        62        68     9        0.000000        0.351714         3
        64        63        62        68     9      180.000000       -0.020961         4
        64        63        62        69     9        0.000000       -0.011019         1
        64        63        62        69     9      180.000000        0.019156         2
        64        63        62        69     9        0.000000        0.351714         3
        64        63        62        69     9      180.000000       -0.020961         4
        64        65        66        67     9        0.000000        7.337128         1
        64        65        66        67     9      180.000000       -0.775004         2
        64        65        66        67     9        0.000000        0.432219         3
        64        65        66        67     9      180.000000       -0.211195         4
        64        65        66        74     9        0.000000       -0.261275         1
        64        65        66        74     9      180.000000        0.126473         2
        64        65        66        74     9        0.000000        1.067566         3
        64        65        66        74     9      180.000000        0.020282         4
        64        65        66        75     9        0.000000       -0.261275         1
        64        65        66        75     9      180.000000        0.126473         2
        64        65        66        75     9        0.000000        1.067566         3
        64        65        66        75     9      180.000000        0.020282         4
        65        64        63        70     9        0.000000       -0.021180         1
        65        64        63        70     9      180.000000        0.072502         2
        65        64        63        70     9        0.000000        0.437781         3
        65        64        63        70     9      180.000000       -0.002478         4
        65        64        63        71     9        0.000000       -0.021180         1
        65        64        63        71     9      180.000000        0.072502         2
        65        64        63        71     9        0.000000        0.437781         3
        65        64        63        71     9      180.000000       -0.002478         4
        65        66        67        76     9        0.000000       -0.102749         1
        65        66        67        76     9      180.000000       -0.078033         2
        65        66        67        76     9        0.000000        0.426258         3
        65        66        67        76     9      180.000000        0.085421         4
        65        66        67        77     9        0.000000       -0.102749         1
        65        66        67        77     9      180.000000       -0.078033         2
        65        66        67        77     9        0.000000        0.426258         3
        65        66        67        77     9      180.000000        0.085421         4
        66        65        64        72     9        0.000000       -0.125424         1
        66        65        64        72     9      180.000000        0.042096         2
        66        65        64        72     9        0.000000        0.834062         3
        66        65        64        72     9      180.000000       -0.034965         4
        66        65        64        73     9        0.000000       -0.125424         1
        66        65        64        73     9      180.000000        0.042096         2
        66        65        64        73     9        0.000000        0.834062         3
        66        65        64        73     9      180.000000       -0.034965         4
        67        61        62        68     9        0.000000       -0.215456         1
        67        61        62        68     9      180.000000        0.039057         2
        67        61        62        68     9        0.000000        0.802234         3
        67        61        62        68     9      180.000000        0.027244         4
        67        61        62        69     9        0.000000       -0.215456         1
        67        61        62        69     9      180.000000        0.039057         2
        67        61        62        69     9        0.000000        0.802234         3
        67        61        62        69     9      180.000000        0.027244         4
        68        62        63        70     9        0.000000        0.008047         1
        68        62        63        70     9      180.000000        0.013388         2
        68        62        63        70     9        0.000000        0.461669         3
        68        62        63        70     9      180.000000       -0.008634         4
        68        62        63        71     9        0.000000        0.008047         1
        68        62        63        71     9      180.000000        0.013388         2
        68        62        63        71     9        0.000000        0.461669         3
        68        62        63        71     9      180.000000       -0.008634         4
        69        62        63        70     9        0.000000        0.008047         1
        69        62        63        70     9      180.000000        0.013388         2
        69        62        63        70     9        0.000000        0.461669         3
        69        62        63        70     9      180.000000       -0.008634         4
        69        62        63        71     9        0.000000        0.008047         1
        69        62        63        71     9      180.000000        0.013388         2
        69        62        63        71     9        0.000000        0.461669         3
        69        62        63        71     9      180.000000       -0.008634         4
        70        63        64        72     9        0.000000       -0.046759         1
        70        63        64        72     9      180.000000        0.028870         2
        70        63        64        72     9        0.000000        0.503250         3
        70        63        64        72     9      180.000000       -0.021151         4
        70        63        64        73     9        0.000000       -0.046759         1
        70        63        64        73     9      180.000000        0.028870         2
        70        63        64        73     9        0.000000        0.503250         3
        70        63        64        73     9      180.000000       -0.021151         4
        71        63        64        72     9        0.000000       -0.046759         1
        71        63        64        72     9      180.000000        0.028870         2
        71        63        64        72     9        0.000000        0.503250         3
        71        63        64        72     9      180.000000       -0.021151         4
        71        63        64        73     9        0.000000       -0.046759         1
        71        63        64        73     9      180.000000        0.028870         2
        71        63        64        73     9        0.000000        0.503250         3
        71        63        64        73     9      180.000000       -0.021151         4
        74        66        67        76     9        0.000000        0.014052         1
        74        66        67        76     9      180.000000        0.048146         2
        74        66        67        76     9        0.000000        0.528263         3
        74        66        67        76     9      180.000000       -0.010801         4
        74        66        67        77     9        0.000000        0.014052         1
        74        66        67        77     9      180.000000        0.048146         2
        74        66        67        77     9        0.000000        0.528263         3
        74        66        67        77     9      180.000000       -0.010801         4
        75        66        67        76     9        0.000000        0.014052         1
        75        66        67        76     9      180.000000        0.048146         2
        75        66        67        76     9        0.000000        0.528263         3
        75        66        67        76     9      180.000000       -0.010801         4
        75        66        67        77     9        0.000000        0.014052         1
        75        66        67        77     9      180.000000        0.048146         2
        75        66        67        77     9        0.000000        0.528263         3
        75        66        67        77     9      180.000000       -0.010801         4

[ dihedrals ] ; impropers
;       ai        aj        ak        al funct           phase               k        pn
         5         1         6         7     4      180.000000       27.893333         2
         5         6         7         1     4      180.000000       27.893333         2
         5         7         1         6     4      180.000000       27.893333         2
        28        24        29        34     4      180.000000        2.499926         2
        28        29        34        24     4      180.000000        2.499926         2
        28        34        24        29     4      180.000000        2.499926         2
        38        34        39        47     4      180.000000        2.499923         2
        38        39        47        34     4      180.000000        2.499923         2
        38        47        34        39     4      180.000000        2.499923         2

[ pairs ]
;       ai        aj funct
         1         8     1
         1         9     1
         2         6     1
         2         7     1
         3         6     1
         3         7     1
         4         6     1
         4         7     1
         5        10     1
         5        11     1
         5        13     1
         6         8     1
         6         9     1
         7        12     1
         7        14     1
         7        15     1
         7        16     1
         7        19     1
         7        20     1
         8        10     1
         8        11     1
         8        13     1
         9        17     1
         9        18     1
         9        21     1
         9        22     1
         9        24     1
         9        47     1
        10        12     1
        10        14     1
        10        15     1
        10        16     1
        10        19     1
        10        20     1
        11        14     1
        11        15     1
        11        19     1
        11        23     1
        11        26     1
        11        27     1
        12        13     1
        12        17     1
        12        18     1
        12        21     1
        12        22     1
        13        16     1
        13        20     1
        13        25     1
        13        28     1
        13        38     1
        13        48     1
        14        24     1
        14        47     1
        15        24     1
        15        47     1
        16        21     1
        16        30     1
        16        33     1
        16        54     1
        17        20     1
        17        23     1
        17        26     1
        17        27     1
        18        20     1
        18        23     1
        18        26     1
        18        27     1
        19        29     1
        19        34     1
        19        39     1
        20        22     1
        22        31     1
        22        32     1
        22        36     1
        22        37     1
        22        49     1
        22        55     1
        22        56     1
        22        59     1
        23        30     1
        23        33     1
        23        54     1
        24        35     1
        24        38     1
        24        48     1
        25        29     1
        25        34     1
        25        47     1
        26        30     1
        26        33     1
        26        54     1
        27        40     1
        27        41     1
        27        42     1
        27        43     1
        27        46     1
        27        50     1
        27        51     1
        27        57     1
        27        60     1
        28        39     1
        28        47     1
        29        35     1
        29        38     1
        30        37     1
        30        44     1
        30        45     1
        30        49     1
        30        55     1
        30        56     1
        30        59     1
        31        33     1
        31        40     1
        31        41     1
        31        43     1
        31        54     1
        32        33     1
        32        40     1
        32        41     1
        32        43     1
        32        54     1
        33        36     1
        33        49     1
        33        52     1
        33        55     1
        33        56     1
        33        58     1
        33        61     1
        34        48     1
        35        39     1
        35        47     1
        36        50     1
        36        51     1
        36        54     1
        37        53     1
        37        54     1
        37        57     1
        37        60     1
        37        62     1
        37        67     1
        39        48     1
        40        44     1
        40        45     1
        40        49     1
        41        44     1
        41        45     1
        41        49     1
        42        52     1
        42        59     1
        42        61     1
        43        55     1
        43        56     1
        44        50     1
        44        51     1
        44        54     1
        45        50     1
        45        51     1
        45        54     1
        46        58     1
        46        59     1
        46        63     1
        46        66     1
        46        68     1
        46        69     1
        46        76     1
        46        77     1
        50        55     1
        50        56     1
        51        55     1
        51        56     1
        52        60     1
        52        62     1
        52        67     1
        53        58     1
        53        59     1
        53        61     1
        54        59     1
        57        61     1
        58        60     1
        61        64     1
        61        65     1
        61        70     1
        61        71     1
        61        74     1
        61        75     1
        62        65     1
        62        66     1
        62        72     1
        62        73     1
        62        76     1
        62        77     1
        63        66     1
        63        67     1
        64        67     1
        64        68     1
        64        69     1
        64        74     1
        64        75     1
        65        70     1
        65        71     1
        65        76     1
        65        77     1
        66        72     1
        66        73     1
        67        68     1
        67        69     1
        68        70     1
        68        71     1
        69        70     1
        69        71     1
        70        72     1
        70        73     1
        71        72     1
        71        73     1
        74        76     1
        74        77     1
        75        76     1
        75        77     1
