; ITP file created by ByteFF-joint-25, 2026-02-17 09:34:37.055518

[ atomtypes ]
;name           bonded.type        at.num        mass        charge   ptype           sigma         epsilon
 n0bf                                   7      0.0000       0.00000       A     3.19062e-01     9.00857e-01    ;  uncertainty sigma = 0.000027, epsilon = 0.004020
 c1bf                                   6      0.0000       0.00000       A     3.39779e-01     4.50373e-01    ;  uncertainty sigma = 0.000021, epsilon = 0.001041
 c2bf                                   6      0.0000       0.00000       A     3.39768e-01     4.51100e-01    ;  uncertainty sigma = 0.000021, epsilon = 0.000603
 c3bf                                   6      0.0000       0.00000       A     3.39788e-01     4.49780e-01    ;  uncertainty sigma = 0.000038, epsilon = 0.001520
 c4bf                                   6      0.0000       0.00000       A     3.39768e-01     4.51100e-01    ;  uncertainty sigma = 0.000021, epsilon = 0.000603
 c5bf                                   6      0.0000       0.00000       A     3.39779e-01     4.50373e-01    ;  uncertainty sigma = 0.000021, epsilon = 0.001041
 c6bf                                   6      0.0000       0.00000       A     3.31534e-01     4.13437e-01    ;  uncertainty sigma = 0.000008, epsilon = 0.001055
 c7bf                                   6      0.0000       0.00000       A     3.31513e-01     4.13559e-01    ;  uncertainty sigma = 0.000010, epsilon = 0.000750
 c8bf                                   6      0.0000       0.00000       A     3.31517e-01     4.13418e-01    ;  uncertainty sigma = 0.000007, epsilon = 0.000490
 c9bf                                   6      0.0000       0.00000       A     3.31517e-01     4.13339e-01    ;  uncertainty sigma = 0.000004, epsilon = 0.000628
 c10bf                                  6      0.0000       0.00000       A     3.31515e-01     4.13294e-01    ;  uncertainty sigma = 0.000004, epsilon = 0.000592
 c11bf                                  6      0.0000       0.00000       A     3.31518e-01     4.13425e-01    ;  uncertainty sigma = 0.000005, epsilon = 0.000679
 c12bf                                  6      0.0000       0.00000       A     3.31511e-01     4.12821e-01    ;  uncertainty sigma = 0.000011, epsilon = 0.001337
 n13bf                                  7      0.0000       0.00000       A     3.38408e-01     3.93589e-01    ;  uncertainty sigma = 0.000025, epsilon = 0.000634
 c14bf                                  6      0.0000       0.00000       A     3.31519e-01     4.13219e-01    ;  uncertainty sigma = 0.000013, epsilon = 0.001540
 c15bf                                  6      0.0000       0.00000       A     3.31483e-01     4.13370e-01    ;  uncertainty sigma = 0.000015, epsilon = 0.000812
 n16bf                                  7      0.0000       0.00000       A     3.38405e-01     3.93414e-01    ;  uncertainty sigma = 0.000037, epsilon = 0.000700
 c17bf                                  6      0.0000       0.00000       A     3.31542e-01     4.13166e-01    ;  uncertainty sigma = 0.000025, epsilon = 0.002399
 cl18bf                                17      0.0000       0.00000       A     3.46639e-01     1.10469e+00    ;  uncertainty sigma = 0.000020, epsilon = 0.001458
 cl19bf                                17      0.0000       0.00000       A     3.46596e-01     1.10464e+00    ;  uncertainty sigma = 0.000016, epsilon = 0.003016
 n20bf                                  7      0.0000       0.00000       A     3.27843e-01     6.45462e-01    ;  uncertainty sigma = 0.000028, epsilon = 0.002205
 n21bf                                  7      0.0000       0.00000       A     2.77101e-01     4.77733e+00    ;  uncertainty sigma = 0.000102, epsilon = 0.025603
 c22bf                                  6      0.0000       0.00000       A     3.39744e-01     4.51058e-01    ;  uncertainty sigma = 0.000018, epsilon = 0.000674
 h23bf                                  1      0.0000       0.00000       A     2.42223e-01     8.69234e-02    ;  uncertainty sigma = 0.000017, epsilon = 0.000659
 h24bf                                  1      0.0000       0.00000       A     2.42223e-01     8.69235e-02    ;  uncertainty sigma = 0.000017, epsilon = 0.000659
 h25bf                                  1      0.0000       0.00000       A     2.60047e-01     8.66235e-02    ;  uncertainty sigma = 0.000026, epsilon = 0.001019
 h26bf                                  1      0.0000       0.00000       A     2.60047e-01     8.66235e-02    ;  uncertainty sigma = 0.000026, epsilon = 0.001019
 h27bf                                  1      0.0000       0.00000       A     2.60047e-01     8.66235e-02    ;  uncertainty sigma = 0.000026, epsilon = 0.001019
 h28bf                                  1      0.0000       0.00000       A     2.60047e-01     8.66235e-02    ;  uncertainty sigma = 0.000026, epsilon = 0.001019
 h29bf                                  1      0.0000       0.00000       A     2.42223e-01     8.69235e-02    ;  uncertainty sigma = 0.000017, epsilon = 0.000659
 h30bf                                  1      0.0000       0.00000       A     2.42223e-01     8.69235e-02    ;  uncertainty sigma = 0.000017, epsilon = 0.000659
 h31bf                                  1      0.0000       0.00000       A     2.62556e-01     6.70339e-02    ;  uncertainty sigma = 0.000007, epsilon = 0.000600
 h32bf                                  1      0.0000       0.00000       A     2.62568e-01     6.69666e-02    ;  uncertainty sigma = 0.000007, epsilon = 0.000468
 h33bf                                  1      0.0000       0.00000       A     2.62563e-01     6.70978e-02    ;  uncertainty sigma = 0.000011, epsilon = 0.000541
 c34bf                                  6      0.0000       0.00000       A     3.39767e-01     4.51159e-01    ;  uncertainty sigma = 0.000010, epsilon = 0.000684
 h35bf                                  1      0.0000       0.00000       A     1.10744e-01     4.05584e-02    ;  uncertainty sigma = 0.000197, epsilon = 0.001139
 h36bf                                  1      0.0000       0.00000       A     2.60029e-01     8.68919e-02    ;  uncertainty sigma = 0.000018, epsilon = 0.000792
 h37bf                                  1      0.0000       0.00000       A     2.60029e-01     8.68919e-02    ;  uncertainty sigma = 0.000018, epsilon = 0.000792
 h38bf                                  1      0.0000       0.00000       A     2.60029e-01     8.68919e-02    ;  uncertainty sigma = 0.000018, epsilon = 0.000792
 h39bf                                  1      0.0000       0.00000       A     1.10744e-01     4.05584e-02    ;  uncertainty sigma = 0.000197, epsilon = 0.001139
 h40bf                                  1      0.0000       0.00000       A     2.53617e-01     6.68290e-02    ;  uncertainty sigma = 0.000021, epsilon = 0.000902
 h41bf                                  1      0.0000       0.00000       A     1.10643e-01     4.13114e-02    ;  uncertainty sigma = 0.000041, epsilon = 0.001310
 h42bf                                  1      0.0000       0.00000       A     2.42205e-01     8.67992e-02    ;  uncertainty sigma = 0.000008, epsilon = 0.000419
 h43bf                                  1      0.0000       0.00000       A     2.42205e-01     8.67992e-02    ;  uncertainty sigma = 0.000008, epsilon = 0.000419
 h44bf                                  1      0.0000       0.00000       A     2.42205e-01     8.67991e-02    ;  uncertainty sigma = 0.000008, epsilon = 0.000419
 h45bf                                  1      0.0000       0.00000       A     1.10744e-01     4.05584e-02    ;  uncertainty sigma = 0.000197, epsilon = 0.001139

[ moleculetype ]
;name             nrexcl
 MOL                   3

[ atoms ]
;       nr            type      resi   res      atom      cgnr      charge          mass ; qtot
         1            n0bf         1   UNL        n0         1    -0.77988       14.0070 ; qtot   -0.780
         2            c1bf         1   UNL        c1         2     0.22038       12.0110 ; qtot   -0.559
         3            c2bf         1   UNL        c2         3    -0.11719       12.0110 ; qtot   -0.677
         4            c3bf         1   UNL        c3         4     0.18791       12.0110 ; qtot   -0.489
         5            c4bf         1   UNL        c4         5    -0.11719       12.0110 ; qtot   -0.606
         6            c5bf         1   UNL        c5         6     0.22038       12.0110 ; qtot   -0.386
         7            c6bf         1   UNL        c6         7    -0.11031       12.0110 ; qtot   -0.496
         8            c7bf         1   UNL        c7         8     0.05368       12.0110 ; qtot   -0.442
         9            c8bf         1   UNL        c8         9     0.02451       12.0110 ; qtot   -0.418
        10            c9bf         1   UNL        c9        10    -0.10171       12.0110 ; qtot   -0.519
        11           c10bf         1   UNL       c10        11    -0.12241       12.0110 ; qtot   -0.642
        12           c11bf         1   UNL       c11        12    -0.09948       12.0110 ; qtot   -0.741
        13           c12bf         1   UNL       c12        13     0.23704       12.0110 ; qtot   -0.504
        14           n13bf         1   UNL       n13        14    -0.57568       14.0070 ; qtot   -1.080
        15           c14bf         1   UNL       c14        15     0.18917       12.0110 ; qtot   -0.891
        16           c15bf         1   UNL       c15        16     0.60594       12.0110 ; qtot   -0.285
        17           n16bf         1   UNL       n16        17    -0.80550       14.0070 ; qtot   -1.090
        18           c17bf         1   UNL       c17        18     0.60272       12.0110 ; qtot   -0.488
        19          cl18bf         1   UNL      cl18        19    -0.08348       35.4530 ; qtot   -0.571
        20          cl19bf         1   UNL      cl19        20    -0.07905       35.4530 ; qtot   -0.650
        21           n20bf         1   UNL       n20        21    -0.84806       14.0070 ; qtot   -1.498
        22           n21bf         1   UNL       n21        22    -0.86673       14.0070 ; qtot   -2.365
        23           c22bf         1   UNL       c22        23    -0.13034       12.0110 ; qtot   -2.495
        24           h23bf         1   UNL       h23        24     0.07413        1.0080 ; qtot   -2.421
        25           h24bf         1   UNL       h24        25     0.07413        1.0080 ; qtot   -2.347
        26           h25bf         1   UNL       h25        26     0.08278        1.0080 ; qtot   -2.264
        27           h26bf         1   UNL       h26        27     0.08278        1.0080 ; qtot   -2.181
        28           h27bf         1   UNL       h27        28     0.08278        1.0080 ; qtot   -2.099
        29           h28bf         1   UNL       h28        29     0.08278        1.0080 ; qtot   -2.016
        30           h29bf         1   UNL       h29        30     0.07413        1.0080 ; qtot   -1.942
        31           h30bf         1   UNL       h30        31     0.07413        1.0080 ; qtot   -1.868
        32           h31bf         1   UNL       h31        32     0.15499        1.0080 ; qtot   -1.713
        33           h32bf         1   UNL       h32        33     0.14497        1.0080 ; qtot   -1.568
        34           h33bf         1   UNL       h33        34     0.15054        1.0080 ; qtot   -1.417
        35           c34bf         1   UNL       c34        35     0.19613       12.0110 ; qtot   -1.221
        36           h35bf         1   UNL       h35        36     0.46464        1.0080 ; qtot   -0.756
        37           h36bf         1   UNL       h36        37     0.07734        1.0080 ; qtot   -0.679
        38           h37bf         1   UNL       h37        38     0.07734        1.0080 ; qtot   -0.602
        39           h38bf         1   UNL       h38        39     0.07734        1.0080 ; qtot   -0.524
        40           h39bf         1   UNL       h39        40     0.46464        1.0080 ; qtot   -0.060
        41           h40bf         1   UNL       h40        41     0.03009        1.0080 ; qtot   -0.030
        42           h41bf         1   UNL       h41        42     0.42737        1.0080 ; qtot    0.398
        43           h42bf         1   UNL       h42        43     0.04587        1.0080 ; qtot    0.444
        44           h43bf         1   UNL       h43        44     0.04587        1.0080 ; qtot    0.489
        45           h44bf         1   UNL       h44        45     0.04587        1.0080 ; qtot    0.535
        46           h45bf         1   UNL       h45        46     0.46464        1.0080 ; qtot    1.000

[ bonds ]
;       ai        aj funct               r               k
         1         2     1        0.145116   246038.889111    ;  uncertainty r = 0.000148, k = 11.317806
         1         6     1        0.145116   246038.889111    ;  uncertainty r = 0.000148, k = 11.317806
         1        16     1        0.138922   306653.337793    ;  uncertainty r = 0.000385, k = 20.188924
         2         3     1        0.153941   208852.159033    ;  uncertainty r = 0.000214, k = 12.207009
         2        24     1        0.109563   306873.365527    ;  uncertainty r = 0.000048, k = 2.016888
         2        25     1        0.109563   306873.391064    ;  uncertainty r = 0.000048, k = 2.016873
         3         4     1        0.153676   203189.241187    ;  uncertainty r = 0.000166, k = 7.265986
         3        26     1        0.109591   310533.497266    ;  uncertainty r = 0.000042, k = 1.839138
         3        27     1        0.109591   310533.497266    ;  uncertainty r = 0.000042, k = 1.839138
         4         5     1        0.153676   203189.241187    ;  uncertainty r = 0.000166, k = 7.265986
         4        22     1        0.155122   197292.186353    ;  uncertainty r = 0.000211, k = 49.108522
         4        23     1        0.152893   210290.434570    ;  uncertainty r = 0.000125, k = 13.841188
         5         6     1        0.153941   208852.159033    ;  uncertainty r = 0.000214, k = 12.207009
         5        28     1        0.109591   310533.497266    ;  uncertainty r = 0.000042, k = 1.839138
         5        29     1        0.109591   310533.497266    ;  uncertainty r = 0.000042, k = 1.839138
         6        30     1        0.109563   306873.391064    ;  uncertainty r = 0.000048, k = 2.016873
         6        31     1        0.109563   306873.391064    ;  uncertainty r = 0.000048, k = 2.016873
         7         8     1        0.140095   325009.412012    ;  uncertainty r = 0.000126, k = 5.603644
         7        12     1        0.139932   348499.339014    ;  uncertainty r = 0.000041, k = 5.380440
         7        13     1        0.148750   290948.756104    ;  uncertainty r = 0.000108, k = 7.022193
         8         9     1        0.140081   338158.290869    ;  uncertainty r = 0.000066, k = 1.557491
         8        20     1        0.174228   186667.254932    ;  uncertainty r = 0.000057, k = 4.731528
         9        10     1        0.139432   364703.069043    ;  uncertainty r = 0.000027, k = 3.877522
         9        19     1        0.174626   190975.416357    ;  uncertainty r = 0.000065, k = 1.953790
        10        11     1        0.139275   380193.470996    ;  uncertainty r = 0.000019, k = 0.375568
        10        32     1        0.108658   335617.322949    ;  uncertainty r = 0.000011, k = 0.544911
        11        12     1        0.139222   371106.856738    ;  uncertainty r = 0.000025, k = 1.271468
        11        33     1        0.108744   332681.066113    ;  uncertainty r = 0.000006, k = 1.317294
        12        34     1        0.108655   332465.507373    ;  uncertainty r = 0.000021, k = 1.100526
        13        14     1        0.133112   384370.754736    ;  uncertainty r = 0.000099, k = 14.659083
        13        18     1        0.140650   415797.513184    ;  uncertainty r = 0.000302, k = 16.173059
        14        15     1        0.132113   413215.685889    ;  uncertainty r = 0.000152, k = 10.815626
        15        16     1        0.139787   412771.212500    ;  uncertainty r = 0.000081, k = 20.228612
        15        41     1        0.109053   342858.038330    ;  uncertainty r = 0.000055, k = 1.857085
        16        17     1        0.134982   376464.950879    ;  uncertainty r = 0.000147, k = 21.558561
        17        18     1        0.135207   438658.895312    ;  uncertainty r = 0.000129, k = 19.454283
        18        21     1        0.138300   386688.298486    ;  uncertainty r = 0.000207, k = 39.247214
        21        35     1        0.145823   274381.811768    ;  uncertainty r = 0.000073, k = 9.736478
        21        42     1        0.101386   419563.011035    ;  uncertainty r = 0.000031, k = 4.817307
        22        36     1        0.102893   408930.686621    ;  uncertainty r = 0.000060, k = 6.495046
        22        40     1        0.102893   408930.686621    ;  uncertainty r = 0.000060, k = 6.495046
        22        46     1        0.102893   408930.686621    ;  uncertainty r = 0.000060, k = 6.495046
        23        37     1        0.109485   313302.332813    ;  uncertainty r = 0.000023, k = 3.037343
        23        38     1        0.109485   313302.332813    ;  uncertainty r = 0.000023, k = 3.037343
        23        39     1        0.109485   313302.332813    ;  uncertainty r = 0.000023, k = 3.037343
        35        43     1        0.109418   310169.338086    ;  uncertainty r = 0.000038, k = 1.742488
        35        44     1        0.109418   310169.338086    ;  uncertainty r = 0.000038, k = 1.742488
        35        45     1        0.109418   310169.338086    ;  uncertainty r = 0.000038, k = 1.742488

[ angles ]
;       ai        aj        ak funct           theta             cth
         1         2         3     1      109.827858      689.645408    ;  uncertainty theta = 0.002463, k = 0.163217
         1         2        24     1      107.087479      464.005702    ;  uncertainty theta = 0.001580, k = 0.039925
         1         2        25     1      107.087479      464.005702    ;  uncertainty theta = 0.001580, k = 0.039925
         1         6         5     1      109.827858      689.645408    ;  uncertainty theta = 0.002463, k = 0.163217
         1         6        30     1      107.087479      464.005702    ;  uncertainty theta = 0.001580, k = 0.039925
         1         6        31     1      107.087479      464.005702    ;  uncertainty theta = 0.001580, k = 0.039925
         1        16        15     1      120.670364      389.070949    ;  uncertainty theta = 0.008030, k = 0.254765
         1        16        17     1      122.041458      656.269172    ;  uncertainty theta = 0.005251, k = 0.141824
         2         1         6     1      106.583206      418.801252    ;  uncertainty theta = 0.017994, k = 0.197354
         2         1        16     1      110.570717      416.245626    ;  uncertainty theta = 0.002348, k = 0.104608
         2         3         4     1      110.151321      546.312444    ;  uncertainty theta = 0.003375, k = 0.086590
         2         3        26     1      108.267578      400.403552    ;  uncertainty theta = 0.001419, k = 0.109509
         2         3        27     1      108.267578      400.403552    ;  uncertainty theta = 0.001419, k = 0.109509
         3         2        24     1      108.654381      413.910512    ;  uncertainty theta = 0.003621, k = 0.120922
         3         2        25     1      108.654381      413.910512    ;  uncertainty theta = 0.003621, k = 0.120921
         3         4         5     1      110.679581      579.870504    ;  uncertainty theta = 0.006768, k = 0.197925
         3         4        22     1      107.283340      684.092874    ;  uncertainty theta = 0.005196, k = 0.323363
         3         4        23     1      111.976845      573.046350    ;  uncertainty theta = 0.003349, k = 0.044873
         4         3        26     1      107.183029      390.978284    ;  uncertainty theta = 0.002183, k = 0.173231
         4         3        27     1      107.183029      390.978284    ;  uncertainty theta = 0.002183, k = 0.173231
         4         5         6     1      110.151321      546.312444    ;  uncertainty theta = 0.003375, k = 0.086590
         4         5        28     1      107.183029      390.978284    ;  uncertainty theta = 0.002183, k = 0.173231
         4         5        29     1      107.183029      390.978284    ;  uncertainty theta = 0.002183, k = 0.173231
         4        22        36     1      110.464333      409.034616    ;  uncertainty theta = 0.003988, k = 0.162351
         4        22        40     1      110.464333      409.034616    ;  uncertainty theta = 0.003988, k = 0.162351
         4        22        46     1      110.464333      409.034616    ;  uncertainty theta = 0.003988, k = 0.162351
         4        23        37     1      107.456223      389.152764    ;  uncertainty theta = 0.000505, k = 0.034813
         4        23        38     1      107.456223      389.152764    ;  uncertainty theta = 0.000505, k = 0.034813
         4        23        39     1      107.456223      389.152764    ;  uncertainty theta = 0.000505, k = 0.034813
         5         4        22     1      107.283340      684.092874    ;  uncertainty theta = 0.005196, k = 0.323363
         5         4        23     1      111.976845      573.046350    ;  uncertainty theta = 0.003349, k = 0.044873
         5         6        30     1      108.654381      413.910512    ;  uncertainty theta = 0.003621, k = 0.120921
         5         6        31     1      108.654381      413.910512    ;  uncertainty theta = 0.003621, k = 0.120921
         6         1        16     1      110.570717      416.245626    ;  uncertainty theta = 0.002348, k = 0.104608
         6         5        28     1      108.267578      400.403552    ;  uncertainty theta = 0.001419, k = 0.109509
         6         5        29     1      108.267578      400.403552    ;  uncertainty theta = 0.001419, k = 0.109509
         7         8         9     1      123.787636      372.851405    ;  uncertainty theta = 0.004533, k = 0.186950
         7         8        20     1      117.655518      412.401493    ;  uncertainty theta = 0.003445, k = 0.097162
         7        12        11     1      121.124252      521.807225    ;  uncertainty theta = 0.001867, k = 0.028151
         7        12        34     1      118.503769      274.500240    ;  uncertainty theta = 0.002331, k = 0.085877
         7        13        14     1      118.976334      447.689085    ;  uncertainty theta = 0.007376, k = 0.177603
         7        13        18     1      120.518089      324.628277    ;  uncertainty theta = 0.006081, k = 0.278127
         8         7        12     1      121.657021      402.826353    ;  uncertainty theta = 0.004617, k = 0.217770
         8         7        13     1      120.482101      366.469650    ;  uncertainty theta = 0.002812, k = 0.189417
         8         9        10     1      121.600662      355.472030    ;  uncertainty theta = 0.004430, k = 0.117176
         8         9        19     1      120.568947      449.474768    ;  uncertainty theta = 0.001428, k = 0.087847
         9         8        20     1      120.137085      453.066019    ;  uncertainty theta = 0.003161, k = 0.095973
         9        10        11     1      118.521408      504.243759    ;  uncertainty theta = 0.003727, k = 0.077042
         9        10        32     1      119.895508      282.330875    ;  uncertainty theta = 0.002549, k = 0.077648
        10         9        19     1      120.234840      454.908777    ;  uncertainty theta = 0.002092, k = 0.126480
        10        11        12     1      119.323929      506.342974    ;  uncertainty theta = 0.002723, k = 0.050820
        10        11        33     1      120.122826      285.662511    ;  uncertainty theta = 0.000443, k = 0.032129
        11        10        32     1      121.361893      281.867473    ;  uncertainty theta = 0.001546, k = 0.022762
        11        12        34     1      120.750656      291.201861    ;  uncertainty theta = 0.001707, k = 0.042747
        12         7        13     1      121.465698      396.315699    ;  uncertainty theta = 0.002964, k = 0.160501
        12        11        33     1      120.387840      283.633108    ;  uncertainty theta = 0.001257, k = 0.017514
        13        14        15     1      123.135635      493.638804    ;  uncertainty theta = 0.011501, k = 0.173994
        13        18        17     1      121.384476      458.471906    ;  uncertainty theta = 0.005900, k = 0.265422
        13        18        21     1      120.559830      534.825916    ;  uncertainty theta = 0.007263, k = 0.598747
        14        13        18     1      119.537720      501.287392    ;  uncertainty theta = 0.007009, k = 0.300945
        14        15        16     1      119.960266      601.299203    ;  uncertainty theta = 0.004583, k = 0.113958
        14        15        41     1      117.249023      345.714300    ;  uncertainty theta = 0.005290, k = 0.104913
        15        16        17     1      119.173752      459.981884    ;  uncertainty theta = 0.004295, k = 0.141405
        16        15        41     1      122.288734      248.801768    ;  uncertainty theta = 0.003957, k = 0.163694
        16        17        18     1      119.459976      452.524473    ;  uncertainty theta = 0.007742, k = 0.264179
        17        18        21     1      121.637856      860.576709    ;  uncertainty theta = 0.007258, k = 0.202072
        18        21        35     1      115.490135      411.366729    ;  uncertainty theta = 0.003177, k = 0.202508
        18        21        42     1      115.604248      374.794875    ;  uncertainty theta = 0.007192, k = 0.115720
        21        35        43     1      108.902832      461.475741    ;  uncertainty theta = 0.001414, k = 0.035598
        21        35        44     1      108.902832      461.475741    ;  uncertainty theta = 0.001414, k = 0.035598
        21        35        45     1      108.902832      461.475741    ;  uncertainty theta = 0.001414, k = 0.035598
        22         4        23     1      107.732376      711.715791    ;  uncertainty theta = 0.003143, k = 0.202828
        24         2        25     1      105.594933      323.601813    ;  uncertainty theta = 0.003166, k = 0.045080
        26         3        27     1      106.069984      314.890850    ;  uncertainty theta = 0.002539, k = 0.094492
        28         5        29     1      106.069984      314.890850    ;  uncertainty theta = 0.002539, k = 0.094492
        30         6        31     1      105.594933      323.601813    ;  uncertainty theta = 0.003166, k = 0.045080
        35        21        42     1      112.998436      328.388521    ;  uncertainty theta = 0.004128, k = 0.128813
        36        22        40     1      108.017105      374.242252    ;  uncertainty theta = 0.003302, k = 0.129446
        36        22        46     1      108.017105      374.242252    ;  uncertainty theta = 0.003302, k = 0.129446
        37        23        38     1      105.936523      319.817118    ;  uncertainty theta = 0.000605, k = 0.051303
        37        23        39     1      105.936523      319.817118    ;  uncertainty theta = 0.000605, k = 0.051303
        38        23        39     1      105.936523      319.817118    ;  uncertainty theta = 0.000605, k = 0.051303
        40        22        46     1      108.017105      374.242252    ;  uncertainty theta = 0.003302, k = 0.129446
        43        35        44     1      107.171303      326.170591    ;  uncertainty theta = 0.001343, k = 0.057571
        43        35        45     1      107.171303      326.170591    ;  uncertainty theta = 0.001343, k = 0.057571
        44        35        45     1      107.171303      326.170591    ;  uncertainty theta = 0.001343, k = 0.057571

[ dihedrals ] ; propers for gromacs 4.5 or higher, use funct 9
;       ai        aj        ak        al funct           phase               k        pn
         1         2         3         4     9        0.000000        3.979946         1    ;  uncertainty k = 2.632185
         1         2         3         4     9      180.000000       -4.496693         2    ;  uncertainty k = 0.888467
         1         2         3         4     9        0.000000        1.984991         3    ;  uncertainty k = 0.266416
         1         2         3         4     9      180.000000       -0.392018         4    ;  uncertainty k = 0.253112
         1         2         3        26     9        0.000000       -2.064442         1    ;  uncertainty k = 0.843869
         1         2         3        26     9      180.000000        0.347541         2    ;  uncertainty k = 0.463906
         1         2         3        26     9        0.000000        1.311394         3    ;  uncertainty k = 0.326854
         1         2         3        26     9      180.000000       -0.253627         4    ;  uncertainty k = 0.071114
         1         2         3        27     9        0.000000       -2.064442         1    ;  uncertainty k = 0.843869
         1         2         3        27     9      180.000000        0.347541         2    ;  uncertainty k = 0.463906
         1         2         3        27     9        0.000000        1.311394         3    ;  uncertainty k = 0.326854
         1         2         3        27     9      180.000000       -0.253627         4    ;  uncertainty k = 0.071114
         1         6         5         4     9        0.000000        3.979946         1    ;  uncertainty k = 2.632185
         1         6         5         4     9      180.000000       -4.496693         2    ;  uncertainty k = 0.888467
         1         6         5         4     9        0.000000        1.984991         3    ;  uncertainty k = 0.266416
         1         6         5         4     9      180.000000       -0.392018         4    ;  uncertainty k = 0.253112
         1         6         5        28     9        0.000000       -2.064442         1    ;  uncertainty k = 0.843869
         1         6         5        28     9      180.000000        0.347541         2    ;  uncertainty k = 0.463906
         1         6         5        28     9        0.000000        1.311394         3    ;  uncertainty k = 0.326854
         1         6         5        28     9      180.000000       -0.253627         4    ;  uncertainty k = 0.071114
         1         6         5        29     9        0.000000       -2.064442         1    ;  uncertainty k = 0.843869
         1         6         5        29     9      180.000000        0.347541         2    ;  uncertainty k = 0.463906
         1         6         5        29     9        0.000000        1.311394         3    ;  uncertainty k = 0.326854
         1         6         5        29     9      180.000000       -0.253627         4    ;  uncertainty k = 0.071114
         1        16        15        14     9        0.000000        0.016109         1    ;  uncertainty k = 1.066456
         1        16        15        14     9      180.000000        5.264949         2    ;  uncertainty k = 1.067754
         1        16        15        14     9        0.000000        0.454045         3    ;  uncertainty k = 0.216015
         1        16        15        14     9      180.000000        0.959118         4    ;  uncertainty k = 0.391786
         1        16        15        41     9        0.000000        0.396428         1    ;  uncertainty k = 1.742407
         1        16        15        41     9      180.000000        3.632019         2    ;  uncertainty k = 0.672011
         1        16        15        41     9        0.000000        0.680650         3    ;  uncertainty k = 0.313838
         1        16        15        41     9      180.000000        0.634781         4    ;  uncertainty k = 0.280504
         1        16        17        18     9        0.000000        0.664234         1    ;  uncertainty k = 0.837151
         1        16        17        18     9      180.000000       13.309542         2    ;  uncertainty k = 0.393248
         1        16        17        18     9        0.000000        2.265023         3    ;  uncertainty k = 0.438836
         1        16        17        18     9      180.000000        1.338448         4    ;  uncertainty k = 0.316939
         2         1         6         5     9        0.000000       -6.239786         1    ;  uncertainty k = 2.361389
         2         1         6         5     9      180.000000        1.153427         2    ;  uncertainty k = 0.800282
         2         1         6         5     9        0.000000        1.096550         3    ;  uncertainty k = 0.417360
         2         1         6         5     9      180.000000       -0.421896         4    ;  uncertainty k = 0.152184
         2         1         6        30     9        0.000000       -6.143799         1    ;  uncertainty k = 1.877208
         2         1         6        30     9      180.000000        0.664612         2    ;  uncertainty k = 0.347378
         2         1         6        30     9        0.000000        0.733570         3    ;  uncertainty k = 0.044332
         2         1         6        30     9      180.000000       -0.093537         4    ;  uncertainty k = 0.072432
         2         1         6        31     9        0.000000       -6.143799         1    ;  uncertainty k = 1.877208
         2         1         6        31     9      180.000000        0.664612         2    ;  uncertainty k = 0.347378
         2         1         6        31     9        0.000000        0.733570         3    ;  uncertainty k = 0.044332
         2         1         6        31     9      180.000000       -0.093537         4    ;  uncertainty k = 0.072432
         2         1        16        15     9        0.000000        3.224633         1    ;  uncertainty k = 0.863062
         2         1        16        15     9      180.000000        6.727379         2    ;  uncertainty k = 0.291912
         2         1        16        15     9        0.000000        0.576217         3    ;  uncertainty k = 0.112865
         2         1        16        15     9      180.000000        0.090383         4    ;  uncertainty k = 0.181433
         2         1        16        17     9        0.000000        6.578111         1    ;  uncertainty k = 0.934527
         2         1        16        17     9      180.000000       10.160440         2    ;  uncertainty k = 0.129591
         2         1        16        17     9        0.000000        0.533265         3    ;  uncertainty k = 0.411479
         2         1        16        17     9      180.000000        0.019195         4    ;  uncertainty k = 0.132614
         2         3         4         5     9        0.000000       -2.025889         1    ;  uncertainty k = 2.008267
         2         3         4         5     9      180.000000        0.410334         2    ;  uncertainty k = 0.633526
         2         3         4         5     9        0.000000        0.616803         3    ;  uncertainty k = 0.450713
         2         3         4         5     9      180.000000       -1.017199         4    ;  uncertainty k = 0.208372
         2         3         4        22     9        0.000000       -5.245439         1    ;  uncertainty k = 1.390791
         2         3         4        22     9      180.000000       -1.241889         2    ;  uncertainty k = 1.510062
         2         3         4        22     9        0.000000        1.020300         3    ;  uncertainty k = 0.387143
         2         3         4        22     9      180.000000        0.214101         4    ;  uncertainty k = 0.146557
         2         3         4        23     9        0.000000       -4.849412         1    ;  uncertainty k = 0.866163
         2         3         4        23     9      180.000000        1.297477         2    ;  uncertainty k = 0.417124
         2         3         4        23     9        0.000000        0.498652         3    ;  uncertainty k = 0.311761
         2         3         4        23     9      180.000000       -0.189701         4    ;  uncertainty k = 0.108915
         3         2         1         6     9        0.000000       -6.239786         1    ;  uncertainty k = 2.361389
         3         2         1         6     9      180.000000        1.153427         2    ;  uncertainty k = 0.800282
         3         2         1         6     9        0.000000        1.096550         3    ;  uncertainty k = 0.417360
         3         2         1         6     9      180.000000       -0.421896         4    ;  uncertainty k = 0.152184
         3         2         1        16     9        0.000000       -2.818689         1    ;  uncertainty k = 0.676196
         3         2         1        16     9      180.000000        0.625644         2    ;  uncertainty k = 0.508316
         3         2         1        16     9        0.000000        0.138069         3    ;  uncertainty k = 0.162661
         3         2         1        16     9      180.000000        0.218669         4    ;  uncertainty k = 0.092610
         3         4         5         6     9        0.000000       -2.025889         1    ;  uncertainty k = 2.008267
         3         4         5         6     9      180.000000        0.410334         2    ;  uncertainty k = 0.633526
         3         4         5         6     9        0.000000        0.616803         3    ;  uncertainty k = 0.450713
         3         4         5         6     9      180.000000       -1.017199         4    ;  uncertainty k = 0.208372
         3         4         5        28     9        0.000000       -1.032719         1    ;  uncertainty k = 0.277220
         3         4         5        28     9      180.000000       -0.372391         2    ;  uncertainty k = 0.195211
         3         4         5        28     9        0.000000       -0.016948         3    ;  uncertainty k = 0.088967
         3         4         5        28     9      180.000000       -0.099463         4    ;  uncertainty k = 0.056988
         3         4         5        29     9        0.000000       -1.032719         1    ;  uncertainty k = 0.277220
         3         4         5        29     9      180.000000       -0.372391         2    ;  uncertainty k = 0.195211
         3         4         5        29     9        0.000000       -0.016948         3    ;  uncertainty k = 0.088967
         3         4         5        29     9      180.000000       -0.099463         4    ;  uncertainty k = 0.056988
         3         4        22        36     9        0.000000       -0.347105         1    ;  uncertainty k = 1.193618
         3         4        22        36     9      180.000000       -0.225842         2    ;  uncertainty k = 0.264572
         3         4        22        36     9        0.000000        0.751154         3    ;  uncertainty k = 0.137669
         3         4        22        36     9      180.000000       -0.116187         4    ;  uncertainty k = 0.103302
         3         4        22        40     9        0.000000       -0.347105         1    ;  uncertainty k = 1.193618
         3         4        22        40     9      180.000000       -0.225842         2    ;  uncertainty k = 0.264572
         3         4        22        40     9        0.000000        0.751154         3    ;  uncertainty k = 0.137669
         3         4        22        40     9      180.000000       -0.116187         4    ;  uncertainty k = 0.103302
         3         4        22        46     9        0.000000       -0.347105         1    ;  uncertainty k = 1.193618
         3         4        22        46     9      180.000000       -0.225842         2    ;  uncertainty k = 0.264572
         3         4        22        46     9        0.000000        0.751154         3    ;  uncertainty k = 0.137669
         3         4        22        46     9      180.000000       -0.116187         4    ;  uncertainty k = 0.103302
         3         4        23        37     9        0.000000       -0.895310         1    ;  uncertainty k = 0.339459
         3         4        23        37     9      180.000000       -0.491983         2    ;  uncertainty k = 0.208211
         3         4        23        37     9        0.000000        0.541904         3    ;  uncertainty k = 0.078615
         3         4        23        37     9      180.000000       -0.143850         4    ;  uncertainty k = 0.057472
         3         4        23        38     9        0.000000       -0.895310         1    ;  uncertainty k = 0.339459
         3         4        23        38     9      180.000000       -0.491983         2    ;  uncertainty k = 0.208211
         3         4        23        38     9        0.000000        0.541904         3    ;  uncertainty k = 0.078615
         3         4        23        38     9      180.000000       -0.143850         4    ;  uncertainty k = 0.057472
         3         4        23        39     9        0.000000       -0.895310         1    ;  uncertainty k = 0.339459
         3         4        23        39     9      180.000000       -0.491983         2    ;  uncertainty k = 0.208211
         3         4        23        39     9        0.000000        0.541904         3    ;  uncertainty k = 0.078615
         3         4        23        39     9      180.000000       -0.143850         4    ;  uncertainty k = 0.057472
         4         3         2        24     9        0.000000        3.022279         1    ;  uncertainty k = 1.203655
         4         3         2        24     9      180.000000       -2.768743         2    ;  uncertainty k = 0.230514
         4         3         2        24     9        0.000000       -0.000296         3    ;  uncertainty k = 0.140060
         4         3         2        24     9      180.000000        0.278748         4    ;  uncertainty k = 0.073391
         4         3         2        25     9        0.000000        3.022278         1    ;  uncertainty k = 1.203655
         4         3         2        25     9      180.000000       -2.768745         2    ;  uncertainty k = 0.230514
         4         3         2        25     9        0.000000       -0.000297         3    ;  uncertainty k = 0.140060
         4         3         2        25     9      180.000000        0.278749         4    ;  uncertainty k = 0.073392
         4         5         6        30     9        0.000000        3.022278         1    ;  uncertainty k = 1.203655
         4         5         6        30     9      180.000000       -2.768745         2    ;  uncertainty k = 0.230514
         4         5         6        30     9        0.000000       -0.000297         3    ;  uncertainty k = 0.140060
         4         5         6        30     9      180.000000        0.278749         4    ;  uncertainty k = 0.073392
         4         5         6        31     9        0.000000        3.022278         1    ;  uncertainty k = 1.203655
         4         5         6        31     9      180.000000       -2.768745         2    ;  uncertainty k = 0.230514
         4         5         6        31     9        0.000000       -0.000297         3    ;  uncertainty k = 0.140060
         4         5         6        31     9      180.000000        0.278749         4    ;  uncertainty k = 0.073392
         5         4         3        26     9        0.000000       -1.032719         1    ;  uncertainty k = 0.277220
         5         4         3        26     9      180.000000       -0.372391         2    ;  uncertainty k = 0.195211
         5         4         3        26     9        0.000000       -0.016948         3    ;  uncertainty k = 0.088967
         5         4         3        26     9      180.000000       -0.099463         4    ;  uncertainty k = 0.056988
         5         4         3        27     9        0.000000       -1.032719         1    ;  uncertainty k = 0.277220
         5         4         3        27     9      180.000000       -0.372391         2    ;  uncertainty k = 0.195211
         5         4         3        27     9        0.000000       -0.016948         3    ;  uncertainty k = 0.088967
         5         4         3        27     9      180.000000       -0.099463         4    ;  uncertainty k = 0.056988
         5         4        22        36     9        0.000000       -0.347105         1    ;  uncertainty k = 1.193618
         5         4        22        36     9      180.000000       -0.225842         2    ;  uncertainty k = 0.264572
         5         4        22        36     9        0.000000        0.751154         3    ;  uncertainty k = 0.137669
         5         4        22        36     9      180.000000       -0.116187         4    ;  uncertainty k = 0.103302
         5         4        22        40     9        0.000000       -0.347105         1    ;  uncertainty k = 1.193618
         5         4        22        40     9      180.000000       -0.225842         2    ;  uncertainty k = 0.264572
         5         4        22        40     9        0.000000        0.751154         3    ;  uncertainty k = 0.137669
         5         4        22        40     9      180.000000       -0.116187         4    ;  uncertainty k = 0.103302
         5         4        22        46     9        0.000000       -0.347105         1    ;  uncertainty k = 1.193618
         5         4        22        46     9      180.000000       -0.225842         2    ;  uncertainty k = 0.264572
         5         4        22        46     9        0.000000        0.751154         3    ;  uncertainty k = 0.137669
         5         4        22        46     9      180.000000       -0.116187         4    ;  uncertainty k = 0.103302
         5         4        23        37     9        0.000000       -0.895310         1    ;  uncertainty k = 0.339459
         5         4        23        37     9      180.000000       -0.491983         2    ;  uncertainty k = 0.208211
         5         4        23        37     9        0.000000        0.541904         3    ;  uncertainty k = 0.078615
         5         4        23        37     9      180.000000       -0.143850         4    ;  uncertainty k = 0.057472
         5         4        23        38     9        0.000000       -0.895310         1    ;  uncertainty k = 0.339459
         5         4        23        38     9      180.000000       -0.491983         2    ;  uncertainty k = 0.208211
         5         4        23        38     9        0.000000        0.541904         3    ;  uncertainty k = 0.078615
         5         4        23        38     9      180.000000       -0.143850         4    ;  uncertainty k = 0.057472
         5         4        23        39     9        0.000000       -0.895310         1    ;  uncertainty k = 0.339459
         5         4        23        39     9      180.000000       -0.491983         2    ;  uncertainty k = 0.208211
         5         4        23        39     9        0.000000        0.541904         3    ;  uncertainty k = 0.078615
         5         4        23        39     9      180.000000       -0.143850         4    ;  uncertainty k = 0.057472
         5         6         1        16     9        0.000000       -2.818689         1    ;  uncertainty k = 0.676196
         5         6         1        16     9      180.000000        0.625644         2    ;  uncertainty k = 0.508316
         5         6         1        16     9        0.000000        0.138069         3    ;  uncertainty k = 0.162661
         5         6         1        16     9      180.000000        0.218669         4    ;  uncertainty k = 0.092610
         6         1         2        24     9        0.000000       -6.143799         1    ;  uncertainty k = 1.877209
         6         1         2        24     9      180.000000        0.664613         2    ;  uncertainty k = 0.347377
         6         1         2        24     9        0.000000        0.733570         3    ;  uncertainty k = 0.044332
         6         1         2        24     9      180.000000       -0.093537         4    ;  uncertainty k = 0.072432
         6         1         2        25     9        0.000000       -6.143799         1    ;  uncertainty k = 1.877208
         6         1         2        25     9      180.000000        0.664612         2    ;  uncertainty k = 0.347378
         6         1         2        25     9        0.000000        0.733570         3    ;  uncertainty k = 0.044332
         6         1         2        25     9      180.000000       -0.093537         4    ;  uncertainty k = 0.072432
         6         1        16        15     9        0.000000        3.224633         1    ;  uncertainty k = 0.863062
         6         1        16        15     9      180.000000        6.727379         2    ;  uncertainty k = 0.291912
         6         1        16        15     9        0.000000        0.576217         3    ;  uncertainty k = 0.112865
         6         1        16        15     9      180.000000        0.090383         4    ;  uncertainty k = 0.181433
         6         1        16        17     9        0.000000        6.578111         1    ;  uncertainty k = 0.934527
         6         1        16        17     9      180.000000       10.160440         2    ;  uncertainty k = 0.129591
         6         1        16        17     9        0.000000        0.533265         3    ;  uncertainty k = 0.411479
         6         1        16        17     9      180.000000        0.019195         4    ;  uncertainty k = 0.132614
         6         5         4        22     9        0.000000       -5.245439         1    ;  uncertainty k = 1.390791
         6         5         4        22     9      180.000000       -1.241889         2    ;  uncertainty k = 1.510062
         6         5         4        22     9        0.000000        1.020300         3    ;  uncertainty k = 0.387143
         6         5         4        22     9      180.000000        0.214101         4    ;  uncertainty k = 0.146557
         6         5         4        23     9        0.000000       -4.849412         1    ;  uncertainty k = 0.866163
         6         5         4        23     9      180.000000        1.297477         2    ;  uncertainty k = 0.417124
         6         5         4        23     9        0.000000        0.498652         3    ;  uncertainty k = 0.311761
         6         5         4        23     9      180.000000       -0.189701         4    ;  uncertainty k = 0.108915
         7         8         9        10     9        0.000000       -0.177218         1    ;  uncertainty k = 0.312925
         7         8         9        10     9      180.000000        5.498591         2    ;  uncertainty k = 0.831417
         7         8         9        10     9        0.000000        0.581001         3    ;  uncertainty k = 0.174520
         7         8         9        10     9      180.000000        1.364657         4    ;  uncertainty k = 0.317391
         7         8         9        19     9        0.000000        0.297539         1    ;  uncertainty k = 0.174703
         7         8         9        19     9      180.000000        6.876606         2    ;  uncertainty k = 0.616922
         7         8         9        19     9        0.000000        1.475652         3    ;  uncertainty k = 0.222814
         7         8         9        19     9      180.000000        1.765891         4    ;  uncertainty k = 0.160177
         7        12        11        10     9        0.000000       -0.024116         1    ;  uncertainty k = 0.119660
         7        12        11        10     9      180.000000       13.710214         2    ;  uncertainty k = 0.379361
         7        12        11        10     9        0.000000       -0.897402         3    ;  uncertainty k = 0.396329
         7        12        11        10     9      180.000000        0.746624         4    ;  uncertainty k = 0.241558
         7        12        11        33     9        0.000000        0.113038         1    ;  uncertainty k = 0.130354
         7        12        11        33     9      180.000000        7.194369         2    ;  uncertainty k = 0.290483
         7        12        11        33     9        0.000000        1.397959         3    ;  uncertainty k = 0.147861
         7        12        11        33     9      180.000000        1.857387         4    ;  uncertainty k = 0.117044
         7        13        14        15     9        0.000000        0.207265         1    ;  uncertainty k = 0.432114
         7        13        14        15     9      180.000000       16.602281         2    ;  uncertainty k = 0.517137
         7        13        14        15     9        0.000000        2.748039         3    ;  uncertainty k = 0.338979
         7        13        14        15     9      180.000000        1.655134         4    ;  uncertainty k = 0.284264
         7        13        18        17     9        0.000000       -0.139324         1    ;  uncertainty k = 0.760032
         7        13        18        17     9      180.000000        3.624962         2    ;  uncertainty k = 0.611412
         7        13        18        17     9        0.000000        0.074671         3    ;  uncertainty k = 0.492356
         7        13        18        17     9      180.000000        0.741354         4    ;  uncertainty k = 0.440478
         7        13        18        21     9        0.000000        0.787901         1    ;  uncertainty k = 1.626355
         7        13        18        21     9      180.000000        3.476841         2    ;  uncertainty k = 0.578483
         7        13        18        21     9        0.000000        0.547432         3    ;  uncertainty k = 0.691789
         7        13        18        21     9      180.000000        0.584417         4    ;  uncertainty k = 0.245208
         8         7        12        11     9        0.000000       -0.142134         1    ;  uncertainty k = 0.127889
         8         7        12        11     9      180.000000       10.444230         2    ;  uncertainty k = 0.332046
         8         7        12        11     9        0.000000       -0.080882         3    ;  uncertainty k = 0.220111
         8         7        12        11     9      180.000000        1.288363         4    ;  uncertainty k = 0.328088
         8         7        12        34     9        0.000000        0.213674         1    ;  uncertainty k = 0.290251
         8         7        12        34     9      180.000000        7.133729         2    ;  uncertainty k = 0.407672
         8         7        12        34     9        0.000000        1.276349         3    ;  uncertainty k = 0.254421
         8         7        12        34     9      180.000000        1.668413         4    ;  uncertainty k = 0.174243
         8         7        13        14     9        0.000000       -1.199176         1    ;  uncertainty k = 1.169366
         8         7        13        14     9      180.000000        4.735112         2    ;  uncertainty k = 0.363342
         8         7        13        14     9        0.000000        1.114701         3    ;  uncertainty k = 0.537525
         8         7        13        14     9      180.000000        0.182079         4    ;  uncertainty k = 0.178763
         8         7        13        18     9        0.000000        2.679675         1    ;  uncertainty k = 1.321271
         8         7        13        18     9      180.000000        3.143186         2    ;  uncertainty k = 0.933265
         8         7        13        18     9        0.000000        0.988077         3    ;  uncertainty k = 0.439790
         8         7        13        18     9      180.000000        0.243596         4    ;  uncertainty k = 0.280466
         8         9        10        11     9        0.000000        0.002852         1    ;  uncertainty k = 0.111935
         8         9        10        11     9      180.000000        9.686774         2    ;  uncertainty k = 0.296867
         8         9        10        11     9        0.000000        0.091223         3    ;  uncertainty k = 0.576898
         8         9        10        11     9      180.000000        1.248193         4    ;  uncertainty k = 0.301793
         8         9        10        32     9        0.000000        0.160469         1    ;  uncertainty k = 0.115845
         8         9        10        32     9      180.000000        6.143170         2    ;  uncertainty k = 0.584636
         8         9        10        32     9        0.000000        1.422833         3    ;  uncertainty k = 0.370866
         8         9        10        32     9      180.000000        1.585209         4    ;  uncertainty k = 0.191219
         9         8         7        12     9        0.000000        0.058769         1    ;  uncertainty k = 0.567970
         9         8         7        12     9      180.000000        6.772124         2    ;  uncertainty k = 0.581120
         9         8         7        12     9        0.000000        0.393608         3    ;  uncertainty k = 0.392407
         9         8         7        12     9      180.000000        1.313290         4    ;  uncertainty k = 0.261842
         9         8         7        13     9        0.000000        0.008328         1    ;  uncertainty k = 0.409608
         9         8         7        13     9      180.000000        5.904254         2    ;  uncertainty k = 0.391996
         9         8         7        13     9        0.000000        1.444641         3    ;  uncertainty k = 0.389435
         9         8         7        13     9      180.000000        1.787280         4    ;  uncertainty k = 0.086200
         9        10        11        12     9        0.000000        0.032379         1    ;  uncertainty k = 0.116696
         9        10        11        12     9      180.000000       14.345522         2    ;  uncertainty k = 0.160340
         9        10        11        12     9        0.000000       -1.087256         3    ;  uncertainty k = 0.625240
         9        10        11        12     9      180.000000        0.770564         4    ;  uncertainty k = 0.260775
         9        10        11        33     9        0.000000        0.039036         1    ;  uncertainty k = 0.138063
         9        10        11        33     9      180.000000        7.573958         2    ;  uncertainty k = 0.326461
         9        10        11        33     9        0.000000        1.498646         3    ;  uncertainty k = 0.240396
         9        10        11        33     9      180.000000        1.852603         4    ;  uncertainty k = 0.140866
        10         9         8        20     9        0.000000        0.141596         1    ;  uncertainty k = 0.227101
        10         9         8        20     9      180.000000        7.003529         2    ;  uncertainty k = 0.264439
        10         9         8        20     9        0.000000        1.459862         3    ;  uncertainty k = 0.224785
        10         9         8        20     9      180.000000        1.666452         4    ;  uncertainty k = 0.137453
        10        11        12        34     9        0.000000        0.069646         1    ;  uncertainty k = 0.067795
        10        11        12        34     9      180.000000        7.812867         2    ;  uncertainty k = 0.200631
        10        11        12        34     9        0.000000        1.367062         3    ;  uncertainty k = 0.299642
        10        11        12        34     9      180.000000        1.835394         4    ;  uncertainty k = 0.152349
        11        10         9        19     9        0.000000        0.138880         1    ;  uncertainty k = 0.273316
        11        10         9        19     9      180.000000        9.611408         2    ;  uncertainty k = 0.646931
        11        10         9        19     9        0.000000        1.485930         3    ;  uncertainty k = 0.454577
        11        10         9        19     9      180.000000        1.742540         4    ;  uncertainty k = 0.176936
        11        12         7        13     9        0.000000        0.183108         1    ;  uncertainty k = 0.297811
        11        12         7        13     9      180.000000        8.679099         2    ;  uncertainty k = 0.667862
        11        12         7        13     9        0.000000        1.217878         3    ;  uncertainty k = 0.306271
        11        12         7        13     9      180.000000        1.948439         4    ;  uncertainty k = 0.246361
        12         7         8        20     9        0.000000       -0.052161         1    ;  uncertainty k = 0.220109
        12         7         8        20     9      180.000000        7.975138         2    ;  uncertainty k = 0.435978
        12         7         8        20     9        0.000000        1.361586         3    ;  uncertainty k = 0.345919
        12         7         8        20     9      180.000000        1.574781         4    ;  uncertainty k = 0.152568
        12         7        13        14     9        0.000000        0.907744         1    ;  uncertainty k = 0.512325
        12         7        13        14     9      180.000000        5.429693         2    ;  uncertainty k = 0.313191
        12         7        13        14     9        0.000000        0.401088         3    ;  uncertainty k = 0.248142
        12         7        13        14     9      180.000000        0.309360         4    ;  uncertainty k = 0.181224
        12         7        13        18     9        0.000000       -0.501779         1    ;  uncertainty k = 0.384436
        12         7        13        18     9      180.000000        3.881840         2    ;  uncertainty k = 0.365983
        12         7        13        18     9        0.000000        0.599884         3    ;  uncertainty k = 0.328535
        12         7        13        18     9      180.000000        0.278033         4    ;  uncertainty k = 0.221479
        12        11        10        32     9        0.000000        0.131595         1    ;  uncertainty k = 0.106145
        12        11        10        32     9      180.000000        7.555672         2    ;  uncertainty k = 0.306483
        12        11        10        32     9        0.000000        1.476388         3    ;  uncertainty k = 0.228295
        12        11        10        32     9      180.000000        1.782294         4    ;  uncertainty k = 0.178684
        13         7         8        20     9        0.000000       -0.305908         1    ;  uncertainty k = 0.704733
        13         7         8        20     9      180.000000        7.668111         2    ;  uncertainty k = 0.376573
        13         7         8        20     9        0.000000        1.183885         3    ;  uncertainty k = 0.290672
        13         7         8        20     9      180.000000        1.475827         4    ;  uncertainty k = 0.217539
        13         7        12        34     9        0.000000       -0.236358         1    ;  uncertainty k = 0.244478
        13         7        12        34     9      180.000000        7.207679         2    ;  uncertainty k = 0.273125
        13         7        12        34     9        0.000000        0.723390         3    ;  uncertainty k = 0.352575
        13         7        12        34     9      180.000000        1.295789         4    ;  uncertainty k = 0.197197
        13        14        15        16     9        0.000000        0.144415         1    ;  uncertainty k = 1.289599
        13        14        15        16     9      180.000000       16.077963         2    ;  uncertainty k = 0.389808
        13        14        15        16     9        0.000000        1.043199         3    ;  uncertainty k = 0.429845
        13        14        15        16     9      180.000000        1.566843         4    ;  uncertainty k = 0.154932
        13        14        15        41     9        0.000000        0.581404         1    ;  uncertainty k = 0.526581
        13        14        15        41     9      180.000000       15.885297         2    ;  uncertainty k = 0.576229
        13        14        15        41     9        0.000000        2.192915         3    ;  uncertainty k = 0.482625
        13        14        15        41     9      180.000000        1.695497         4    ;  uncertainty k = 0.267965
        13        18        17        16     9        0.000000        1.931357         1    ;  uncertainty k = 1.264258
        13        18        17        16     9      180.000000        7.832002         2    ;  uncertainty k = 0.934342
        13        18        17        16     9        0.000000        1.371943         3    ;  uncertainty k = 0.507234
        13        18        17        16     9      180.000000        1.085264         4    ;  uncertainty k = 0.439079
        13        18        21        35     9        0.000000        6.090338         1    ;  uncertainty k = 0.778395
        13        18        21        35     9      180.000000        6.736456         2    ;  uncertainty k = 0.461399
        13        18        21        35     9        0.000000        0.582165         3    ;  uncertainty k = 0.353427
        13        18        21        35     9      180.000000        0.008948         4    ;  uncertainty k = 0.107164
        13        18        21        42     9        0.000000        3.926004         1    ;  uncertainty k = 1.418519
        13        18        21        42     9      180.000000        5.330589         2    ;  uncertainty k = 0.942202
        13        18        21        42     9        0.000000        0.675251         3    ;  uncertainty k = 0.163127
        13        18        21        42     9      180.000000       -0.192434         4    ;  uncertainty k = 0.327974
        14        13        18        17     9        0.000000       -0.748247         1    ;  uncertainty k = 0.734649
        14        13        18        17     9      180.000000        3.613782         2    ;  uncertainty k = 0.769673
        14        13        18        17     9        0.000000       -0.688671         3    ;  uncertainty k = 0.664347
        14        13        18        17     9      180.000000        0.688676         4    ;  uncertainty k = 0.476568
        14        13        18        21     9        0.000000        0.651165         1    ;  uncertainty k = 0.386459
        14        13        18        21     9      180.000000        3.008905         2    ;  uncertainty k = 1.179971
        14        13        18        21     9        0.000000        0.302530         3    ;  uncertainty k = 0.245560
        14        13        18        21     9      180.000000        0.577659         4    ;  uncertainty k = 0.312100
        14        15        16        17     9        0.000000       -0.739394         1    ;  uncertainty k = 0.339670
        14        15        16        17     9      180.000000        6.290569         2    ;  uncertainty k = 1.127912
        14        15        16        17     9        0.000000       -0.724415         3    ;  uncertainty k = 0.514756
        14        15        16        17     9      180.000000        0.995890         4    ;  uncertainty k = 0.515895
        15        14        13        18     9        0.000000        0.998895         1    ;  uncertainty k = 0.794554
        15        14        13        18     9      180.000000       14.348177         2    ;  uncertainty k = 0.156021
        15        14        13        18     9        0.000000        1.687037         3    ;  uncertainty k = 0.444831
        15        14        13        18     9      180.000000        1.371998         4    ;  uncertainty k = 0.245482
        15        16        17        18     9        0.000000        0.838982         1    ;  uncertainty k = 1.328643
        15        16        17        18     9      180.000000        8.160999         2    ;  uncertainty k = 0.768567
        15        16        17        18     9        0.000000        1.324936         3    ;  uncertainty k = 0.482786
        15        16        17        18     9      180.000000        0.669115         4    ;  uncertainty k = 0.347340
        16         1         2        24     9        0.000000        0.190580         1    ;  uncertainty k = 0.488379
        16         1         2        24     9      180.000000       -0.775091         2    ;  uncertainty k = 0.140146
        16         1         2        24     9        0.000000        0.191920         3    ;  uncertainty k = 0.149074
        16         1         2        24     9      180.000000        0.229677         4    ;  uncertainty k = 0.065748
        16         1         2        25     9        0.000000        0.190579         1    ;  uncertainty k = 0.488378
        16         1         2        25     9      180.000000       -0.775092         2    ;  uncertainty k = 0.140147
        16         1         2        25     9        0.000000        0.191920         3    ;  uncertainty k = 0.149074
        16         1         2        25     9      180.000000        0.229678         4    ;  uncertainty k = 0.065748
        16         1         6        30     9        0.000000        0.190579         1    ;  uncertainty k = 0.488378
        16         1         6        30     9      180.000000       -0.775092         2    ;  uncertainty k = 0.140147
        16         1         6        30     9        0.000000        0.191920         3    ;  uncertainty k = 0.149074
        16         1         6        30     9      180.000000        0.229678         4    ;  uncertainty k = 0.065748
        16         1         6        31     9        0.000000        0.190579         1    ;  uncertainty k = 0.488378
        16         1         6        31     9      180.000000       -0.775092         2    ;  uncertainty k = 0.140147
        16         1         6        31     9        0.000000        0.191920         3    ;  uncertainty k = 0.149074
        16         1         6        31     9      180.000000        0.229678         4    ;  uncertainty k = 0.065748
        16        17        18        21     9        0.000000        0.148940         1    ;  uncertainty k = 1.563938
        16        17        18        21     9      180.000000       13.237280         2    ;  uncertainty k = 0.404795
        16        17        18        21     9        0.000000        2.378234         3    ;  uncertainty k = 0.416774
        16        17        18        21     9      180.000000        1.740482         4    ;  uncertainty k = 0.219053
        17        16        15        41     9        0.000000        0.220650         1    ;  uncertainty k = 1.181995
        17        16        15        41     9      180.000000        4.367084         2    ;  uncertainty k = 0.846813
        17        16        15        41     9        0.000000        0.924157         3    ;  uncertainty k = 0.509681
        17        16        15        41     9      180.000000        0.941974         4    ;  uncertainty k = 0.109690
        17        18        21        35     9        0.000000        7.167685         1    ;  uncertainty k = 0.652592
        17        18        21        35     9      180.000000       11.307172         2    ;  uncertainty k = 0.389243
        17        18        21        35     9        0.000000        0.430762         3    ;  uncertainty k = 0.177116
        17        18        21        35     9      180.000000       -0.056197         4    ;  uncertainty k = 0.135145
        17        18        21        42     9        0.000000       13.354539         1    ;  uncertainty k = 0.184278
        17        18        21        42     9      180.000000        9.590779         2    ;  uncertainty k = 0.135308
        17        18        21        42     9        0.000000        0.342785         3    ;  uncertainty k = 0.273337
        17        18        21        42     9      180.000000       -0.379665         4    ;  uncertainty k = 0.222046
        18        21        35        43     9        0.000000       -1.490412         1    ;  uncertainty k = 0.774226
        18        21        35        43     9      180.000000       -1.090294         2    ;  uncertainty k = 0.389329
        18        21        35        43     9        0.000000        0.444757         3    ;  uncertainty k = 0.218802
        18        21        35        43     9      180.000000        0.262775         4    ;  uncertainty k = 0.050943
        18        21        35        44     9        0.000000       -1.490412         1    ;  uncertainty k = 0.774226
        18        21        35        44     9      180.000000       -1.090294         2    ;  uncertainty k = 0.389329
        18        21        35        44     9        0.000000        0.444757         3    ;  uncertainty k = 0.218802
        18        21        35        44     9      180.000000        0.262775         4    ;  uncertainty k = 0.050943
        18        21        35        45     9        0.000000       -1.490412         1    ;  uncertainty k = 0.774226
        18        21        35        45     9      180.000000       -1.090294         2    ;  uncertainty k = 0.389329
        18        21        35        45     9        0.000000        0.444757         3    ;  uncertainty k = 0.218802
        18        21        35        45     9      180.000000        0.262775         4    ;  uncertainty k = 0.050943
        19         9         8        20     9        0.000000        0.127028         1    ;  uncertainty k = 0.458559
        19         9         8        20     9      180.000000        7.584079         2    ;  uncertainty k = 0.298205
        19         9         8        20     9        0.000000        1.208450         3    ;  uncertainty k = 0.256922
        19         9         8        20     9      180.000000        1.439487         4    ;  uncertainty k = 0.242719
        19         9        10        32     9        0.000000       -0.183324         1    ;  uncertainty k = 0.309109
        19         9        10        32     9      180.000000        7.615952         2    ;  uncertainty k = 0.378043
        19         9        10        32     9        0.000000        0.553325         3    ;  uncertainty k = 0.272076
        19         9        10        32     9      180.000000        1.023076         4    ;  uncertainty k = 0.167401
        22         4         3        26     9        0.000000       -0.953768         1    ;  uncertainty k = 0.757469
        22         4         3        26     9      180.000000       -1.816826         2    ;  uncertainty k = 0.442932
        22         4         3        26     9        0.000000        0.532727         3    ;  uncertainty k = 0.157901
        22         4         3        26     9      180.000000       -0.244066         4    ;  uncertainty k = 0.144685
        22         4         3        27     9        0.000000       -0.953768         1    ;  uncertainty k = 0.757469
        22         4         3        27     9      180.000000       -1.816826         2    ;  uncertainty k = 0.442932
        22         4         3        27     9        0.000000        0.532727         3    ;  uncertainty k = 0.157901
        22         4         3        27     9      180.000000       -0.244066         4    ;  uncertainty k = 0.144685
        22         4         5        28     9        0.000000       -0.953768         1    ;  uncertainty k = 0.757469
        22         4         5        28     9      180.000000       -1.816826         2    ;  uncertainty k = 0.442932
        22         4         5        28     9        0.000000        0.532727         3    ;  uncertainty k = 0.157901
        22         4         5        28     9      180.000000       -0.244066         4    ;  uncertainty k = 0.144685
        22         4         5        29     9        0.000000       -0.953768         1    ;  uncertainty k = 0.757469
        22         4         5        29     9      180.000000       -1.816826         2    ;  uncertainty k = 0.442932
        22         4         5        29     9        0.000000        0.532727         3    ;  uncertainty k = 0.157901
        22         4         5        29     9      180.000000       -0.244066         4    ;  uncertainty k = 0.144685
        22         4        23        37     9        0.000000       -1.658331         1    ;  uncertainty k = 1.431247
        22         4        23        37     9      180.000000       -2.618283         2    ;  uncertainty k = 0.451254
        22         4        23        37     9        0.000000        0.778238         3    ;  uncertainty k = 0.254190
        22         4        23        37     9      180.000000       -0.194334         4    ;  uncertainty k = 0.172569
        22         4        23        38     9        0.000000       -1.658331         1    ;  uncertainty k = 1.431247
        22         4        23        38     9      180.000000       -2.618283         2    ;  uncertainty k = 0.451254
        22         4        23        38     9        0.000000        0.778238         3    ;  uncertainty k = 0.254190
        22         4        23        38     9      180.000000       -0.194334         4    ;  uncertainty k = 0.172569
        22         4        23        39     9        0.000000       -1.658331         1    ;  uncertainty k = 1.431247
        22         4        23        39     9      180.000000       -2.618283         2    ;  uncertainty k = 0.451254
        22         4        23        39     9        0.000000        0.778238         3    ;  uncertainty k = 0.254190
        22         4        23        39     9      180.000000       -0.194334         4    ;  uncertainty k = 0.172569
        23         4         3        26     9        0.000000       -0.343027         1    ;  uncertainty k = 0.403495
        23         4         3        26     9      180.000000       -0.061672         2    ;  uncertainty k = 0.389274
        23         4         3        26     9        0.000000        0.274791         3    ;  uncertainty k = 0.213692
        23         4         3        26     9      180.000000       -0.053928         4    ;  uncertainty k = 0.077785
        23         4         3        27     9        0.000000       -0.343027         1    ;  uncertainty k = 0.403495
        23         4         3        27     9      180.000000       -0.061672         2    ;  uncertainty k = 0.389274
        23         4         3        27     9        0.000000        0.274791         3    ;  uncertainty k = 0.213692
        23         4         3        27     9      180.000000       -0.053928         4    ;  uncertainty k = 0.077785
        23         4         5        28     9        0.000000       -0.343027         1    ;  uncertainty k = 0.403495
        23         4         5        28     9      180.000000       -0.061672         2    ;  uncertainty k = 0.389274
        23         4         5        28     9        0.000000        0.274791         3    ;  uncertainty k = 0.213692
        23         4         5        28     9      180.000000       -0.053928         4    ;  uncertainty k = 0.077785
        23         4         5        29     9        0.000000       -0.343027         1    ;  uncertainty k = 0.403495
        23         4         5        29     9      180.000000       -0.061672         2    ;  uncertainty k = 0.389274
        23         4         5        29     9        0.000000        0.274791         3    ;  uncertainty k = 0.213692
        23         4         5        29     9      180.000000       -0.053928         4    ;  uncertainty k = 0.077785
        23         4        22        36     9        0.000000        0.214190         1    ;  uncertainty k = 1.165374
        23         4        22        36     9      180.000000       -0.101716         2    ;  uncertainty k = 0.387076
        23         4        22        36     9        0.000000        0.750310         3    ;  uncertainty k = 0.221539
        23         4        22        36     9      180.000000       -0.027140         4    ;  uncertainty k = 0.139764
        23         4        22        40     9        0.000000        0.214190         1    ;  uncertainty k = 1.165374
        23         4        22        40     9      180.000000       -0.101716         2    ;  uncertainty k = 0.387076
        23         4        22        40     9        0.000000        0.750310         3    ;  uncertainty k = 0.221539
        23         4        22        40     9      180.000000       -0.027140         4    ;  uncertainty k = 0.139764
        23         4        22        46     9        0.000000        0.214190         1    ;  uncertainty k = 1.165374
        23         4        22        46     9      180.000000       -0.101716         2    ;  uncertainty k = 0.387076
        23         4        22        46     9        0.000000        0.750310         3    ;  uncertainty k = 0.221539
        23         4        22        46     9      180.000000       -0.027140         4    ;  uncertainty k = 0.139764
        24         2         3        26     9        0.000000        0.135397         1    ;  uncertainty k = 0.251783
        24         2         3        26     9      180.000000        0.391241         2    ;  uncertainty k = 0.363552
        24         2         3        26     9        0.000000        0.145808         3    ;  uncertainty k = 0.091162
        24         2         3        26     9      180.000000       -0.141138         4    ;  uncertainty k = 0.140090
        24         2         3        27     9        0.000000        0.135397         1    ;  uncertainty k = 0.251783
        24         2         3        27     9      180.000000        0.391241         2    ;  uncertainty k = 0.363552
        24         2         3        27     9        0.000000        0.145808         3    ;  uncertainty k = 0.091162
        24         2         3        27     9      180.000000       -0.141138         4    ;  uncertainty k = 0.140090
        25         2         3        26     9        0.000000        0.135397         1    ;  uncertainty k = 0.251784
        25         2         3        26     9      180.000000        0.391241         2    ;  uncertainty k = 0.363553
        25         2         3        26     9        0.000000        0.145808         3    ;  uncertainty k = 0.091162
        25         2         3        26     9      180.000000       -0.141138         4    ;  uncertainty k = 0.140090
        25         2         3        27     9        0.000000        0.135397         1    ;  uncertainty k = 0.251784
        25         2         3        27     9      180.000000        0.391241         2    ;  uncertainty k = 0.363553
        25         2         3        27     9        0.000000        0.145808         3    ;  uncertainty k = 0.091162
        25         2         3        27     9      180.000000       -0.141138         4    ;  uncertainty k = 0.140090
        28         5         6        30     9        0.000000        0.135397         1    ;  uncertainty k = 0.251784
        28         5         6        30     9      180.000000        0.391241         2    ;  uncertainty k = 0.363553
        28         5         6        30     9        0.000000        0.145808         3    ;  uncertainty k = 0.091162
        28         5         6        30     9      180.000000       -0.141138         4    ;  uncertainty k = 0.140090
        28         5         6        31     9        0.000000        0.135397         1    ;  uncertainty k = 0.251784
        28         5         6        31     9      180.000000        0.391241         2    ;  uncertainty k = 0.363553
        28         5         6        31     9        0.000000        0.145808         3    ;  uncertainty k = 0.091162
        28         5         6        31     9      180.000000       -0.141138         4    ;  uncertainty k = 0.140090
        29         5         6        30     9        0.000000        0.135397         1    ;  uncertainty k = 0.251784
        29         5         6        30     9      180.000000        0.391241         2    ;  uncertainty k = 0.363553
        29         5         6        30     9        0.000000        0.145808         3    ;  uncertainty k = 0.091162
        29         5         6        30     9      180.000000       -0.141138         4    ;  uncertainty k = 0.140090
        29         5         6        31     9        0.000000        0.135397         1    ;  uncertainty k = 0.251784
        29         5         6        31     9      180.000000        0.391241         2    ;  uncertainty k = 0.363553
        29         5         6        31     9        0.000000        0.145808         3    ;  uncertainty k = 0.091162
        29         5         6        31     9      180.000000       -0.141138         4    ;  uncertainty k = 0.140090
        32        10        11        33     9        0.000000       -0.063230         1    ;  uncertainty k = 0.143919
        32        10        11        33     9      180.000000        7.894392         2    ;  uncertainty k = 0.469259
        32        10        11        33     9        0.000000       -0.422798         3    ;  uncertainty k = 0.255830
        32        10        11        33     9      180.000000        0.044530         4    ;  uncertainty k = 0.174749
        33        11        12        34     9        0.000000       -0.025737         1    ;  uncertainty k = 0.216295
        33        11        12        34     9      180.000000        7.946947         2    ;  uncertainty k = 0.428487
        33        11        12        34     9        0.000000       -0.407574         3    ;  uncertainty k = 0.245418
        33        11        12        34     9      180.000000        0.167857         4    ;  uncertainty k = 0.135379
        42        21        35        43     9        0.000000        0.627352         1    ;  uncertainty k = 0.370877
        42        21        35        43     9      180.000000       -1.679069         2    ;  uncertainty k = 0.200235
        42        21        35        43     9        0.000000        0.390685         3    ;  uncertainty k = 0.041009
        42        21        35        43     9      180.000000        0.120445         4    ;  uncertainty k = 0.053691
        42        21        35        44     9        0.000000        0.627352         1    ;  uncertainty k = 0.370877
        42        21        35        44     9      180.000000       -1.679069         2    ;  uncertainty k = 0.200235
        42        21        35        44     9        0.000000        0.390685         3    ;  uncertainty k = 0.041009
        42        21        35        44     9      180.000000        0.120445         4    ;  uncertainty k = 0.053691
        42        21        35        45     9        0.000000        0.627352         1    ;  uncertainty k = 0.370877
        42        21        35        45     9      180.000000       -1.679069         2    ;  uncertainty k = 0.200235
        42        21        35        45     9        0.000000        0.390685         3    ;  uncertainty k = 0.041009
        42        21        35        45     9      180.000000        0.120445         4    ;  uncertainty k = 0.053691

[ dihedrals ] ; impropers
;       ai        aj        ak        al funct           phase               k        pn
         7         8        12        13     4      180.000000       14.087967         2    ;  uncertainty k = 0.076104
         7        12        13         8     4      180.000000       14.087967         2    ;  uncertainty k = 0.076104
         7        13         8        12     4      180.000000       14.087967         2    ;  uncertainty k = 0.076104
         8         7         9        20     4      180.000000       13.853141         2    ;  uncertainty k = 0.057228
         8         9        20         7     4      180.000000       13.853141         2    ;  uncertainty k = 0.057228
         8        20         7         9     4      180.000000       13.853141         2    ;  uncertainty k = 0.057228
         9         8        10        19     4      180.000000       13.291986         2    ;  uncertainty k = 0.070510
         9        10        19         8     4      180.000000       13.291986         2    ;  uncertainty k = 0.070510
         9        19         8        10     4      180.000000       13.291986         2    ;  uncertainty k = 0.070510
        10         9        11        32     4      180.000000        3.899337         2    ;  uncertainty k = 0.119505
        10        11        32         9     4      180.000000        3.899337         2    ;  uncertainty k = 0.119505
        10        32         9        11     4      180.000000        3.899337         2    ;  uncertainty k = 0.119505
        11        10        12        33     4      180.000000        4.055685         2    ;  uncertainty k = 0.065234
        11        12        33        10     4      180.000000        4.055685         2    ;  uncertainty k = 0.065234
        11        33        10        12     4      180.000000        4.055685         2    ;  uncertainty k = 0.065234
        12         7        11        34     4      180.000000        3.970999         2    ;  uncertainty k = 0.111626
        12        11        34         7     4      180.000000        3.970999         2    ;  uncertainty k = 0.111626
        12        34         7        11     4      180.000000        3.970999         2    ;  uncertainty k = 0.111626
        13         7        14        18     4      180.000000       17.967906         2    ;  uncertainty k = 0.068125
        13        14        18         7     4      180.000000       17.967906         2    ;  uncertainty k = 0.068125
        13        18         7        14     4      180.000000       17.967906         2    ;  uncertainty k = 0.068125
        15        14        16        41     4      180.000000        7.994225         2    ;  uncertainty k = 0.262296
        15        16        41        14     4      180.000000        7.994225         2    ;  uncertainty k = 0.262296
        15        41        14        16     4      180.000000        7.994225         2    ;  uncertainty k = 0.262296
        16         1        15        17     4      180.000000       31.739610         2    ;  uncertainty k = 0.053534
        16        15        17         1     4      180.000000       31.739610         2    ;  uncertainty k = 0.053534
        16        17         1        15     4      180.000000       31.739610         2    ;  uncertainty k = 0.053534
        18        13        17        21     4      180.000000       31.890295         2    ;  uncertainty k = 0.064597
        18        17        21        13     4      180.000000       31.890295         2    ;  uncertainty k = 0.064597
        18        21        13        17     4      180.000000       31.890295         2    ;  uncertainty k = 0.064597

[ pairs ]
;       ai        aj funct
         1         4     1
         1        14     1
         1        18     1
         1        26     1
         1        27     1
         1        28     1
         1        29     1
         1        41     1
         2         5     1
         2        15     1
         2        17     1
         2        22     1
         2        23     1
         2        30     1
         2        31     1
         3         6     1
         3        16     1
         3        28     1
         3        29     1
         3        36     1
         3        37     1
         3        38     1
         3        39     1
         3        40     1
         3        46     1
         4        24     1
         4        25     1
         4        30     1
         4        31     1
         5        16     1
         5        26     1
         5        27     1
         5        36     1
         5        37     1
         5        38     1
         5        39     1
         5        40     1
         5        46     1
         6        15     1
         6        17     1
         6        22     1
         6        23     1
         6        24     1
         6        25     1
         7        10     1
         7        15     1
         7        17     1
         7        19     1
         7        21     1
         7        33     1
         8        11     1
         8        14     1
         8        18     1
         8        32     1
         8        34     1
         9        12     1
         9        13     1
         9        33     1
        10        20     1
        10        34     1
        11        13     1
        11        19     1
        12        14     1
        12        18     1
        12        20     1
        12        32     1
        13        16     1
        13        20     1
        13        34     1
        13        35     1
        13        41     1
        13        42     1
        14        17     1
        14        21     1
        15        18     1
        16        21     1
        16        24     1
        16        25     1
        16        30     1
        16        31     1
        17        35     1
        17        41     1
        17        42     1
        18        43     1
        18        44     1
        18        45     1
        19        20     1
        19        32     1
        22        26     1
        22        27     1
        22        28     1
        22        29     1
        22        37     1
        22        38     1
        22        39     1
        23        26     1
        23        27     1
        23        28     1
        23        29     1
        23        36     1
        23        40     1
        23        46     1
        24        26     1
        24        27     1
        25        26     1
        25        27     1
        28        30     1
        28        31     1
        29        30     1
        29        31     1
        32        33     1
        33        34     1
        42        43     1
        42        44     1
        42        45     1
