; ITP file created by ByteFF-joint-25, 2026-02-17 09:33:39.739644

[ atomtypes ]
;name           bonded.type        at.num        mass        charge   ptype           sigma         epsilon
 n0bf                                   7      0.0000       0.00000       A     3.18854e-01     9.01783e-01    ;  uncertainty sigma = 0.000048, epsilon = 0.008949
 c1bf                                   6      0.0000       0.00000       A     3.39785e-01     4.51041e-01    ;  uncertainty sigma = 0.000019, epsilon = 0.000750
 c2bf                                   6      0.0000       0.00000       A     3.39781e-01     4.50408e-01    ;  uncertainty sigma = 0.000012, epsilon = 0.002939
 n3bf                                   7      0.0000       0.00000       A     2.67848e-01     7.11345e+00    ;  uncertainty sigma = 0.000081, epsilon = 0.013767
 c4bf                                   6      0.0000       0.00000       A     3.39781e-01     4.50408e-01    ;  uncertainty sigma = 0.000012, epsilon = 0.002939
 c5bf                                   6      0.0000       0.00000       A     3.39785e-01     4.51041e-01    ;  uncertainty sigma = 0.000019, epsilon = 0.000750
 c6bf                                   6      0.0000       0.00000       A     3.31546e-01     4.12752e-01    ;  uncertainty sigma = 0.000008, epsilon = 0.000819
 c7bf                                   6      0.0000       0.00000       A     3.31523e-01     4.13514e-01    ;  uncertainty sigma = 0.000004, epsilon = 0.000747
 c8bf                                   6      0.0000       0.00000       A     3.31526e-01     4.13122e-01    ;  uncertainty sigma = 0.000006, epsilon = 0.000502
 c9bf                                   6      0.0000       0.00000       A     3.31522e-01     4.13446e-01    ;  uncertainty sigma = 0.000004, epsilon = 0.000552
 c10bf                                  6      0.0000       0.00000       A     3.31521e-01     4.13375e-01    ;  uncertainty sigma = 0.000003, epsilon = 0.000656
 c11bf                                  6      0.0000       0.00000       A     3.31511e-01     4.13377e-01    ;  uncertainty sigma = 0.000005, epsilon = 0.000701
 c12bf                                  6      0.0000       0.00000       A     3.31541e-01     4.12899e-01    ;  uncertainty sigma = 0.000013, epsilon = 0.001785
 c13bf                                  6      0.0000       0.00000       A     3.31511e-01     4.13352e-01    ;  uncertainty sigma = 0.000009, epsilon = 0.000441
 n14bf                                  7      0.0000       0.00000       A     3.38405e-01     3.93997e-01    ;  uncertainty sigma = 0.000020, epsilon = 0.001343
 c15bf                                  6      0.0000       0.00000       A     3.31593e-01     4.14674e-01    ;  uncertainty sigma = 0.000005, epsilon = 0.000907
 n16bf                                  7      0.0000       0.00000       A     3.38461e-01     3.93887e-01    ;  uncertainty sigma = 0.000038, epsilon = 0.001240
 c17bf                                  6      0.0000       0.00000       A     3.31531e-01     4.12136e-01    ;  uncertainty sigma = 0.000013, epsilon = 0.001795
 cl18bf                                17      0.0000       0.00000       A     3.46610e-01     1.10414e+00    ;  uncertainty sigma = 0.000013, epsilon = 0.001445
 n19bf                                  7      0.0000       0.00000       A     3.36871e-01     4.68770e-01    ;  uncertainty sigma = 0.000036, epsilon = 0.004307
 c20bf                                  6      0.0000       0.00000       A     3.39797e-01     4.51325e-01    ;  uncertainty sigma = 0.000015, epsilon = 0.000395
 c21bf                                  6      0.0000       0.00000       A     3.39797e-01     4.51325e-01    ;  uncertainty sigma = 0.000015, epsilon = 0.000395
 h22bf                                  1      0.0000       0.00000       A     2.42207e-01     8.68256e-02    ;  uncertainty sigma = 0.000021, epsilon = 0.000432
 h23bf                                  1      0.0000       0.00000       A     2.42207e-01     8.68256e-02    ;  uncertainty sigma = 0.000021, epsilon = 0.000432
 h24bf                                  1      0.0000       0.00000       A     1.88590e-01     8.73090e-02    ;  uncertainty sigma = 0.000026, epsilon = 0.001311
 h25bf                                  1      0.0000       0.00000       A     1.10703e-01     4.08586e-02    ;  uncertainty sigma = 0.000171, epsilon = 0.000512
 h26bf                                  1      0.0000       0.00000       A     1.88590e-01     8.73090e-02    ;  uncertainty sigma = 0.000026, epsilon = 0.001311
 h27bf                                  1      0.0000       0.00000       A     2.42207e-01     8.68256e-02    ;  uncertainty sigma = 0.000021, epsilon = 0.000432
 h28bf                                  1      0.0000       0.00000       A     2.42207e-01     8.68256e-02    ;  uncertainty sigma = 0.000021, epsilon = 0.000432
 h29bf                                  1      0.0000       0.00000       A     2.62559e-01     6.71671e-02    ;  uncertainty sigma = 0.000013, epsilon = 0.000620
 h30bf                                  1      0.0000       0.00000       A     2.62560e-01     6.70939e-02    ;  uncertainty sigma = 0.000009, epsilon = 0.000590
 h31bf                                  1      0.0000       0.00000       A     2.62568e-01     6.69666e-02    ;  uncertainty sigma = 0.000007, epsilon = 0.000468
 h32bf                                  1      0.0000       0.00000       A     2.62562e-01     6.70410e-02    ;  uncertainty sigma = 0.000012, epsilon = 0.000506
 h33bf                                  1      0.0000       0.00000       A     2.53681e-01     6.68791e-02    ;  uncertainty sigma = 0.000034, epsilon = 0.000846
 h34bf                                  1      0.0000       0.00000       A     1.10718e-01     4.12967e-02    ;  uncertainty sigma = 0.000085, epsilon = 0.000435
 h35bf                                  1      0.0000       0.00000       A     1.10718e-01     4.12967e-02    ;  uncertainty sigma = 0.000085, epsilon = 0.000435
 h36bf                                  1      0.0000       0.00000       A     2.59993e-01     8.65310e-02    ;  uncertainty sigma = 0.000019, epsilon = 0.000536
 h37bf                                  1      0.0000       0.00000       A     2.59993e-01     8.65310e-02    ;  uncertainty sigma = 0.000019, epsilon = 0.000536
 h38bf                                  1      0.0000       0.00000       A     2.59993e-01     8.65310e-02    ;  uncertainty sigma = 0.000019, epsilon = 0.000536
 h39bf                                  1      0.0000       0.00000       A     2.59993e-01     8.65310e-02    ;  uncertainty sigma = 0.000019, epsilon = 0.000536
 h40bf                                  1      0.0000       0.00000       A     2.59993e-01     8.65309e-02    ;  uncertainty sigma = 0.000019, epsilon = 0.000536
 h41bf                                  1      0.0000       0.00000       A     2.59993e-01     8.65310e-02    ;  uncertainty sigma = 0.000019, epsilon = 0.000536
 h42bf                                  1      0.0000       0.00000       A     1.10703e-01     4.08587e-02    ;  uncertainty sigma = 0.000171, epsilon = 0.000512

[ moleculetype ]
;name             nrexcl
 MOL                   3

[ atoms ]
;       nr            type      resi   res      atom      cgnr      charge          mass ; qtot
         1            n0bf         1   UNL        n0         1    -0.76801       14.0070 ; qtot   -0.768
         2            c1bf         1   UNL        c1         2     0.20764       12.0110 ; qtot   -0.560
         3            c2bf         1   UNL        c2         3     0.14076       12.0110 ; qtot   -0.420
         4            n3bf         1   UNL        n3         4    -0.78667       14.0070 ; qtot   -1.206
         5            c4bf         1   UNL        c4         5     0.14076       12.0110 ; qtot   -1.066
         6            c5bf         1   UNL        c5         6     0.20764       12.0110 ; qtot   -0.858
         7            c6bf         1   UNL        c6         7    -0.01448       12.0110 ; qtot   -0.872
         8            c7bf         1   UNL        c7         8    -0.11520       12.0110 ; qtot   -0.988
         9            c8bf         1   UNL        c8         9     0.03268       12.0110 ; qtot   -0.955
        10            c9bf         1   UNL        c9        10    -0.11373       12.0110 ; qtot   -1.069
        11           c10bf         1   UNL       c10        11    -0.11989       12.0110 ; qtot   -1.189
        12           c11bf         1   UNL       c11        12    -0.12018       12.0110 ; qtot   -1.309
        13           c12bf         1   UNL       c12        13    -0.37956       12.0110 ; qtot   -1.688
        14           c13bf         1   UNL       c13        14     0.50417       12.0110 ; qtot   -1.184
        15           n14bf         1   UNL       n14        15    -0.78231       14.0070 ; qtot   -1.966
        16           c15bf         1   UNL       c15        16     0.92022       12.0110 ; qtot   -1.046
        17           n16bf         1   UNL       n16        17    -0.84044       14.0070 ; qtot   -1.887
        18           c17bf         1   UNL       c17        18     0.72171       12.0110 ; qtot   -1.165
        19          cl18bf         1   UNL      cl18        19    -0.11712       35.4530 ; qtot   -1.282
        20           n19bf         1   UNL       n19        20    -0.92467       14.0070 ; qtot   -2.207
        21           c20bf         1   UNL       c20        21    -0.13213       12.0110 ; qtot   -2.339
        22           c21bf         1   UNL       c21        22    -0.13213       12.0110 ; qtot   -2.471
        23           h22bf         1   UNL       h22        23     0.09997        1.0080 ; qtot   -2.371
        24           h23bf         1   UNL       h23        24     0.09997        1.0080 ; qtot   -2.271
        25           h24bf         1   UNL       h24        25     0.10977        1.0080 ; qtot   -2.161
        26           h25bf         1   UNL       h25        26     0.45362        1.0080 ; qtot   -1.708
        27           h26bf         1   UNL       h26        27     0.10977        1.0080 ; qtot   -1.598
        28           h27bf         1   UNL       h27        28     0.09997        1.0080 ; qtot   -1.498
        29           h28bf         1   UNL       h28        29     0.09997        1.0080 ; qtot   -1.398
        30           h29bf         1   UNL       h29        30     0.15396        1.0080 ; qtot   -1.244
        31           h30bf         1   UNL       h30        31     0.15171        1.0080 ; qtot   -1.092
        32           h31bf         1   UNL       h31        32     0.13920        1.0080 ; qtot   -0.953
        33           h32bf         1   UNL       h32        33     0.14188        1.0080 ; qtot   -0.811
        34           h33bf         1   UNL       h33        34     0.02199        1.0080 ; qtot   -0.789
        35           h34bf         1   UNL       h34        35     0.42318        1.0080 ; qtot   -0.366
        36           h35bf         1   UNL       h35        36     0.42318        1.0080 ; qtot    0.057
        37           h36bf         1   UNL       h36        37     0.08153        1.0080 ; qtot    0.139
        38           h37bf         1   UNL       h37        38     0.08153        1.0080 ; qtot    0.220
        39           h38bf         1   UNL       h38        39     0.08153        1.0080 ; qtot    0.302
        40           h39bf         1   UNL       h39        40     0.08153        1.0080 ; qtot    0.383
        41           h40bf         1   UNL       h40        41     0.08153        1.0080 ; qtot    0.465
        42           h41bf         1   UNL       h41        42     0.08153        1.0080 ; qtot    0.546
        43           h42bf         1   UNL       h42        43     0.45362        1.0080 ; qtot    1.000

[ bonds ]
;       ai        aj funct               r               k
         1         2     1        0.144779   276549.631445    ;  uncertainty r = 0.000221, k = 15.766291
         1         6     1        0.144779   276549.631445    ;  uncertainty r = 0.000221, k = 15.766291
         1        16     1        0.140005   327605.923145    ;  uncertainty r = 0.000253, k = 27.135205
         2         3     1        0.153187   206368.956055    ;  uncertainty r = 0.000210, k = 9.934365
         2        23     1        0.109554   308679.860645    ;  uncertainty r = 0.000047, k = 3.717700
         2        24     1        0.109554   308679.860645    ;  uncertainty r = 0.000047, k = 3.717700
         3         4     1        0.152679   173592.037866    ;  uncertainty r = 0.000193, k = 5.031134
         3        21     1        0.152461   211900.638696    ;  uncertainty r = 0.000050, k = 7.217761
         3        25     1        0.109227   310938.311523    ;  uncertainty r = 0.000042, k = 5.423053
         4         5     1        0.152679   173592.037866    ;  uncertainty r = 0.000193, k = 5.031134
         4        26     1        0.102749   388723.503955    ;  uncertainty r = 0.000070, k = 10.530730
         4        43     1        0.102749   388723.503955    ;  uncertainty r = 0.000070, k = 10.530718
         5         6     1        0.153187   206368.956055    ;  uncertainty r = 0.000210, k = 9.934365
         5        22     1        0.152461   211900.638696    ;  uncertainty r = 0.000050, k = 7.217761
         5        27     1        0.109227   310938.311523    ;  uncertainty r = 0.000042, k = 5.423053
         6        28     1        0.109554   308679.860645    ;  uncertainty r = 0.000047, k = 3.717700
         6        29     1        0.109554   308679.860645    ;  uncertainty r = 0.000047, k = 3.717700
         7         8     1        0.140358   351869.701172    ;  uncertainty r = 0.000062, k = 3.251413
         7        12     1        0.140443   348447.805127    ;  uncertainty r = 0.000054, k = 3.561992
         7        13     1        0.147932   287605.029150    ;  uncertainty r = 0.000084, k = 10.191051
         8         9     1        0.139337   355685.072998    ;  uncertainty r = 0.000022, k = 3.029636
         8        30     1        0.108730   335852.826172    ;  uncertainty r = 0.000018, k = 1.471880
         9        10     1        0.139473   361470.683887    ;  uncertainty r = 0.000016, k = 2.291882
         9        19     1        0.175805   197124.292627    ;  uncertainty r = 0.000030, k = 2.861059
        10        11     1        0.139500   374338.220410    ;  uncertainty r = 0.000020, k = 1.415151
        10        31     1        0.108715   335671.742529    ;  uncertainty r = 0.000009, k = 0.604888
        11        12     1        0.139477   366650.631152    ;  uncertainty r = 0.000024, k = 1.419730
        11        32     1        0.108776   333408.771582    ;  uncertainty r = 0.000008, k = 1.051682
        12        33     1        0.108802   334509.523145    ;  uncertainty r = 0.000026, k = 1.466142
        13        14     1        0.140304   407186.476514    ;  uncertainty r = 0.000043, k = 17.465989
        13        18     1        0.142584   428167.995410    ;  uncertainty r = 0.000121, k = 25.218271
        14        15     1        0.134459   425333.835938    ;  uncertainty r = 0.000297, k = 15.677051
        14        34     1        0.108873   326777.422705    ;  uncertainty r = 0.000020, k = 3.784126
        15        16     1        0.135569   466988.589746    ;  uncertainty r = 0.000277, k = 23.811604
        16        17     1        0.136494   453987.289844    ;  uncertainty r = 0.000285, k = 24.461962
        17        18     1        0.137116   553321.691113    ;  uncertainty r = 0.000301, k = 18.123506
        18        20     1        0.141191   545409.528516    ;  uncertainty r = 0.000336, k = 32.145426
        20        35     1        0.101885   428718.371191    ;  uncertainty r = 0.000039, k = 2.239531
        20        36     1        0.101885   428718.371191    ;  uncertainty r = 0.000039, k = 2.239531
        21        37     1        0.109435   314705.596973    ;  uncertainty r = 0.000015, k = 2.568362
        21        38     1        0.109435   314705.596973    ;  uncertainty r = 0.000015, k = 2.568362
        21        39     1        0.109435   314705.596973    ;  uncertainty r = 0.000015, k = 2.568362
        22        40     1        0.109435   314705.596973    ;  uncertainty r = 0.000015, k = 2.568362
        22        41     1        0.109435   314705.596973    ;  uncertainty r = 0.000015, k = 2.568362
        22        42     1        0.109435   314705.596973    ;  uncertainty r = 0.000015, k = 2.568364

[ angles ]
;       ai        aj        ak funct           theta             cth
         1         2         3     1      109.329224      643.624345    ;  uncertainty theta = 0.006954, k = 0.212215
         1         2        23     1      107.277908      461.102963    ;  uncertainty theta = 0.004977, k = 0.064880
         1         2        24     1      107.277908      461.102963    ;  uncertainty theta = 0.004977, k = 0.064880
         1         6         5     1      109.329224      643.624345    ;  uncertainty theta = 0.006954, k = 0.212215
         1         6        28     1      107.277908      461.102963    ;  uncertainty theta = 0.004977, k = 0.064880
         1         6        29     1      107.277908      461.102963    ;  uncertainty theta = 0.004977, k = 0.064880
         1        16        15     1      120.721962      574.796217    ;  uncertainty theta = 0.007645, k = 0.124683
         1        16        17     1      120.884438      599.268492    ;  uncertainty theta = 0.007891, k = 0.116597
         2         1         6     1      108.938576      429.288864    ;  uncertainty theta = 0.003559, k = 0.373166
         2         1        16     1      111.160965      430.757726    ;  uncertainty theta = 0.003078, k = 0.119235
         2         3         4     1      107.460464      700.244585    ;  uncertainty theta = 0.003667, k = 0.186760
         2         3        21     1      112.441856      558.830480    ;  uncertainty theta = 0.004678, k = 0.128186
         2         3        25     1      109.599533      400.829128    ;  uncertainty theta = 0.003531, k = 0.077184
         3         2        23     1      108.323303      413.330948    ;  uncertainty theta = 0.002194, k = 0.117162
         3         2        24     1      108.323303      413.330948    ;  uncertainty theta = 0.002194, k = 0.117162
         3         4         5     1      113.868286      590.753909    ;  uncertainty theta = 0.003223, k = 0.150278
         3         4        26     1      108.401489      425.296264    ;  uncertainty theta = 0.002532, k = 0.161466
         3         4        43     1      108.401489      425.296264    ;  uncertainty theta = 0.002532, k = 0.161466
         3        21        37     1      107.746384      398.727264    ;  uncertainty theta = 0.001931, k = 0.092858
         3        21        38     1      107.746384      398.727264    ;  uncertainty theta = 0.001931, k = 0.092858
         3        21        39     1      107.746384      398.727264    ;  uncertainty theta = 0.001931, k = 0.092858
         4         3        21     1      109.754440      709.850113    ;  uncertainty theta = 0.002467, k = 0.173077
         4         3        25     1      104.779617      464.907226    ;  uncertainty theta = 0.002841, k = 0.109708
         4         5         6     1      107.460464      700.244585    ;  uncertainty theta = 0.003667, k = 0.186760
         4         5        22     1      109.754440      709.850113    ;  uncertainty theta = 0.002467, k = 0.173077
         4         5        27     1      104.779617      464.907226    ;  uncertainty theta = 0.002841, k = 0.109708
         5         4        26     1      108.401489      425.296264    ;  uncertainty theta = 0.002532, k = 0.161466
         5         4        43     1      108.401489      425.296233    ;  uncertainty theta = 0.002532, k = 0.161466
         5         6        28     1      108.323303      413.330948    ;  uncertainty theta = 0.002194, k = 0.117162
         5         6        29     1      108.323303      413.330948    ;  uncertainty theta = 0.002194, k = 0.117162
         5        22        40     1      107.746384      398.727264    ;  uncertainty theta = 0.001931, k = 0.092858
         5        22        41     1      107.746384      398.727264    ;  uncertainty theta = 0.001931, k = 0.092858
         5        22        42     1      107.746384      398.727264    ;  uncertainty theta = 0.001931, k = 0.092858
         6         1        16     1      111.160965      430.757726    ;  uncertainty theta = 0.003078, k = 0.119235
         6         5        22     1      112.441856      558.830480    ;  uncertainty theta = 0.004678, k = 0.128186
         6         5        27     1      109.599533      400.829160    ;  uncertainty theta = 0.003531, k = 0.077184
         7         8         9     1      119.617142      516.517979    ;  uncertainty theta = 0.003167, k = 0.042235
         7         8        30     1      120.504929      275.077953    ;  uncertainty theta = 0.002604, k = 0.103348
         7        12        11     1      120.229416      534.526079    ;  uncertainty theta = 0.001583, k = 0.068179
         7        12        33     1      119.578735      280.911651    ;  uncertainty theta = 0.002939, k = 0.084679
         7        13        14     1      123.258194      405.532010    ;  uncertainty theta = 0.003759, k = 0.123955
         7        13        18     1      121.507004      361.355269    ;  uncertainty theta = 0.004888, k = 0.263566
         8         7        12     1      120.416824      407.494377    ;  uncertainty theta = 0.002066, k = 0.227475
         8         7        13     1      121.423744      427.585475    ;  uncertainty theta = 0.006053, k = 0.069812
         8         9        10     1      121.334496      363.537160    ;  uncertainty theta = 0.001992, k = 0.113485
         8         9        19     1      119.998886      438.031589    ;  uncertainty theta = 0.001093, k = 0.057794
         9         8        30     1      120.863075      291.711869    ;  uncertainty theta = 0.001585, k = 0.032911
         9        10        11     1      117.430496      514.054670    ;  uncertainty theta = 0.001033, k = 0.048095
         9        10        31     1      121.035461      285.494859    ;  uncertainty theta = 0.001567, k = 0.028924
        10         9        19     1      120.461792      447.827943    ;  uncertainty theta = 0.001141, k = 0.053761
        10        11        12     1      120.532249      507.844683    ;  uncertainty theta = 0.001247, k = 0.065734
        10        11        32     1      119.863365      284.707455    ;  uncertainty theta = 0.000778, k = 0.019642
        11        10        31     1      121.325417      283.555061    ;  uncertainty theta = 0.001286, k = 0.023036
        11        12        33     1      120.431686      294.594147    ;  uncertainty theta = 0.001629, k = 0.029854
        12         7        13     1      122.230835      432.686927    ;  uncertainty theta = 0.006306, k = 0.048691
        12        11        32     1      120.163246      283.443974    ;  uncertainty theta = 0.001089, k = 0.011313
        13        14        15     1      124.193810      713.578212    ;  uncertainty theta = 0.003233, k = 0.137749
        13        14        34     1      119.313942      260.468141    ;  uncertainty theta = 0.002648, k = 0.141889
        13        18        17     1      122.385941      540.700792    ;  uncertainty theta = 0.007051, k = 0.164464
        13        18        20     1      125.300880      516.145425    ;  uncertainty theta = 0.003028, k = 0.218501
        14        13        18     1      117.000412      435.767948    ;  uncertainty theta = 0.012843, k = 0.885377
        14        15        16     1      115.749222      419.988312    ;  uncertainty theta = 0.009899, k = 0.319287
        15        14        34     1      116.400497      323.972963    ;  uncertainty theta = 0.003903, k = 0.142622
        15        16        17     1      128.799652      735.812033    ;  uncertainty theta = 0.002961, k = 0.074631
        16        17        18     1      122.483582      478.791082    ;  uncertainty theta = 0.008681, k = 0.107989
        17        18        20     1      125.417236      903.793925    ;  uncertainty theta = 0.004767, k = 0.085928
        18        20        35     1      118.229027      415.844150    ;  uncertainty theta = 0.001176, k = 0.153518
        18        20        36     1      118.229027      415.844150    ;  uncertainty theta = 0.001176, k = 0.153518
        21         3        25     1      110.246017      412.434404    ;  uncertainty theta = 0.002593, k = 0.168633
        22         5        27     1      110.246017      412.434404    ;  uncertainty theta = 0.002593, k = 0.168633
        23         2        24     1      106.342567      325.877137    ;  uncertainty theta = 0.001886, k = 0.093642
        26         4        43     1      105.967491      381.455496    ;  uncertainty theta = 0.002206, k = 0.193783
        28         6        29     1      106.342567      325.877137    ;  uncertainty theta = 0.001886, k = 0.093642
        35        20        36     1      107.953087      275.511637    ;  uncertainty theta = 0.001193, k = 0.067996
        37        21        38     1      105.948242      316.497421    ;  uncertainty theta = 0.000697, k = 0.035016
        37        21        39     1      105.948242      316.497421    ;  uncertainty theta = 0.000697, k = 0.035016
        38        21        39     1      105.948242      316.497421    ;  uncertainty theta = 0.000697, k = 0.035016
        40        22        41     1      105.948242      316.497421    ;  uncertainty theta = 0.000697, k = 0.035016
        40        22        42     1      105.948242      316.497421    ;  uncertainty theta = 0.000697, k = 0.035016
        41        22        42     1      105.948242      316.497421    ;  uncertainty theta = 0.000697, k = 0.035016

[ dihedrals ] ; propers for gromacs 4.5 or higher, use funct 9
;       ai        aj        ak        al funct           phase               k        pn
         1         2         3         4     9        0.000000        6.818754         1    ;  uncertainty k = 0.590441
         1         2         3         4     9      180.000000       -4.096436         2    ;  uncertainty k = 0.835785
         1         2         3         4     9        0.000000        1.742342         3    ;  uncertainty k = 0.401644
         1         2         3         4     9      180.000000       -0.262157         4    ;  uncertainty k = 0.255375
         1         2         3        21     9        0.000000       -2.412141         1    ;  uncertainty k = 0.610259
         1         2         3        21     9      180.000000        1.365198         2    ;  uncertainty k = 0.786605
         1         2         3        21     9        0.000000        1.518501         3    ;  uncertainty k = 0.408237
         1         2         3        21     9      180.000000       -0.209018         4    ;  uncertainty k = 0.158746
         1         2         3        25     9        0.000000        1.674598         1    ;  uncertainty k = 1.131297
         1         2         3        25     9      180.000000       -1.719808         2    ;  uncertainty k = 0.611710
         1         2         3        25     9        0.000000        0.637684         3    ;  uncertainty k = 0.165821
         1         2         3        25     9      180.000000        0.038240         4    ;  uncertainty k = 0.177330
         1         6         5         4     9        0.000000        6.818754         1    ;  uncertainty k = 0.590441
         1         6         5         4     9      180.000000       -4.096436         2    ;  uncertainty k = 0.835785
         1         6         5         4     9        0.000000        1.742342         3    ;  uncertainty k = 0.401644
         1         6         5         4     9      180.000000       -0.262157         4    ;  uncertainty k = 0.255375
         1         6         5        22     9        0.000000       -2.412141         1    ;  uncertainty k = 0.610259
         1         6         5        22     9      180.000000        1.365198         2    ;  uncertainty k = 0.786605
         1         6         5        22     9        0.000000        1.518501         3    ;  uncertainty k = 0.408237
         1         6         5        22     9      180.000000       -0.209018         4    ;  uncertainty k = 0.158746
         1         6         5        27     9        0.000000        1.674598         1    ;  uncertainty k = 1.131297
         1         6         5        27     9      180.000000       -1.719808         2    ;  uncertainty k = 0.611710
         1         6         5        27     9        0.000000        0.637684         3    ;  uncertainty k = 0.165821
         1         6         5        27     9      180.000000        0.038240         4    ;  uncertainty k = 0.177330
         1        16        15        14     9        0.000000        0.546669         1    ;  uncertainty k = 1.339110
         1        16        15        14     9      180.000000       11.666293         2    ;  uncertainty k = 0.252159
         1        16        15        14     9        0.000000        1.910470         3    ;  uncertainty k = 0.458375
         1        16        15        14     9      180.000000        1.045941         4    ;  uncertainty k = 0.346248
         1        16        17        18     9        0.000000        0.331365         1    ;  uncertainty k = 0.931188
         1        16        17        18     9      180.000000       11.325489         2    ;  uncertainty k = 0.571865
         1        16        17        18     9        0.000000        1.791399         3    ;  uncertainty k = 0.404289
         1        16        17        18     9      180.000000        0.915301         4    ;  uncertainty k = 0.400754
         2         1         6         5     9        0.000000       -3.245175         1    ;  uncertainty k = 3.888644
         2         1         6         5     9      180.000000       -0.667114         2    ;  uncertainty k = 0.392806
         2         1         6         5     9        0.000000        0.688246         3    ;  uncertainty k = 0.437496
         2         1         6         5     9      180.000000       -0.413245         4    ;  uncertainty k = 0.252968
         2         1         6        28     9        0.000000       -4.758292         1    ;  uncertainty k = 1.911032
         2         1         6        28     9      180.000000        0.579576         2    ;  uncertainty k = 0.611848
         2         1         6        28     9        0.000000        0.777261         3    ;  uncertainty k = 0.142514
         2         1         6        28     9      180.000000       -0.019571         4    ;  uncertainty k = 0.065458
         2         1         6        29     9        0.000000       -4.758292         1    ;  uncertainty k = 1.911032
         2         1         6        29     9      180.000000        0.579576         2    ;  uncertainty k = 0.611848
         2         1         6        29     9        0.000000        0.777261         3    ;  uncertainty k = 0.142514
         2         1         6        29     9      180.000000       -0.019571         4    ;  uncertainty k = 0.065458
         2         1        16        15     9        0.000000        6.092744         1    ;  uncertainty k = 0.639216
         2         1        16        15     9      180.000000        9.849098         2    ;  uncertainty k = 0.125325
         2         1        16        15     9        0.000000        0.393088         3    ;  uncertainty k = 0.568178
         2         1        16        15     9      180.000000       -0.170650         4    ;  uncertainty k = 0.159943
         2         1        16        17     9        0.000000        7.897552         1    ;  uncertainty k = 0.540106
         2         1        16        17     9      180.000000       10.040739         2    ;  uncertainty k = 0.060298
         2         1        16        17     9        0.000000        0.399412         3    ;  uncertainty k = 0.517405
         2         1        16        17     9      180.000000       -0.255495         4    ;  uncertainty k = 0.102086
         2         3         4         5     9        0.000000        3.582698         1    ;  uncertainty k = 1.517954
         2         3         4         5     9      180.000000       -1.850360         2    ;  uncertainty k = 1.106156
         2         3         4         5     9        0.000000        0.116075         3    ;  uncertainty k = 0.543376
         2         3         4         5     9      180.000000       -0.316679         4    ;  uncertainty k = 0.355921
         2         3         4        26     9        0.000000        0.387723         1    ;  uncertainty k = 0.479471
         2         3         4        26     9      180.000000       -0.437739         2    ;  uncertainty k = 0.598371
         2         3         4        26     9        0.000000        0.365970         3    ;  uncertainty k = 0.269109
         2         3         4        26     9      180.000000       -0.141939         4    ;  uncertainty k = 0.137865
         2         3         4        43     9        0.000000        0.387723         1    ;  uncertainty k = 0.479471
         2         3         4        43     9      180.000000       -0.437740         2    ;  uncertainty k = 0.598370
         2         3         4        43     9        0.000000        0.365970         3    ;  uncertainty k = 0.269109
         2         3         4        43     9      180.000000       -0.141939         4    ;  uncertainty k = 0.137865
         2         3        21        37     9        0.000000       -1.042537         1    ;  uncertainty k = 0.787801
         2         3        21        37     9      180.000000       -0.812632         2    ;  uncertainty k = 0.240321
         2         3        21        37     9        0.000000        0.744986         3    ;  uncertainty k = 0.157361
         2         3        21        37     9      180.000000       -0.253910         4    ;  uncertainty k = 0.099364
         2         3        21        38     9        0.000000       -1.042537         1    ;  uncertainty k = 0.787801
         2         3        21        38     9      180.000000       -0.812632         2    ;  uncertainty k = 0.240321
         2         3        21        38     9        0.000000        0.744986         3    ;  uncertainty k = 0.157361
         2         3        21        38     9      180.000000       -0.253910         4    ;  uncertainty k = 0.099364
         2         3        21        39     9        0.000000       -1.042537         1    ;  uncertainty k = 0.787801
         2         3        21        39     9      180.000000       -0.812632         2    ;  uncertainty k = 0.240321
         2         3        21        39     9        0.000000        0.744986         3    ;  uncertainty k = 0.157361
         2         3        21        39     9      180.000000       -0.253910         4    ;  uncertainty k = 0.099364
         3         2         1         6     9        0.000000       -3.245175         1    ;  uncertainty k = 3.888644
         3         2         1         6     9      180.000000       -0.667114         2    ;  uncertainty k = 0.392806
         3         2         1         6     9        0.000000        0.688246         3    ;  uncertainty k = 0.437496
         3         2         1         6     9      180.000000       -0.413245         4    ;  uncertainty k = 0.252968
         3         2         1        16     9        0.000000       -0.854705         1    ;  uncertainty k = 1.700803
         3         2         1        16     9      180.000000       -0.119246         2    ;  uncertainty k = 0.500806
         3         2         1        16     9        0.000000       -0.389409         3    ;  uncertainty k = 0.257722
         3         2         1        16     9      180.000000        0.191923         4    ;  uncertainty k = 0.122719
         3         4         5         6     9        0.000000        3.582698         1    ;  uncertainty k = 1.517954
         3         4         5         6     9      180.000000       -1.850360         2    ;  uncertainty k = 1.106156
         3         4         5         6     9        0.000000        0.116075         3    ;  uncertainty k = 0.543376
         3         4         5         6     9      180.000000       -0.316679         4    ;  uncertainty k = 0.355921
         3         4         5        22     9        0.000000       -2.218562         1    ;  uncertainty k = 1.065343
         3         4         5        22     9      180.000000        0.486142         2    ;  uncertainty k = 0.424972
         3         4         5        22     9        0.000000        0.735400         3    ;  uncertainty k = 0.289355
         3         4         5        22     9      180.000000       -0.138162         4    ;  uncertainty k = 0.164365
         3         4         5        27     9        0.000000       -0.096097         1    ;  uncertainty k = 0.574750
         3         4         5        27     9      180.000000       -0.612815         2    ;  uncertainty k = 0.435078
         3         4         5        27     9        0.000000        0.331438         3    ;  uncertainty k = 0.342985
         3         4         5        27     9      180.000000       -0.006389         4    ;  uncertainty k = 0.193963
         4         3         2        23     9        0.000000        1.898915         1    ;  uncertainty k = 1.095634
         4         3         2        23     9      180.000000       -3.128399         2    ;  uncertainty k = 0.999543
         4         3         2        23     9        0.000000       -0.081039         3    ;  uncertainty k = 0.341740
         4         3         2        23     9      180.000000        0.127786         4    ;  uncertainty k = 0.152689
         4         3         2        24     9        0.000000        1.898915         1    ;  uncertainty k = 1.095634
         4         3         2        24     9      180.000000       -3.128399         2    ;  uncertainty k = 0.999543
         4         3         2        24     9        0.000000       -0.081039         3    ;  uncertainty k = 0.341740
         4         3         2        24     9      180.000000        0.127786         4    ;  uncertainty k = 0.152689
         4         3        21        37     9        0.000000       -0.897307         1    ;  uncertainty k = 0.952665
         4         3        21        37     9      180.000000       -2.906535         2    ;  uncertainty k = 0.772198
         4         3        21        37     9        0.000000        1.040439         3    ;  uncertainty k = 0.157647
         4         3        21        37     9      180.000000       -0.209397         4    ;  uncertainty k = 0.110351
         4         3        21        38     9        0.000000       -0.897307         1    ;  uncertainty k = 0.952665
         4         3        21        38     9      180.000000       -2.906535         2    ;  uncertainty k = 0.772198
         4         3        21        38     9        0.000000        1.040439         3    ;  uncertainty k = 0.157647
         4         3        21        38     9      180.000000       -0.209397         4    ;  uncertainty k = 0.110351
         4         3        21        39     9        0.000000       -0.897307         1    ;  uncertainty k = 0.952665
         4         3        21        39     9      180.000000       -2.906535         2    ;  uncertainty k = 0.772198
         4         3        21        39     9        0.000000        1.040439         3    ;  uncertainty k = 0.157647
         4         3        21        39     9      180.000000       -0.209397         4    ;  uncertainty k = 0.110351
         4         5         6        28     9        0.000000        1.898915         1    ;  uncertainty k = 1.095634
         4         5         6        28     9      180.000000       -3.128399         2    ;  uncertainty k = 0.999543
         4         5         6        28     9        0.000000       -0.081039         3    ;  uncertainty k = 0.341740
         4         5         6        28     9      180.000000        0.127786         4    ;  uncertainty k = 0.152689
         4         5         6        29     9        0.000000        1.898915         1    ;  uncertainty k = 1.095634
         4         5         6        29     9      180.000000       -3.128399         2    ;  uncertainty k = 0.999543
         4         5         6        29     9        0.000000       -0.081039         3    ;  uncertainty k = 0.341740
         4         5         6        29     9      180.000000        0.127786         4    ;  uncertainty k = 0.152689
         4         5        22        40     9        0.000000       -0.897307         1    ;  uncertainty k = 0.952665
         4         5        22        40     9      180.000000       -2.906535         2    ;  uncertainty k = 0.772198
         4         5        22        40     9        0.000000        1.040439         3    ;  uncertainty k = 0.157647
         4         5        22        40     9      180.000000       -0.209397         4    ;  uncertainty k = 0.110351
         4         5        22        41     9        0.000000       -0.897307         1    ;  uncertainty k = 0.952665
         4         5        22        41     9      180.000000       -2.906535         2    ;  uncertainty k = 0.772198
         4         5        22        41     9        0.000000        1.040439         3    ;  uncertainty k = 0.157647
         4         5        22        41     9      180.000000       -0.209397         4    ;  uncertainty k = 0.110351
         4         5        22        42     9        0.000000       -0.897307         1    ;  uncertainty k = 0.952665
         4         5        22        42     9      180.000000       -2.906535         2    ;  uncertainty k = 0.772198
         4         5        22        42     9        0.000000        1.040439         3    ;  uncertainty k = 0.157647
         4         5        22        42     9      180.000000       -0.209397         4    ;  uncertainty k = 0.110351
         5         4         3        21     9        0.000000       -2.218562         1    ;  uncertainty k = 1.065343
         5         4         3        21     9      180.000000        0.486142         2    ;  uncertainty k = 0.424972
         5         4         3        21     9        0.000000        0.735400         3    ;  uncertainty k = 0.289355
         5         4         3        21     9      180.000000       -0.138162         4    ;  uncertainty k = 0.164365
         5         4         3        25     9        0.000000       -0.096097         1    ;  uncertainty k = 0.574750
         5         4         3        25     9      180.000000       -0.612815         2    ;  uncertainty k = 0.435078
         5         4         3        25     9        0.000000        0.331438         3    ;  uncertainty k = 0.342985
         5         4         3        25     9      180.000000       -0.006389         4    ;  uncertainty k = 0.193963
         5         6         1        16     9        0.000000       -0.854705         1    ;  uncertainty k = 1.700803
         5         6         1        16     9      180.000000       -0.119246         2    ;  uncertainty k = 0.500806
         5         6         1        16     9        0.000000       -0.389409         3    ;  uncertainty k = 0.257722
         5         6         1        16     9      180.000000        0.191923         4    ;  uncertainty k = 0.122719
         6         1         2        23     9        0.000000       -4.758292         1    ;  uncertainty k = 1.911032
         6         1         2        23     9      180.000000        0.579576         2    ;  uncertainty k = 0.611848
         6         1         2        23     9        0.000000        0.777261         3    ;  uncertainty k = 0.142514
         6         1         2        23     9      180.000000       -0.019571         4    ;  uncertainty k = 0.065458
         6         1         2        24     9        0.000000       -4.758292         1    ;  uncertainty k = 1.911032
         6         1         2        24     9      180.000000        0.579576         2    ;  uncertainty k = 0.611848
         6         1         2        24     9        0.000000        0.777261         3    ;  uncertainty k = 0.142514
         6         1         2        24     9      180.000000       -0.019571         4    ;  uncertainty k = 0.065458
         6         1        16        15     9        0.000000        6.092744         1    ;  uncertainty k = 0.639216
         6         1        16        15     9      180.000000        9.849098         2    ;  uncertainty k = 0.125325
         6         1        16        15     9        0.000000        0.393088         3    ;  uncertainty k = 0.568178
         6         1        16        15     9      180.000000       -0.170650         4    ;  uncertainty k = 0.159943
         6         1        16        17     9        0.000000        7.897552         1    ;  uncertainty k = 0.540106
         6         1        16        17     9      180.000000       10.040739         2    ;  uncertainty k = 0.060298
         6         1        16        17     9        0.000000        0.399412         3    ;  uncertainty k = 0.517405
         6         1        16        17     9      180.000000       -0.255495         4    ;  uncertainty k = 0.102086
         6         5         4        26     9        0.000000        0.387723         1    ;  uncertainty k = 0.479471
         6         5         4        26     9      180.000000       -0.437739         2    ;  uncertainty k = 0.598371
         6         5         4        26     9        0.000000        0.365970         3    ;  uncertainty k = 0.269109
         6         5         4        26     9      180.000000       -0.141939         4    ;  uncertainty k = 0.137865
         6         5         4        43     9        0.000000        0.387723         1    ;  uncertainty k = 0.479471
         6         5         4        43     9      180.000000       -0.437740         2    ;  uncertainty k = 0.598370
         6         5         4        43     9        0.000000        0.365970         3    ;  uncertainty k = 0.269109
         6         5         4        43     9      180.000000       -0.141939         4    ;  uncertainty k = 0.137865
         6         5        22        40     9        0.000000       -1.042537         1    ;  uncertainty k = 0.787801
         6         5        22        40     9      180.000000       -0.812632         2    ;  uncertainty k = 0.240321
         6         5        22        40     9        0.000000        0.744986         3    ;  uncertainty k = 0.157361
         6         5        22        40     9      180.000000       -0.253910         4    ;  uncertainty k = 0.099364
         6         5        22        41     9        0.000000       -1.042537         1    ;  uncertainty k = 0.787801
         6         5        22        41     9      180.000000       -0.812632         2    ;  uncertainty k = 0.240321
         6         5        22        41     9        0.000000        0.744986         3    ;  uncertainty k = 0.157361
         6         5        22        41     9      180.000000       -0.253910         4    ;  uncertainty k = 0.099364
         6         5        22        42     9        0.000000       -1.042537         1    ;  uncertainty k = 0.787801
         6         5        22        42     9      180.000000       -0.812632         2    ;  uncertainty k = 0.240321
         6         5        22        42     9        0.000000        0.744986         3    ;  uncertainty k = 0.157361
         6         5        22        42     9      180.000000       -0.253910         4    ;  uncertainty k = 0.099364
         7         8         9        10     9        0.000000       -0.039949         1    ;  uncertainty k = 0.223761
         7         8         9        10     9      180.000000        9.721644         2    ;  uncertainty k = 0.467084
         7         8         9        10     9        0.000000       -0.013980         3    ;  uncertainty k = 0.348853
         7         8         9        10     9      180.000000        1.199540         4    ;  uncertainty k = 0.320308
         7         8         9        19     9        0.000000       -0.005356         1    ;  uncertainty k = 0.116547
         7         8         9        19     9      180.000000        9.175367         2    ;  uncertainty k = 0.566799
         7         8         9        19     9        0.000000        1.384856         3    ;  uncertainty k = 0.392069
         7         8         9        19     9      180.000000        1.736183         4    ;  uncertainty k = 0.072588
         7        12        11        10     9        0.000000       -0.015330         1    ;  uncertainty k = 0.199040
         7        12        11        10     9      180.000000       14.151073         2    ;  uncertainty k = 0.253652
         7        12        11        10     9        0.000000       -0.869590         3    ;  uncertainty k = 0.578696
         7        12        11        10     9      180.000000        0.732922         4    ;  uncertainty k = 0.274066
         7        12        11        32     9        0.000000        0.066956         1    ;  uncertainty k = 0.181211
         7        12        11        32     9      180.000000        7.477323         2    ;  uncertainty k = 0.340574
         7        12        11        32     9        0.000000        1.385257         3    ;  uncertainty k = 0.215524
         7        12        11        32     9      180.000000        1.842937         4    ;  uncertainty k = 0.112847
         7        13        14        15     9        0.000000        0.258103         1    ;  uncertainty k = 0.327035
         7        13        14        15     9      180.000000       12.770531         2    ;  uncertainty k = 0.384527
         7        13        14        15     9        0.000000        0.946338         3    ;  uncertainty k = 0.238850
         7        13        14        15     9      180.000000        1.418066         4    ;  uncertainty k = 0.220951
         7        13        14        34     9        0.000000       -0.505073         1    ;  uncertainty k = 0.774358
         7        13        14        34     9      180.000000        6.588456         2    ;  uncertainty k = 0.479629
         7        13        14        34     9        0.000000        0.954010         3    ;  uncertainty k = 0.209405
         7        13        14        34     9      180.000000        1.178399         4    ;  uncertainty k = 0.173023
         7        13        18        17     9        0.000000        0.643329         1    ;  uncertainty k = 0.503005
         7        13        18        17     9      180.000000        6.474658         2    ;  uncertainty k = 0.991976
         7        13        18        17     9        0.000000        0.841331         3    ;  uncertainty k = 0.140013
         7        13        18        17     9      180.000000        1.359446         4    ;  uncertainty k = 0.342592
         7        13        18        20     9        0.000000        0.116624         1    ;  uncertainty k = 1.103176
         7        13        18        20     9      180.000000        6.806953         2    ;  uncertainty k = 0.844997
         7        13        18        20     9        0.000000        0.671144         3    ;  uncertainty k = 0.312241
         7        13        18        20     9      180.000000        0.900099         4    ;  uncertainty k = 0.235443
         8         7        12        11     9        0.000000       -0.205659         1    ;  uncertainty k = 0.121162
         8         7        12        11     9      180.000000       11.356269         2    ;  uncertainty k = 0.378435
         8         7        12        11     9        0.000000       -0.437250         3    ;  uncertainty k = 0.341318
         8         7        12        11     9      180.000000        0.897867         4    ;  uncertainty k = 0.264641
         8         7        12        33     9        0.000000        0.119641         1    ;  uncertainty k = 0.296856
         8         7        12        33     9      180.000000        6.927714         2    ;  uncertainty k = 0.646243
         8         7        12        33     9        0.000000        1.453353         3    ;  uncertainty k = 0.235644
         8         7        12        33     9      180.000000        1.647447         4    ;  uncertainty k = 0.260104
         8         7        13        14     9        0.000000       -0.917994         1    ;  uncertainty k = 0.879784
         8         7        13        14     9      180.000000        4.239304         2    ;  uncertainty k = 0.327989
         8         7        13        14     9        0.000000        0.325528         3    ;  uncertainty k = 0.136855
         8         7        13        14     9      180.000000        0.169563         4    ;  uncertainty k = 0.040365
         8         7        13        18     9        0.000000        0.628496         1    ;  uncertainty k = 1.103752
         8         7        13        18     9      180.000000        4.509645         2    ;  uncertainty k = 0.510500
         8         7        13        18     9        0.000000        0.710041         3    ;  uncertainty k = 0.221660
         8         7        13        18     9      180.000000        0.445971         4    ;  uncertainty k = 0.061501
         8         9        10        11     9        0.000000       -0.035525         1    ;  uncertainty k = 0.134245
         8         9        10        11     9      180.000000       10.417947         2    ;  uncertainty k = 0.359364
         8         9        10        11     9        0.000000       -0.353496         3    ;  uncertainty k = 0.553000
         8         9        10        11     9      180.000000        0.996865         4    ;  uncertainty k = 0.333549
         8         9        10        31     9        0.000000        0.025389         1    ;  uncertainty k = 0.104174
         8         9        10        31     9      180.000000        6.224993         2    ;  uncertainty k = 0.616420
         8         9        10        31     9        0.000000        1.403798         3    ;  uncertainty k = 0.368011
         8         9        10        31     9      180.000000        1.514913         4    ;  uncertainty k = 0.176464
         9         8         7        12     9        0.000000       -0.037652         1    ;  uncertainty k = 0.161516
         9         8         7        12     9      180.000000       11.479427         2    ;  uncertainty k = 0.356766
         9         8         7        12     9        0.000000       -0.437631         3    ;  uncertainty k = 0.401919
         9         8         7        12     9      180.000000        0.938988         4    ;  uncertainty k = 0.321520
         9         8         7        13     9        0.000000        0.002382         1    ;  uncertainty k = 0.230277
         9         8         7        13     9      180.000000        9.128026         2    ;  uncertainty k = 0.252356
         9         8         7        13     9        0.000000        1.167883         3    ;  uncertainty k = 0.251538
         9         8         7        13     9      180.000000        1.728101         4    ;  uncertainty k = 0.195191
         9        10        11        12     9        0.000000        0.043988         1    ;  uncertainty k = 0.186712
         9        10        11        12     9      180.000000       14.761970         2    ;  uncertainty k = 0.196690
         9        10        11        12     9        0.000000       -1.079599         3    ;  uncertainty k = 0.596248
         9        10        11        12     9      180.000000        0.670727         4    ;  uncertainty k = 0.265453
         9        10        11        32     9        0.000000        0.013468         1    ;  uncertainty k = 0.140072
         9        10        11        32     9      180.000000        7.595964         2    ;  uncertainty k = 0.326738
         9        10        11        32     9        0.000000        1.451186         3    ;  uncertainty k = 0.275082
         9        10        11        32     9      180.000000        1.856285         4    ;  uncertainty k = 0.184737
        10         9         8        30     9        0.000000       -0.051251         1    ;  uncertainty k = 0.263072
        10         9         8        30     9      180.000000        6.361893         2    ;  uncertainty k = 0.567608
        10         9         8        30     9        0.000000        1.400486         3    ;  uncertainty k = 0.318507
        10         9         8        30     9      180.000000        1.601193         4    ;  uncertainty k = 0.154115
        10        11        12        33     9        0.000000        0.052610         1    ;  uncertainty k = 0.037070
        10        11        12        33     9      180.000000        7.945993         2    ;  uncertainty k = 0.289498
        10        11        12        33     9        0.000000        1.448013         3    ;  uncertainty k = 0.280995
        10        11        12        33     9      180.000000        1.861154         4    ;  uncertainty k = 0.160661
        11        10         9        19     9        0.000000        0.039414         1    ;  uncertainty k = 0.185709
        11        10         9        19     9      180.000000        9.400892         2    ;  uncertainty k = 0.673917
        11        10         9        19     9        0.000000        1.522714         3    ;  uncertainty k = 0.432766
        11        10         9        19     9      180.000000        1.637619         4    ;  uncertainty k = 0.162549
        11        12         7        13     9        0.000000        0.022026         1    ;  uncertainty k = 0.093318
        11        12         7        13     9      180.000000        8.848140         2    ;  uncertainty k = 0.558549
        11        12         7        13     9        0.000000        1.170555         3    ;  uncertainty k = 0.346895
        11        12         7        13     9      180.000000        1.783414         4    ;  uncertainty k = 0.261409
        12         7         8        30     9        0.000000        0.194119         1    ;  uncertainty k = 0.222210
        12         7         8        30     9      180.000000        7.017426         2    ;  uncertainty k = 0.616228
        12         7         8        30     9        0.000000        1.439120         3    ;  uncertainty k = 0.219255
        12         7         8        30     9      180.000000        1.648306         4    ;  uncertainty k = 0.258465
        12         7        13        14     9        0.000000       -0.949763         1    ;  uncertainty k = 0.669779
        12         7        13        14     9      180.000000        4.231064         2    ;  uncertainty k = 0.287767
        12         7        13        14     9        0.000000        0.344320         3    ;  uncertainty k = 0.149454
        12         7        13        14     9      180.000000        0.157034         4    ;  uncertainty k = 0.051404
        12         7        13        18     9        0.000000        0.652764         1    ;  uncertainty k = 1.042112
        12         7        13        18     9      180.000000        4.469855         2    ;  uncertainty k = 0.513177
        12         7        13        18     9        0.000000        0.733406         3    ;  uncertainty k = 0.199377
        12         7        13        18     9      180.000000        0.444674         4    ;  uncertainty k = 0.096948
        12        11        10        31     9        0.000000        0.066008         1    ;  uncertainty k = 0.047549
        12        11        10        31     9      180.000000        7.663156         2    ;  uncertainty k = 0.306102
        12        11        10        31     9        0.000000        1.496062         3    ;  uncertainty k = 0.269984
        12        11        10        31     9      180.000000        1.790380         4    ;  uncertainty k = 0.183306
        13         7         8        30     9        0.000000       -0.224622         1    ;  uncertainty k = 0.371107
        13         7         8        30     9      180.000000        6.986582         2    ;  uncertainty k = 0.302353
        13         7         8        30     9        0.000000        0.836481         3    ;  uncertainty k = 0.258982
        13         7         8        30     9      180.000000        1.212037         4    ;  uncertainty k = 0.274517
        13         7        12        33     9        0.000000       -0.201021         1    ;  uncertainty k = 0.412103
        13         7        12        33     9      180.000000        7.013879         2    ;  uncertainty k = 0.372927
        13         7        12        33     9        0.000000        0.848007         3    ;  uncertainty k = 0.238046
        13         7        12        33     9      180.000000        1.210281         4    ;  uncertainty k = 0.319325
        13        14        15        16     9        0.000000       -0.668668         1    ;  uncertainty k = 0.655726
        13        14        15        16     9      180.000000       16.028971         2    ;  uncertainty k = 0.596965
        13        14        15        16     9        0.000000       -0.156567         3    ;  uncertainty k = 0.723848
        13        14        15        16     9      180.000000        1.457591         4    ;  uncertainty k = 0.581677
        13        18        17        16     9        0.000000        0.639234         1    ;  uncertainty k = 1.248616
        13        18        17        16     9      180.000000       10.747942         2    ;  uncertainty k = 0.536552
        13        18        17        16     9        0.000000        0.804297         3    ;  uncertainty k = 0.697419
        13        18        17        16     9      180.000000        1.125892         4    ;  uncertainty k = 0.323483
        13        18        20        35     9        0.000000       14.593051         1    ;  uncertainty k = 0.209633
        13        18        20        35     9      180.000000        7.536090         2    ;  uncertainty k = 0.480435
        13        18        20        35     9        0.000000        0.843112         3    ;  uncertainty k = 0.171690
        13        18        20        35     9      180.000000       -0.158198         4    ;  uncertainty k = 0.083436
        13        18        20        36     9        0.000000       14.593051         1    ;  uncertainty k = 0.209633
        13        18        20        36     9      180.000000        7.536090         2    ;  uncertainty k = 0.480435
        13        18        20        36     9        0.000000        0.843112         3    ;  uncertainty k = 0.171690
        13        18        20        36     9      180.000000       -0.158198         4    ;  uncertainty k = 0.083436
        14        13        18        17     9        0.000000       -0.169565         1    ;  uncertainty k = 0.650175
        14        13        18        17     9      180.000000        6.306598         2    ;  uncertainty k = 1.069649
        14        13        18        17     9        0.000000       -0.735520         3    ;  uncertainty k = 0.431633
        14        13        18        17     9      180.000000        0.915234         4    ;  uncertainty k = 0.386854
        14        13        18        20     9        0.000000       -0.926107         1    ;  uncertainty k = 0.854329
        14        13        18        20     9      180.000000        5.536533         2    ;  uncertainty k = 0.443771
        14        13        18        20     9        0.000000        0.510102         3    ;  uncertainty k = 0.403986
        14        13        18        20     9      180.000000        0.765606         4    ;  uncertainty k = 0.216314
        14        15        16        17     9        0.000000       -0.202219         1    ;  uncertainty k = 1.187765
        14        15        16        17     9      180.000000       10.079630         2    ;  uncertainty k = 0.641706
        14        15        16        17     9        0.000000        0.673733         3    ;  uncertainty k = 0.571566
        14        15        16        17     9      180.000000        0.798853         4    ;  uncertainty k = 0.122901
        15        14        13        18     9        0.000000        0.111816         1    ;  uncertainty k = 0.664781
        15        14        13        18     9      180.000000       15.664864         2    ;  uncertainty k = 0.637955
        15        14        13        18     9        0.000000       -0.784994         3    ;  uncertainty k = 0.536319
        15        14        13        18     9      180.000000        0.844123         4    ;  uncertainty k = 0.245709
        15        16        17        18     9        0.000000       -0.796836         1    ;  uncertainty k = 1.334341
        15        16        17        18     9      180.000000        9.590097         2    ;  uncertainty k = 0.490712
        15        16        17        18     9        0.000000        0.978638         3    ;  uncertainty k = 0.429922
        15        16        17        18     9      180.000000        0.681346         4    ;  uncertainty k = 0.139222
        16         1         2        23     9        0.000000       -0.627363         1    ;  uncertainty k = 0.747919
        16         1         2        23     9      180.000000       -0.002450         2    ;  uncertainty k = 0.628919
        16         1         2        23     9        0.000000       -0.171531         3    ;  uncertainty k = 0.229940
        16         1         2        23     9      180.000000        0.276933         4    ;  uncertainty k = 0.052835
        16         1         2        24     9        0.000000       -0.627363         1    ;  uncertainty k = 0.747919
        16         1         2        24     9      180.000000       -0.002450         2    ;  uncertainty k = 0.628919
        16         1         2        24     9        0.000000       -0.171531         3    ;  uncertainty k = 0.229940
        16         1         2        24     9      180.000000        0.276933         4    ;  uncertainty k = 0.052835
        16         1         6        28     9        0.000000       -0.627363         1    ;  uncertainty k = 0.747919
        16         1         6        28     9      180.000000       -0.002450         2    ;  uncertainty k = 0.628919
        16         1         6        28     9        0.000000       -0.171531         3    ;  uncertainty k = 0.229940
        16         1         6        28     9      180.000000        0.276933         4    ;  uncertainty k = 0.052835
        16         1         6        29     9        0.000000       -0.627363         1    ;  uncertainty k = 0.747919
        16         1         6        29     9      180.000000       -0.002450         2    ;  uncertainty k = 0.628919
        16         1         6        29     9        0.000000       -0.171531         3    ;  uncertainty k = 0.229940
        16         1         6        29     9      180.000000        0.276933         4    ;  uncertainty k = 0.052835
        16        15        14        34     9        0.000000       -0.446409         1    ;  uncertainty k = 0.894672
        16        15        14        34     9      180.000000       15.880517         2    ;  uncertainty k = 0.594354
        16        15        14        34     9        0.000000        1.696490         3    ;  uncertainty k = 0.683160
        16        15        14        34     9      180.000000        1.183191         4    ;  uncertainty k = 0.619075
        16        17        18        20     9        0.000000        0.470331         1    ;  uncertainty k = 1.577409
        16        17        18        20     9      180.000000       15.263163         2    ;  uncertainty k = 0.273742
        16        17        18        20     9        0.000000        2.573540         3    ;  uncertainty k = 0.412705
        16        17        18        20     9      180.000000        1.862811         4    ;  uncertainty k = 0.301908
        17        18        20        35     9        0.000000       20.710033         1    ;  uncertainty k = 0.236801
        17        18        20        35     9      180.000000       12.584969         2    ;  uncertainty k = 0.174158
        17        18        20        35     9        0.000000        0.641399         3    ;  uncertainty k = 0.159612
        17        18        20        35     9      180.000000       -0.494298         4    ;  uncertainty k = 0.217440
        17        18        20        36     9        0.000000       20.710033         1    ;  uncertainty k = 0.236801
        17        18        20        36     9      180.000000       12.584969         2    ;  uncertainty k = 0.174158
        17        18        20        36     9        0.000000        0.641399         3    ;  uncertainty k = 0.159612
        17        18        20        36     9      180.000000       -0.494298         4    ;  uncertainty k = 0.217440
        18        13        14        34     9        0.000000       -0.575367         1    ;  uncertainty k = 0.544639
        18        13        14        34     9      180.000000        6.647734         2    ;  uncertainty k = 0.736150
        18        13        14        34     9        0.000000        0.866114         3    ;  uncertainty k = 0.271565
        18        13        14        34     9      180.000000        1.220865         4    ;  uncertainty k = 0.139725
        19         9         8        30     9        0.000000       -0.207882         1    ;  uncertainty k = 0.296580
        19         9         8        30     9      180.000000        7.548533         2    ;  uncertainty k = 0.353427
        19         9         8        30     9        0.000000        0.583727         3    ;  uncertainty k = 0.304165
        19         9         8        30     9      180.000000        1.014735         4    ;  uncertainty k = 0.163904
        19         9        10        31     9        0.000000       -0.148142         1    ;  uncertainty k = 0.212405
        19         9        10        31     9      180.000000        7.328405         2    ;  uncertainty k = 0.291145
        19         9        10        31     9        0.000000        0.580551         3    ;  uncertainty k = 0.353023
        19         9        10        31     9      180.000000        0.942602         4    ;  uncertainty k = 0.155635
        21         3         2        23     9        0.000000       -1.099607         1    ;  uncertainty k = 0.961439
        21         3         2        23     9      180.000000        0.224343         2    ;  uncertainty k = 0.645548
        21         3         2        23     9        0.000000        0.232075         3    ;  uncertainty k = 0.178400
        21         3         2        23     9      180.000000       -0.215070         4    ;  uncertainty k = 0.094837
        21         3         2        24     9        0.000000       -1.099607         1    ;  uncertainty k = 0.961439
        21         3         2        24     9      180.000000        0.224343         2    ;  uncertainty k = 0.645548
        21         3         2        24     9        0.000000        0.232075         3    ;  uncertainty k = 0.178400
        21         3         2        24     9      180.000000       -0.215070         4    ;  uncertainty k = 0.094837
        21         3         4        26     9        0.000000        0.283183         1    ;  uncertainty k = 0.831612
        21         3         4        26     9      180.000000       -0.000328         2    ;  uncertainty k = 0.452533
        21         3         4        26     9        0.000000        0.536443         3    ;  uncertainty k = 0.053747
        21         3         4        26     9      180.000000       -0.055964         4    ;  uncertainty k = 0.106249
        21         3         4        43     9        0.000000        0.283182         1    ;  uncertainty k = 0.831612
        21         3         4        43     9      180.000000       -0.000328         2    ;  uncertainty k = 0.452531
        21         3         4        43     9        0.000000        0.536443         3    ;  uncertainty k = 0.053747
        21         3         4        43     9      180.000000       -0.055964         4    ;  uncertainty k = 0.106249
        22         5         4        26     9        0.000000        0.283183         1    ;  uncertainty k = 0.831612
        22         5         4        26     9      180.000000       -0.000328         2    ;  uncertainty k = 0.452533
        22         5         4        26     9        0.000000        0.536443         3    ;  uncertainty k = 0.053747
        22         5         4        26     9      180.000000       -0.055964         4    ;  uncertainty k = 0.106249
        22         5         4        43     9        0.000000        0.283182         1    ;  uncertainty k = 0.831612
        22         5         4        43     9      180.000000       -0.000328         2    ;  uncertainty k = 0.452531
        22         5         4        43     9        0.000000        0.536443         3    ;  uncertainty k = 0.053747
        22         5         4        43     9      180.000000       -0.055964         4    ;  uncertainty k = 0.106249
        22         5         6        28     9        0.000000       -1.099607         1    ;  uncertainty k = 0.961439
        22         5         6        28     9      180.000000        0.224343         2    ;  uncertainty k = 0.645548
        22         5         6        28     9        0.000000        0.232075         3    ;  uncertainty k = 0.178400
        22         5         6        28     9      180.000000       -0.215070         4    ;  uncertainty k = 0.094837
        22         5         6        29     9        0.000000       -1.099607         1    ;  uncertainty k = 0.961439
        22         5         6        29     9      180.000000        0.224343         2    ;  uncertainty k = 0.645548
        22         5         6        29     9        0.000000        0.232075         3    ;  uncertainty k = 0.178400
        22         5         6        29     9      180.000000       -0.215070         4    ;  uncertainty k = 0.094837
        23         2         3        25     9        0.000000       -0.089957         1    ;  uncertainty k = 0.391580
        23         2         3        25     9      180.000000        0.488641         2    ;  uncertainty k = 0.388972
        23         2         3        25     9        0.000000       -0.030083         3    ;  uncertainty k = 0.108045
        23         2         3        25     9      180.000000       -0.236342         4    ;  uncertainty k = 0.095087
        24         2         3        25     9        0.000000       -0.089957         1    ;  uncertainty k = 0.391580
        24         2         3        25     9      180.000000        0.488641         2    ;  uncertainty k = 0.388972
        24         2         3        25     9        0.000000       -0.030083         3    ;  uncertainty k = 0.108045
        24         2         3        25     9      180.000000       -0.236342         4    ;  uncertainty k = 0.095087
        25         3         4        26     9        0.000000        1.066204         1    ;  uncertainty k = 0.835752
        25         3         4        26     9      180.000000       -0.767065         2    ;  uncertainty k = 0.346639
        25         3         4        26     9        0.000000        0.067182         3    ;  uncertainty k = 0.187521
        25         3         4        26     9      180.000000        0.020691         4    ;  uncertainty k = 0.123472
        25         3         4        43     9        0.000000        1.066203         1    ;  uncertainty k = 0.835754
        25         3         4        43     9      180.000000       -0.767065         2    ;  uncertainty k = 0.346639
        25         3         4        43     9        0.000000        0.067181         3    ;  uncertainty k = 0.187522
        25         3         4        43     9      180.000000        0.020692         4    ;  uncertainty k = 0.123472
        25         3        21        37     9        0.000000        0.087358         1    ;  uncertainty k = 0.391327
        25         3        21        37     9      180.000000       -0.359821         2    ;  uncertainty k = 0.392956
        25         3        21        37     9        0.000000        0.412504         3    ;  uncertainty k = 0.152817
        25         3        21        37     9      180.000000       -0.099586         4    ;  uncertainty k = 0.152649
        25         3        21        38     9        0.000000        0.087358         1    ;  uncertainty k = 0.391327
        25         3        21        38     9      180.000000       -0.359821         2    ;  uncertainty k = 0.392956
        25         3        21        38     9        0.000000        0.412504         3    ;  uncertainty k = 0.152817
        25         3        21        38     9      180.000000       -0.099586         4    ;  uncertainty k = 0.152649
        25         3        21        39     9        0.000000        0.087358         1    ;  uncertainty k = 0.391327
        25         3        21        39     9      180.000000       -0.359821         2    ;  uncertainty k = 0.392956
        25         3        21        39     9        0.000000        0.412504         3    ;  uncertainty k = 0.152817
        25         3        21        39     9      180.000000       -0.099586         4    ;  uncertainty k = 0.152649
        26         4         5        27     9        0.000000        1.066204         1    ;  uncertainty k = 0.835752
        26         4         5        27     9      180.000000       -0.767065         2    ;  uncertainty k = 0.346639
        26         4         5        27     9        0.000000        0.067182         3    ;  uncertainty k = 0.187521
        26         4         5        27     9      180.000000        0.020691         4    ;  uncertainty k = 0.123472
        27         5         4        43     9        0.000000        1.066203         1    ;  uncertainty k = 0.835754
        27         5         4        43     9      180.000000       -0.767065         2    ;  uncertainty k = 0.346639
        27         5         4        43     9        0.000000        0.067181         3    ;  uncertainty k = 0.187522
        27         5         4        43     9      180.000000        0.020692         4    ;  uncertainty k = 0.123472
        27         5         6        28     9        0.000000       -0.089957         1    ;  uncertainty k = 0.391580
        27         5         6        28     9      180.000000        0.488641         2    ;  uncertainty k = 0.388972
        27         5         6        28     9        0.000000       -0.030083         3    ;  uncertainty k = 0.108045
        27         5         6        28     9      180.000000       -0.236342         4    ;  uncertainty k = 0.095087
        27         5         6        29     9        0.000000       -0.089957         1    ;  uncertainty k = 0.391580
        27         5         6        29     9      180.000000        0.488641         2    ;  uncertainty k = 0.388972
        27         5         6        29     9        0.000000       -0.030083         3    ;  uncertainty k = 0.108045
        27         5         6        29     9      180.000000       -0.236342         4    ;  uncertainty k = 0.095087
        27         5        22        40     9        0.000000        0.087358         1    ;  uncertainty k = 0.391327
        27         5        22        40     9      180.000000       -0.359821         2    ;  uncertainty k = 0.392956
        27         5        22        40     9        0.000000        0.412504         3    ;  uncertainty k = 0.152817
        27         5        22        40     9      180.000000       -0.099586         4    ;  uncertainty k = 0.152649
        27         5        22        41     9        0.000000        0.087358         1    ;  uncertainty k = 0.391327
        27         5        22        41     9      180.000000       -0.359821         2    ;  uncertainty k = 0.392956
        27         5        22        41     9        0.000000        0.412504         3    ;  uncertainty k = 0.152817
        27         5        22        41     9      180.000000       -0.099586         4    ;  uncertainty k = 0.152649
        27         5        22        42     9        0.000000        0.087358         1    ;  uncertainty k = 0.391327
        27         5        22        42     9      180.000000       -0.359821         2    ;  uncertainty k = 0.392956
        27         5        22        42     9        0.000000        0.412504         3    ;  uncertainty k = 0.152817
        27         5        22        42     9      180.000000       -0.099586         4    ;  uncertainty k = 0.152649
        31        10        11        32     9        0.000000       -0.080242         1    ;  uncertainty k = 0.065182
        31        10        11        32     9      180.000000        7.728193         2    ;  uncertainty k = 0.460599
        31        10        11        32     9        0.000000       -0.435760         3    ;  uncertainty k = 0.241595
        31        10        11        32     9      180.000000        0.035511         4    ;  uncertainty k = 0.167623
        32        11        12        33     9        0.000000       -0.059857         1    ;  uncertainty k = 0.119072
        32        11        12        33     9      180.000000        7.809848         2    ;  uncertainty k = 0.332090
        32        11        12        33     9        0.000000       -0.484611         3    ;  uncertainty k = 0.266208
        32        11        12        33     9      180.000000        0.124544         4    ;  uncertainty k = 0.127424

[ dihedrals ] ; impropers
;       ai        aj        ak        al funct           phase               k        pn
         7         8        12        13     4      180.000000       16.787283         2    ;  uncertainty k = 0.052855
         7        12        13         8     4      180.000000       16.787283         2    ;  uncertainty k = 0.052855
         7        13         8        12     4      180.000000       16.787283         2    ;  uncertainty k = 0.052855
         8         7         9        30     4      180.000000        3.209515         2    ;  uncertainty k = 0.171926
         8         9        30         7     4      180.000000        3.209515         2    ;  uncertainty k = 0.171926
         8        30         7         9     4      180.000000        3.209515         2    ;  uncertainty k = 0.171926
         9         8        10        19     4      180.000000       13.574094         2    ;  uncertainty k = 0.033712
         9        10        19         8     4      180.000000       13.574094         2    ;  uncertainty k = 0.033712
         9        19         8        10     4      180.000000       13.574094         2    ;  uncertainty k = 0.033712
        10         9        11        31     4      180.000000        3.525380         2    ;  uncertainty k = 0.172937
        10        11        31         9     4      180.000000        3.525380         2    ;  uncertainty k = 0.172937
        10        31         9        11     4      180.000000        3.525380         2    ;  uncertainty k = 0.172937
        11        10        12        32     4      180.000000        4.530732         2    ;  uncertainty k = 0.084070
        11        12        32        10     4      180.000000        4.530732         2    ;  uncertainty k = 0.084070
        11        32        10        12     4      180.000000        4.530732         2    ;  uncertainty k = 0.084070
        12         7        11        33     4      180.000000        3.439949         2    ;  uncertainty k = 0.114586
        12        11        33         7     4      180.000000        3.439949         2    ;  uncertainty k = 0.114586
        12        33         7        11     4      180.000000        3.439949         2    ;  uncertainty k = 0.114586
        13         7        14        18     4      180.000000        4.888415         2    ;  uncertainty k = 0.481013
        13        14        18         7     4      180.000000        4.888415         2    ;  uncertainty k = 0.481013
        13        18         7        14     4      180.000000        4.888415         2    ;  uncertainty k = 0.481013
        14        13        15        34     4      180.000000       15.720517         2    ;  uncertainty k = 0.086220
        14        15        34        13     4      180.000000       15.720517         2    ;  uncertainty k = 0.086220
        14        34        13        15     4      180.000000       15.720517         2    ;  uncertainty k = 0.086220
        16         1        15        17     4      180.000000       40.439955         2    ;  uncertainty k = 0.126383
        16        15        17         1     4      180.000000       40.439955         2    ;  uncertainty k = 0.126383
        16        17         1        15     4      180.000000       40.439955         2    ;  uncertainty k = 0.126383
        18        13        17        20     4      180.000000       35.549266         2    ;  uncertainty k = 0.074654
        18        17        20        13     4      180.000000       35.549266         2    ;  uncertainty k = 0.074654
        18        20        13        17     4      180.000000       35.549266         2    ;  uncertainty k = 0.074654
        20        18        35        36     4      180.000000        0.648045         2    ;  uncertainty k = 0.960219
        20        35        36        18     4      180.000000        0.648045         2    ;  uncertainty k = 0.960219
        20        36        18        35     4      180.000000        0.648045         2    ;  uncertainty k = 0.960219

[ pairs ]
;       ai        aj funct
         1         4     1
         1        14     1
         1        18     1
         1        21     1
         1        22     1
         1        25     1
         1        27     1
         2         5     1
         2        15     1
         2        17     1
         2        26     1
         2        28     1
         2        29     1
         2        37     1
         2        38     1
         2        39     1
         2        43     1
         3         6     1
         3        16     1
         3        22     1
         3        27     1
         4        23     1
         4        24     1
         4        28     1
         4        29     1
         4        37     1
         4        38     1
         4        39     1
         4        40     1
         4        41     1
         4        42     1
         5        16     1
         5        21     1
         5        25     1
         6        15     1
         6        17     1
         6        23     1
         6        24     1
         6        26     1
         6        40     1
         6        41     1
         6        42     1
         6        43     1
         7        10     1
         7        15     1
         7        17     1
         7        19     1
         7        20     1
         7        32     1
         7        34     1
         8        11     1
         8        14     1
         8        18     1
         8        31     1
         8        33     1
         9        12     1
         9        13     1
         9        32     1
        10        30     1
        10        33     1
        11        13     1
        11        19     1
        12        14     1
        12        18     1
        12        30     1
        12        31     1
        13        16     1
        13        30     1
        13        33     1
        13        35     1
        13        36     1
        14        17     1
        14        20     1
        15        18     1
        16        20     1
        16        23     1
        16        24     1
        16        28     1
        16        29     1
        16        34     1
        17        35     1
        17        36     1
        18        34     1
        19        30     1
        19        31     1
        21        23     1
        21        24     1
        21        26     1
        21        43     1
        22        26     1
        22        28     1
        22        29     1
        22        43     1
        23        25     1
        24        25     1
        25        26     1
        25        37     1
        25        38     1
        25        39     1
        25        43     1
        26        27     1
        27        28     1
        27        29     1
        27        40     1
        27        41     1
        27        42     1
        27        43     1
        31        32     1
        32        33     1
