; ITP file created by ByteFF-joint-25, 2026-02-17 09:33:56.644730

[ atomtypes ]
;name           bonded.type        at.num        mass        charge   ptype           sigma         epsilon
 n0bf                                   7      0.0000       0.00000       A     3.18854e-01     9.01783e-01    ;  uncertainty sigma = 0.000048, epsilon = 0.008949
 c1bf                                   6      0.0000       0.00000       A     3.39785e-01     4.51041e-01    ;  uncertainty sigma = 0.000019, epsilon = 0.000750
 c2bf                                   6      0.0000       0.00000       A     3.39781e-01     4.50408e-01    ;  uncertainty sigma = 0.000012, epsilon = 0.002939
 n3bf                                   7      0.0000       0.00000       A     2.67848e-01     7.11345e+00    ;  uncertainty sigma = 0.000081, epsilon = 0.013767
 c4bf                                   6      0.0000       0.00000       A     3.39781e-01     4.50408e-01    ;  uncertainty sigma = 0.000012, epsilon = 0.002939
 c5bf                                   6      0.0000       0.00000       A     3.39785e-01     4.51041e-01    ;  uncertainty sigma = 0.000019, epsilon = 0.000750
 c6bf                                   6      0.0000       0.00000       A     3.31548e-01     4.12804e-01    ;  uncertainty sigma = 0.000008, epsilon = 0.000814
 c7bf                                   6      0.0000       0.00000       A     3.31522e-01     4.13434e-01    ;  uncertainty sigma = 0.000004, epsilon = 0.000764
 c8bf                                   6      0.0000       0.00000       A     3.31518e-01     4.13387e-01    ;  uncertainty sigma = 0.000005, epsilon = 0.000512
 c9bf                                   6      0.0000       0.00000       A     3.31526e-01     4.13396e-01    ;  uncertainty sigma = 0.000003, epsilon = 0.000587
 c10bf                                  6      0.0000       0.00000       A     3.31519e-01     4.13314e-01    ;  uncertainty sigma = 0.000005, epsilon = 0.000613
 c11bf                                  6      0.0000       0.00000       A     3.31512e-01     4.13438e-01    ;  uncertainty sigma = 0.000004, epsilon = 0.000656
 c12bf                                  6      0.0000       0.00000       A     3.31541e-01     4.12899e-01    ;  uncertainty sigma = 0.000013, epsilon = 0.001785
 c13bf                                  6      0.0000       0.00000       A     3.31511e-01     4.13352e-01    ;  uncertainty sigma = 0.000009, epsilon = 0.000441
 n14bf                                  7      0.0000       0.00000       A     3.38405e-01     3.93997e-01    ;  uncertainty sigma = 0.000020, epsilon = 0.001343
 c15bf                                  6      0.0000       0.00000       A     3.31593e-01     4.14674e-01    ;  uncertainty sigma = 0.000005, epsilon = 0.000907
 n16bf                                  7      0.0000       0.00000       A     3.38461e-01     3.93887e-01    ;  uncertainty sigma = 0.000038, epsilon = 0.001240
 c17bf                                  6      0.0000       0.00000       A     3.31531e-01     4.12136e-01    ;  uncertainty sigma = 0.000013, epsilon = 0.001795
 cl18bf                                17      0.0000       0.00000       A     3.46634e-01     1.10459e+00    ;  uncertainty sigma = 0.000018, epsilon = 0.001350
 n19bf                                  7      0.0000       0.00000       A     3.36871e-01     4.68770e-01    ;  uncertainty sigma = 0.000036, epsilon = 0.004307
 c20bf                                  6      0.0000       0.00000       A     3.39797e-01     4.51325e-01    ;  uncertainty sigma = 0.000015, epsilon = 0.000395
 c21bf                                  6      0.0000       0.00000       A     3.39797e-01     4.51325e-01    ;  uncertainty sigma = 0.000015, epsilon = 0.000395
 cl22bf                                17      0.0000       0.00000       A     3.46651e-01     1.10491e+00    ;  uncertainty sigma = 0.000014, epsilon = 0.001348
 h23bf                                  1      0.0000       0.00000       A     2.42207e-01     8.68256e-02    ;  uncertainty sigma = 0.000021, epsilon = 0.000432
 h24bf                                  1      0.0000       0.00000       A     2.42207e-01     8.68256e-02    ;  uncertainty sigma = 0.000021, epsilon = 0.000432
 h25bf                                  1      0.0000       0.00000       A     1.88590e-01     8.73090e-02    ;  uncertainty sigma = 0.000026, epsilon = 0.001311
 h26bf                                  1      0.0000       0.00000       A     1.10703e-01     4.08586e-02    ;  uncertainty sigma = 0.000171, epsilon = 0.000512
 h27bf                                  1      0.0000       0.00000       A     1.88590e-01     8.73090e-02    ;  uncertainty sigma = 0.000026, epsilon = 0.001311
 h28bf                                  1      0.0000       0.00000       A     2.42207e-01     8.68256e-02    ;  uncertainty sigma = 0.000021, epsilon = 0.000432
 h29bf                                  1      0.0000       0.00000       A     2.42207e-01     8.68256e-02    ;  uncertainty sigma = 0.000021, epsilon = 0.000432
 h30bf                                  1      0.0000       0.00000       A     2.62558e-01     6.71746e-02    ;  uncertainty sigma = 0.000014, epsilon = 0.000618
 h31bf                                  1      0.0000       0.00000       A     2.62559e-01     6.70030e-02    ;  uncertainty sigma = 0.000009, epsilon = 0.000602
 h32bf                                  1      0.0000       0.00000       A     2.62564e-01     6.70179e-02    ;  uncertainty sigma = 0.000012, epsilon = 0.000543
 h33bf                                  1      0.0000       0.00000       A     2.53681e-01     6.68791e-02    ;  uncertainty sigma = 0.000034, epsilon = 0.000846
 h34bf                                  1      0.0000       0.00000       A     1.10718e-01     4.12967e-02    ;  uncertainty sigma = 0.000085, epsilon = 0.000435
 h35bf                                  1      0.0000       0.00000       A     1.10718e-01     4.12967e-02    ;  uncertainty sigma = 0.000085, epsilon = 0.000435
 h36bf                                  1      0.0000       0.00000       A     2.59993e-01     8.65310e-02    ;  uncertainty sigma = 0.000019, epsilon = 0.000536
 h37bf                                  1      0.0000       0.00000       A     2.59993e-01     8.65310e-02    ;  uncertainty sigma = 0.000019, epsilon = 0.000536
 h38bf                                  1      0.0000       0.00000       A     2.59993e-01     8.65310e-02    ;  uncertainty sigma = 0.000019, epsilon = 0.000536
 h39bf                                  1      0.0000       0.00000       A     2.59993e-01     8.65310e-02    ;  uncertainty sigma = 0.000019, epsilon = 0.000536
 h40bf                                  1      0.0000       0.00000       A     2.59993e-01     8.65309e-02    ;  uncertainty sigma = 0.000019, epsilon = 0.000536
 h41bf                                  1      0.0000       0.00000       A     2.59993e-01     8.65310e-02    ;  uncertainty sigma = 0.000019, epsilon = 0.000536
 h42bf                                  1      0.0000       0.00000       A     1.10703e-01     4.08587e-02    ;  uncertainty sigma = 0.000171, epsilon = 0.000512

[ moleculetype ]
;name             nrexcl
 MOL                   3

[ atoms ]
;       nr            type      resi   res      atom      cgnr      charge          mass ; qtot
         1            n0bf         1   UNL        n0         1    -0.76801       14.0070 ; qtot   -0.768
         2            c1bf         1   UNL        c1         2     0.20764       12.0110 ; qtot   -0.560
         3            c2bf         1   UNL        c2         3     0.14076       12.0110 ; qtot   -0.420
         4            n3bf         1   UNL        n3         4    -0.78667       14.0070 ; qtot   -1.206
         5            c4bf         1   UNL        c4         5     0.14076       12.0110 ; qtot   -1.066
         6            c5bf         1   UNL        c5         6     0.20764       12.0110 ; qtot   -0.858
         7            c6bf         1   UNL        c6         7    -0.00709       12.0110 ; qtot   -0.865
         8            c7bf         1   UNL        c7         8    -0.10921       12.0110 ; qtot   -0.974
         9            c8bf         1   UNL        c8         9     0.03424       12.0110 ; qtot   -0.940
        10            c9bf         1   UNL        c9        10     0.03563       12.0110 ; qtot   -0.904
        11           c10bf         1   UNL       c10        11    -0.11217       12.0110 ; qtot   -1.016
        12           c11bf         1   UNL       c11        12    -0.11252       12.0110 ; qtot   -1.129
        13           c12bf         1   UNL       c12        13    -0.38196       12.0110 ; qtot   -1.511
        14           c13bf         1   UNL       c13        14     0.50417       12.0110 ; qtot   -1.007
        15           n14bf         1   UNL       n14        15    -0.78231       14.0070 ; qtot   -1.789
        16           c15bf         1   UNL       c15        16     0.92022       12.0110 ; qtot   -0.869
        17           n16bf         1   UNL       n16        17    -0.84044       14.0070 ; qtot   -1.709
        18           c17bf         1   UNL       c17        18     0.72171       12.0110 ; qtot   -0.988
        19          cl18bf         1   UNL      cl18        19    -0.08468       35.4530 ; qtot   -1.072
        20           n19bf         1   UNL       n19        20    -0.92467       14.0070 ; qtot   -1.997
        21           c20bf         1   UNL       c20        21    -0.13213       12.0110 ; qtot   -2.129
        22           c21bf         1   UNL       c21        22    -0.13213       12.0110 ; qtot   -2.261
        23          cl22bf         1   UNL      cl22        23    -0.08208       35.4530 ; qtot   -2.343
        24           h23bf         1   UNL       h23        24     0.09997        1.0080 ; qtot   -2.243
        25           h24bf         1   UNL       h24        25     0.09997        1.0080 ; qtot   -2.143
        26           h25bf         1   UNL       h25        26     0.10977        1.0080 ; qtot   -2.034
        27           h26bf         1   UNL       h26        27     0.45362        1.0080 ; qtot   -1.580
        28           h27bf         1   UNL       h27        28     0.10977        1.0080 ; qtot   -1.470
        29           h28bf         1   UNL       h28        29     0.09997        1.0080 ; qtot   -1.370
        30           h29bf         1   UNL       h29        30     0.09997        1.0080 ; qtot   -1.270
        31           h30bf         1   UNL       h30        31     0.15753        1.0080 ; qtot   -1.113
        32           h31bf         1   UNL       h31        32     0.15488        1.0080 ; qtot   -0.958
        33           h32bf         1   UNL       h32        33     0.14670        1.0080 ; qtot   -0.811
        34           h33bf         1   UNL       h33        34     0.02199        1.0080 ; qtot   -0.789
        35           h34bf         1   UNL       h34        35     0.42318        1.0080 ; qtot   -0.366
        36           h35bf         1   UNL       h35        36     0.42318        1.0080 ; qtot    0.057
        37           h36bf         1   UNL       h36        37     0.08153        1.0080 ; qtot    0.139
        38           h37bf         1   UNL       h37        38     0.08153        1.0080 ; qtot    0.220
        39           h38bf         1   UNL       h38        39     0.08153        1.0080 ; qtot    0.302
        40           h39bf         1   UNL       h39        40     0.08153        1.0080 ; qtot    0.383
        41           h40bf         1   UNL       h40        41     0.08153        1.0080 ; qtot    0.465
        42           h41bf         1   UNL       h41        42     0.08153        1.0080 ; qtot    0.546
        43           h42bf         1   UNL       h42        43     0.45362        1.0080 ; qtot    1.000

[ bonds ]
;       ai        aj funct               r               k
         1         2     1        0.144779   276549.631445    ;  uncertainty r = 0.000221, k = 15.766291
         1         6     1        0.144779   276549.631445    ;  uncertainty r = 0.000221, k = 15.766291
         1        16     1        0.140005   327605.923145    ;  uncertainty r = 0.000253, k = 27.135205
         2         3     1        0.153187   206368.956055    ;  uncertainty r = 0.000210, k = 9.934365
         2        24     1        0.109554   308679.860645    ;  uncertainty r = 0.000047, k = 3.717700
         2        25     1        0.109554   308679.860645    ;  uncertainty r = 0.000047, k = 3.717700
         3         4     1        0.152679   173592.037866    ;  uncertainty r = 0.000193, k = 5.031134
         3        21     1        0.152461   211900.638696    ;  uncertainty r = 0.000050, k = 7.217761
         3        26     1        0.109227   310938.311523    ;  uncertainty r = 0.000042, k = 5.423053
         4         5     1        0.152679   173592.037866    ;  uncertainty r = 0.000193, k = 5.031134
         4        27     1        0.102749   388723.503955    ;  uncertainty r = 0.000070, k = 10.530730
         4        43     1        0.102749   388723.503955    ;  uncertainty r = 0.000070, k = 10.530718
         5         6     1        0.153187   206368.956055    ;  uncertainty r = 0.000210, k = 9.934365
         5        22     1        0.152461   211900.638696    ;  uncertainty r = 0.000050, k = 7.217761
         5        28     1        0.109227   310938.311523    ;  uncertainty r = 0.000042, k = 5.423053
         6        29     1        0.109554   308679.860645    ;  uncertainty r = 0.000047, k = 3.717700
         6        30     1        0.109554   308679.860645    ;  uncertainty r = 0.000047, k = 3.717700
         7         8     1        0.140192   353643.202344    ;  uncertainty r = 0.000061, k = 2.901172
         7        12     1        0.140376   350485.028027    ;  uncertainty r = 0.000044, k = 3.190460
         7        13     1        0.147844   286951.968652    ;  uncertainty r = 0.000079, k = 11.772647
         8         9     1        0.139417   356037.357422    ;  uncertainty r = 0.000009, k = 3.522295
         8        31     1        0.108683   336036.744434    ;  uncertainty r = 0.000012, k = 1.503427
         9        10     1        0.139977   349760.182715    ;  uncertainty r = 0.000010, k = 2.253933
         9        19     1        0.174683   192182.351221    ;  uncertainty r = 0.000040, k = 1.962061
        10        11     1        0.139602   364705.418457    ;  uncertainty r = 0.000019, k = 1.282682
        10        23     1        0.174590   192275.127539    ;  uncertainty r = 0.000046, k = 3.223380
        11        12     1        0.139127   371059.025732    ;  uncertainty r = 0.000023, k = 1.255126
        11        32     1        0.108681   335163.400830    ;  uncertainty r = 0.000019, k = 0.805143
        12        33     1        0.108746   334368.685986    ;  uncertainty r = 0.000019, k = 1.514182
        13        14     1        0.140304   407186.476514    ;  uncertainty r = 0.000043, k = 17.465989
        13        18     1        0.142584   428167.995410    ;  uncertainty r = 0.000121, k = 25.218271
        14        15     1        0.134459   425333.835938    ;  uncertainty r = 0.000297, k = 15.677051
        14        34     1        0.108873   326777.422705    ;  uncertainty r = 0.000020, k = 3.784126
        15        16     1        0.135569   466988.589746    ;  uncertainty r = 0.000277, k = 23.811604
        16        17     1        0.136494   453987.289844    ;  uncertainty r = 0.000285, k = 24.461962
        17        18     1        0.137116   553321.691113    ;  uncertainty r = 0.000301, k = 18.123506
        18        20     1        0.141191   545409.528516    ;  uncertainty r = 0.000336, k = 32.145426
        20        35     1        0.101885   428718.371191    ;  uncertainty r = 0.000039, k = 2.239531
        20        36     1        0.101885   428718.371191    ;  uncertainty r = 0.000039, k = 2.239531
        21        37     1        0.109435   314705.596973    ;  uncertainty r = 0.000015, k = 2.568362
        21        38     1        0.109435   314705.596973    ;  uncertainty r = 0.000015, k = 2.568362
        21        39     1        0.109435   314705.596973    ;  uncertainty r = 0.000015, k = 2.568362
        22        40     1        0.109435   314705.596973    ;  uncertainty r = 0.000015, k = 2.568362
        22        41     1        0.109435   314705.596973    ;  uncertainty r = 0.000015, k = 2.568362
        22        42     1        0.109435   314705.596973    ;  uncertainty r = 0.000015, k = 2.568364

[ angles ]
;       ai        aj        ak funct           theta             cth
         1         2         3     1      109.329224      643.624345    ;  uncertainty theta = 0.006954, k = 0.212215
         1         2        24     1      107.277908      461.102963    ;  uncertainty theta = 0.004977, k = 0.064880
         1         2        25     1      107.277908      461.102963    ;  uncertainty theta = 0.004977, k = 0.064880
         1         6         5     1      109.329224      643.624345    ;  uncertainty theta = 0.006954, k = 0.212215
         1         6        29     1      107.277908      461.102963    ;  uncertainty theta = 0.004977, k = 0.064880
         1         6        30     1      107.277908      461.102963    ;  uncertainty theta = 0.004977, k = 0.064880
         1        16        15     1      120.721962      574.796217    ;  uncertainty theta = 0.007645, k = 0.124683
         1        16        17     1      120.884438      599.268492    ;  uncertainty theta = 0.007891, k = 0.116597
         2         1         6     1      108.938576      429.288864    ;  uncertainty theta = 0.003559, k = 0.373166
         2         1        16     1      111.160965      430.757726    ;  uncertainty theta = 0.003078, k = 0.119235
         2         3         4     1      107.460464      700.244585    ;  uncertainty theta = 0.003667, k = 0.186760
         2         3        21     1      112.441856      558.830480    ;  uncertainty theta = 0.004678, k = 0.128186
         2         3        26     1      109.599533      400.829128    ;  uncertainty theta = 0.003531, k = 0.077184
         3         2        24     1      108.323303      413.330948    ;  uncertainty theta = 0.002194, k = 0.117162
         3         2        25     1      108.323303      413.330948    ;  uncertainty theta = 0.002194, k = 0.117162
         3         4         5     1      113.868286      590.753909    ;  uncertainty theta = 0.003223, k = 0.150278
         3         4        27     1      108.401489      425.296264    ;  uncertainty theta = 0.002532, k = 0.161466
         3         4        43     1      108.401489      425.296264    ;  uncertainty theta = 0.002532, k = 0.161466
         3        21        37     1      107.746384      398.727264    ;  uncertainty theta = 0.001931, k = 0.092858
         3        21        38     1      107.746384      398.727264    ;  uncertainty theta = 0.001931, k = 0.092858
         3        21        39     1      107.746384      398.727264    ;  uncertainty theta = 0.001931, k = 0.092858
         4         3        21     1      109.754440      709.850113    ;  uncertainty theta = 0.002467, k = 0.173077
         4         3        26     1      104.779617      464.907226    ;  uncertainty theta = 0.002841, k = 0.109708
         4         5         6     1      107.460464      700.244585    ;  uncertainty theta = 0.003667, k = 0.186760
         4         5        22     1      109.754440      709.850113    ;  uncertainty theta = 0.002467, k = 0.173077
         4         5        28     1      104.779617      464.907226    ;  uncertainty theta = 0.002841, k = 0.109708
         5         4        27     1      108.401489      425.296264    ;  uncertainty theta = 0.002532, k = 0.161466
         5         4        43     1      108.401489      425.296233    ;  uncertainty theta = 0.002532, k = 0.161466
         5         6        29     1      108.323303      413.330948    ;  uncertainty theta = 0.002194, k = 0.117162
         5         6        30     1      108.323303      413.330948    ;  uncertainty theta = 0.002194, k = 0.117162
         5        22        40     1      107.746384      398.727264    ;  uncertainty theta = 0.001931, k = 0.092858
         5        22        41     1      107.746384      398.727264    ;  uncertainty theta = 0.001931, k = 0.092858
         5        22        42     1      107.746384      398.727264    ;  uncertainty theta = 0.001931, k = 0.092858
         6         1        16     1      111.160965      430.757726    ;  uncertainty theta = 0.003078, k = 0.119235
         6         5        22     1      112.441856      558.830480    ;  uncertainty theta = 0.004678, k = 0.128186
         6         5        28     1      109.599533      400.829160    ;  uncertainty theta = 0.003531, k = 0.077184
         7         8         9     1      121.242638      508.228570    ;  uncertainty theta = 0.002354, k = 0.061871
         7         8        31     1      120.507462      274.459987    ;  uncertainty theta = 0.002930, k = 0.095171
         7        12        11     1      120.688393      524.967219    ;  uncertainty theta = 0.000935, k = 0.033389
         7        12        33     1      119.774368      280.206124    ;  uncertainty theta = 0.002984, k = 0.074615
         7        13        14     1      123.076515      403.680825    ;  uncertainty theta = 0.004070, k = 0.126716
         7        13        18     1      121.348190      360.077679    ;  uncertainty theta = 0.004775, k = 0.265189
         8         7        12     1      119.817856      412.023352    ;  uncertainty theta = 0.001252, k = 0.218407
         8         7        13     1      121.560547      426.524727    ;  uncertainty theta = 0.006145, k = 0.080782
         8         9        10     1      121.243881      364.505527    ;  uncertainty theta = 0.003282, k = 0.109175
         8         9        19     1      120.020767      443.794197    ;  uncertainty theta = 0.001202, k = 0.083672
         9         8        31     1      119.773743      290.443568    ;  uncertainty theta = 0.001348, k = 0.063908
         9        10        11     1      120.069748      356.445345    ;  uncertainty theta = 0.002245, k = 0.125291
         9        10        23     1      121.187759      438.316136    ;  uncertainty theta = 0.002287, k = 0.045396
        10         9        19     1      121.136215      436.662034    ;  uncertainty theta = 0.001891, k = 0.078298
        10        11        12     1      120.409569      498.664220    ;  uncertainty theta = 0.001580, k = 0.123686
        10        11        32     1      119.998154      285.189148    ;  uncertainty theta = 0.001219, k = 0.073102
        11        10        23     1      120.401810      454.648714    ;  uncertainty theta = 0.001882, k = 0.046561
        11        12        33     1      119.653282      292.539558    ;  uncertainty theta = 0.001467, k = 0.018341
        12         7        13     1      122.348862      431.775221    ;  uncertainty theta = 0.006236, k = 0.037784
        12        11        32     1      120.742043      279.703809    ;  uncertainty theta = 0.001498, k = 0.020898
        13        14        15     1      124.193810      713.578212    ;  uncertainty theta = 0.003233, k = 0.137749
        13        14        34     1      119.313942      260.468141    ;  uncertainty theta = 0.002648, k = 0.141889
        13        18        17     1      122.385941      540.700792    ;  uncertainty theta = 0.007051, k = 0.164464
        13        18        20     1      125.300880      516.145425    ;  uncertainty theta = 0.003028, k = 0.218501
        14        13        18     1      117.000412      435.767948    ;  uncertainty theta = 0.012843, k = 0.885377
        14        15        16     1      115.749222      419.988312    ;  uncertainty theta = 0.009899, k = 0.319287
        15        14        34     1      116.400497      323.972963    ;  uncertainty theta = 0.003903, k = 0.142622
        15        16        17     1      128.799652      735.812033    ;  uncertainty theta = 0.002961, k = 0.074631
        16        17        18     1      122.483582      478.791082    ;  uncertainty theta = 0.008681, k = 0.107989
        17        18        20     1      125.417236      903.793925    ;  uncertainty theta = 0.004767, k = 0.085928
        18        20        35     1      118.229027      415.844150    ;  uncertainty theta = 0.001176, k = 0.153518
        18        20        36     1      118.229027      415.844150    ;  uncertainty theta = 0.001176, k = 0.153518
        21         3        26     1      110.246017      412.434404    ;  uncertainty theta = 0.002593, k = 0.168633
        22         5        28     1      110.246017      412.434404    ;  uncertainty theta = 0.002593, k = 0.168633
        24         2        25     1      106.342567      325.877137    ;  uncertainty theta = 0.001886, k = 0.093642
        27         4        43     1      105.967491      381.455496    ;  uncertainty theta = 0.002206, k = 0.193783
        29         6        30     1      106.342567      325.877137    ;  uncertainty theta = 0.001886, k = 0.093642
        35        20        36     1      107.953087      275.511637    ;  uncertainty theta = 0.001193, k = 0.067996
        37        21        38     1      105.948242      316.497421    ;  uncertainty theta = 0.000697, k = 0.035016
        37        21        39     1      105.948242      316.497421    ;  uncertainty theta = 0.000697, k = 0.035016
        38        21        39     1      105.948242      316.497421    ;  uncertainty theta = 0.000697, k = 0.035016
        40        22        41     1      105.948242      316.497421    ;  uncertainty theta = 0.000697, k = 0.035016
        40        22        42     1      105.948242      316.497421    ;  uncertainty theta = 0.000697, k = 0.035016
        41        22        42     1      105.948242      316.497421    ;  uncertainty theta = 0.000697, k = 0.035016

[ dihedrals ] ; propers for gromacs 4.5 or higher, use funct 9
;       ai        aj        ak        al funct           phase               k        pn
         1         2         3         4     9        0.000000        6.818754         1    ;  uncertainty k = 0.590441
         1         2         3         4     9      180.000000       -4.096436         2    ;  uncertainty k = 0.835785
         1         2         3         4     9        0.000000        1.742342         3    ;  uncertainty k = 0.401644
         1         2         3         4     9      180.000000       -0.262157         4    ;  uncertainty k = 0.255375
         1         2         3        21     9        0.000000       -2.412141         1    ;  uncertainty k = 0.610259
         1         2         3        21     9      180.000000        1.365198         2    ;  uncertainty k = 0.786605
         1         2         3        21     9        0.000000        1.518501         3    ;  uncertainty k = 0.408237
         1         2         3        21     9      180.000000       -0.209018         4    ;  uncertainty k = 0.158746
         1         2         3        26     9        0.000000        1.674598         1    ;  uncertainty k = 1.131297
         1         2         3        26     9      180.000000       -1.719808         2    ;  uncertainty k = 0.611710
         1         2         3        26     9        0.000000        0.637684         3    ;  uncertainty k = 0.165821
         1         2         3        26     9      180.000000        0.038240         4    ;  uncertainty k = 0.177330
         1         6         5         4     9        0.000000        6.818754         1    ;  uncertainty k = 0.590441
         1         6         5         4     9      180.000000       -4.096436         2    ;  uncertainty k = 0.835785
         1         6         5         4     9        0.000000        1.742342         3    ;  uncertainty k = 0.401644
         1         6         5         4     9      180.000000       -0.262157         4    ;  uncertainty k = 0.255375
         1         6         5        22     9        0.000000       -2.412141         1    ;  uncertainty k = 0.610259
         1         6         5        22     9      180.000000        1.365198         2    ;  uncertainty k = 0.786605
         1         6         5        22     9        0.000000        1.518501         3    ;  uncertainty k = 0.408237
         1         6         5        22     9      180.000000       -0.209018         4    ;  uncertainty k = 0.158746
         1         6         5        28     9        0.000000        1.674598         1    ;  uncertainty k = 1.131297
         1         6         5        28     9      180.000000       -1.719808         2    ;  uncertainty k = 0.611710
         1         6         5        28     9        0.000000        0.637684         3    ;  uncertainty k = 0.165821
         1         6         5        28     9      180.000000        0.038240         4    ;  uncertainty k = 0.177330
         1        16        15        14     9        0.000000        0.546669         1    ;  uncertainty k = 1.339110
         1        16        15        14     9      180.000000       11.666293         2    ;  uncertainty k = 0.252159
         1        16        15        14     9        0.000000        1.910470         3    ;  uncertainty k = 0.458375
         1        16        15        14     9      180.000000        1.045941         4    ;  uncertainty k = 0.346248
         1        16        17        18     9        0.000000        0.331365         1    ;  uncertainty k = 0.931188
         1        16        17        18     9      180.000000       11.325489         2    ;  uncertainty k = 0.571865
         1        16        17        18     9        0.000000        1.791399         3    ;  uncertainty k = 0.404289
         1        16        17        18     9      180.000000        0.915301         4    ;  uncertainty k = 0.400754
         2         1         6         5     9        0.000000       -3.245175         1    ;  uncertainty k = 3.888644
         2         1         6         5     9      180.000000       -0.667114         2    ;  uncertainty k = 0.392806
         2         1         6         5     9        0.000000        0.688246         3    ;  uncertainty k = 0.437496
         2         1         6         5     9      180.000000       -0.413245         4    ;  uncertainty k = 0.252968
         2         1         6        29     9        0.000000       -4.758292         1    ;  uncertainty k = 1.911032
         2         1         6        29     9      180.000000        0.579576         2    ;  uncertainty k = 0.611848
         2         1         6        29     9        0.000000        0.777261         3    ;  uncertainty k = 0.142514
         2         1         6        29     9      180.000000       -0.019571         4    ;  uncertainty k = 0.065458
         2         1         6        30     9        0.000000       -4.758292         1    ;  uncertainty k = 1.911032
         2         1         6        30     9      180.000000        0.579576         2    ;  uncertainty k = 0.611848
         2         1         6        30     9        0.000000        0.777261         3    ;  uncertainty k = 0.142514
         2         1         6        30     9      180.000000       -0.019571         4    ;  uncertainty k = 0.065458
         2         1        16        15     9        0.000000        6.092744         1    ;  uncertainty k = 0.639216
         2         1        16        15     9      180.000000        9.849098         2    ;  uncertainty k = 0.125325
         2         1        16        15     9        0.000000        0.393088         3    ;  uncertainty k = 0.568178
         2         1        16        15     9      180.000000       -0.170650         4    ;  uncertainty k = 0.159943
         2         1        16        17     9        0.000000        7.897552         1    ;  uncertainty k = 0.540106
         2         1        16        17     9      180.000000       10.040739         2    ;  uncertainty k = 0.060298
         2         1        16        17     9        0.000000        0.399412         3    ;  uncertainty k = 0.517405
         2         1        16        17     9      180.000000       -0.255495         4    ;  uncertainty k = 0.102086
         2         3         4         5     9        0.000000        3.582698         1    ;  uncertainty k = 1.517954
         2         3         4         5     9      180.000000       -1.850360         2    ;  uncertainty k = 1.106156
         2         3         4         5     9        0.000000        0.116075         3    ;  uncertainty k = 0.543376
         2         3         4         5     9      180.000000       -0.316679         4    ;  uncertainty k = 0.355921
         2         3         4        27     9        0.000000        0.387723         1    ;  uncertainty k = 0.479471
         2         3         4        27     9      180.000000       -0.437739         2    ;  uncertainty k = 0.598371
         2         3         4        27     9        0.000000        0.365970         3    ;  uncertainty k = 0.269109
         2         3         4        27     9      180.000000       -0.141939         4    ;  uncertainty k = 0.137865
         2         3         4        43     9        0.000000        0.387723         1    ;  uncertainty k = 0.479471
         2         3         4        43     9      180.000000       -0.437740         2    ;  uncertainty k = 0.598370
         2         3         4        43     9        0.000000        0.365970         3    ;  uncertainty k = 0.269109
         2         3         4        43     9      180.000000       -0.141939         4    ;  uncertainty k = 0.137865
         2         3        21        37     9        0.000000       -1.042537         1    ;  uncertainty k = 0.787801
         2         3        21        37     9      180.000000       -0.812632         2    ;  uncertainty k = 0.240321
         2         3        21        37     9        0.000000        0.744986         3    ;  uncertainty k = 0.157361
         2         3        21        37     9      180.000000       -0.253910         4    ;  uncertainty k = 0.099364
         2         3        21        38     9        0.000000       -1.042537         1    ;  uncertainty k = 0.787801
         2         3        21        38     9      180.000000       -0.812632         2    ;  uncertainty k = 0.240321
         2         3        21        38     9        0.000000        0.744986         3    ;  uncertainty k = 0.157361
         2         3        21        38     9      180.000000       -0.253910         4    ;  uncertainty k = 0.099364
         2         3        21        39     9        0.000000       -1.042537         1    ;  uncertainty k = 0.787801
         2         3        21        39     9      180.000000       -0.812632         2    ;  uncertainty k = 0.240321
         2         3        21        39     9        0.000000        0.744986         3    ;  uncertainty k = 0.157361
         2         3        21        39     9      180.000000       -0.253910         4    ;  uncertainty k = 0.099364
         3         2         1         6     9        0.000000       -3.245175         1    ;  uncertainty k = 3.888644
         3         2         1         6     9      180.000000       -0.667114         2    ;  uncertainty k = 0.392806
         3         2         1         6     9        0.000000        0.688246         3    ;  uncertainty k = 0.437496
         3         2         1         6     9      180.000000       -0.413245         4    ;  uncertainty k = 0.252968
         3         2         1        16     9        0.000000       -0.854705         1    ;  uncertainty k = 1.700803
         3         2         1        16     9      180.000000       -0.119246         2    ;  uncertainty k = 0.500806
         3         2         1        16     9        0.000000       -0.389409         3    ;  uncertainty k = 0.257722
         3         2         1        16     9      180.000000        0.191923         4    ;  uncertainty k = 0.122719
         3         4         5         6     9        0.000000        3.582698         1    ;  uncertainty k = 1.517954
         3         4         5         6     9      180.000000       -1.850360         2    ;  uncertainty k = 1.106156
         3         4         5         6     9        0.000000        0.116075         3    ;  uncertainty k = 0.543376
         3         4         5         6     9      180.000000       -0.316679         4    ;  uncertainty k = 0.355921
         3         4         5        22     9        0.000000       -2.218562         1    ;  uncertainty k = 1.065343
         3         4         5        22     9      180.000000        0.486142         2    ;  uncertainty k = 0.424972
         3         4         5        22     9        0.000000        0.735400         3    ;  uncertainty k = 0.289355
         3         4         5        22     9      180.000000       -0.138162         4    ;  uncertainty k = 0.164365
         3         4         5        28     9        0.000000       -0.096097         1    ;  uncertainty k = 0.574750
         3         4         5        28     9      180.000000       -0.612815         2    ;  uncertainty k = 0.435078
         3         4         5        28     9        0.000000        0.331438         3    ;  uncertainty k = 0.342985
         3         4         5        28     9      180.000000       -0.006389         4    ;  uncertainty k = 0.193963
         4         3         2        24     9        0.000000        1.898915         1    ;  uncertainty k = 1.095634
         4         3         2        24     9      180.000000       -3.128399         2    ;  uncertainty k = 0.999543
         4         3         2        24     9        0.000000       -0.081039         3    ;  uncertainty k = 0.341740
         4         3         2        24     9      180.000000        0.127786         4    ;  uncertainty k = 0.152689
         4         3         2        25     9        0.000000        1.898915         1    ;  uncertainty k = 1.095634
         4         3         2        25     9      180.000000       -3.128399         2    ;  uncertainty k = 0.999543
         4         3         2        25     9        0.000000       -0.081039         3    ;  uncertainty k = 0.341740
         4         3         2        25     9      180.000000        0.127786         4    ;  uncertainty k = 0.152689
         4         3        21        37     9        0.000000       -0.897307         1    ;  uncertainty k = 0.952665
         4         3        21        37     9      180.000000       -2.906535         2    ;  uncertainty k = 0.772198
         4         3        21        37     9        0.000000        1.040439         3    ;  uncertainty k = 0.157647
         4         3        21        37     9      180.000000       -0.209397         4    ;  uncertainty k = 0.110351
         4         3        21        38     9        0.000000       -0.897307         1    ;  uncertainty k = 0.952665
         4         3        21        38     9      180.000000       -2.906535         2    ;  uncertainty k = 0.772198
         4         3        21        38     9        0.000000        1.040439         3    ;  uncertainty k = 0.157647
         4         3        21        38     9      180.000000       -0.209397         4    ;  uncertainty k = 0.110351
         4         3        21        39     9        0.000000       -0.897307         1    ;  uncertainty k = 0.952665
         4         3        21        39     9      180.000000       -2.906535         2    ;  uncertainty k = 0.772198
         4         3        21        39     9        0.000000        1.040439         3    ;  uncertainty k = 0.157647
         4         3        21        39     9      180.000000       -0.209397         4    ;  uncertainty k = 0.110351
         4         5         6        29     9        0.000000        1.898915         1    ;  uncertainty k = 1.095634
         4         5         6        29     9      180.000000       -3.128399         2    ;  uncertainty k = 0.999543
         4         5         6        29     9        0.000000       -0.081039         3    ;  uncertainty k = 0.341740
         4         5         6        29     9      180.000000        0.127786         4    ;  uncertainty k = 0.152689
         4         5         6        30     9        0.000000        1.898915         1    ;  uncertainty k = 1.095634
         4         5         6        30     9      180.000000       -3.128399         2    ;  uncertainty k = 0.999543
         4         5         6        30     9        0.000000       -0.081039         3    ;  uncertainty k = 0.341740
         4         5         6        30     9      180.000000        0.127786         4    ;  uncertainty k = 0.152689
         4         5        22        40     9        0.000000       -0.897307         1    ;  uncertainty k = 0.952665
         4         5        22        40     9      180.000000       -2.906535         2    ;  uncertainty k = 0.772198
         4         5        22        40     9        0.000000        1.040439         3    ;  uncertainty k = 0.157647
         4         5        22        40     9      180.000000       -0.209397         4    ;  uncertainty k = 0.110351
         4         5        22        41     9        0.000000       -0.897307         1    ;  uncertainty k = 0.952665
         4         5        22        41     9      180.000000       -2.906535         2    ;  uncertainty k = 0.772198
         4         5        22        41     9        0.000000        1.040439         3    ;  uncertainty k = 0.157647
         4         5        22        41     9      180.000000       -0.209397         4    ;  uncertainty k = 0.110351
         4         5        22        42     9        0.000000       -0.897307         1    ;  uncertainty k = 0.952665
         4         5        22        42     9      180.000000       -2.906535         2    ;  uncertainty k = 0.772198
         4         5        22        42     9        0.000000        1.040439         3    ;  uncertainty k = 0.157647
         4         5        22        42     9      180.000000       -0.209397         4    ;  uncertainty k = 0.110351
         5         4         3        21     9        0.000000       -2.218562         1    ;  uncertainty k = 1.065343
         5         4         3        21     9      180.000000        0.486142         2    ;  uncertainty k = 0.424972
         5         4         3        21     9        0.000000        0.735400         3    ;  uncertainty k = 0.289355
         5         4         3        21     9      180.000000       -0.138162         4    ;  uncertainty k = 0.164365
         5         4         3        26     9        0.000000       -0.096097         1    ;  uncertainty k = 0.574750
         5         4         3        26     9      180.000000       -0.612815         2    ;  uncertainty k = 0.435078
         5         4         3        26     9        0.000000        0.331438         3    ;  uncertainty k = 0.342985
         5         4         3        26     9      180.000000       -0.006389         4    ;  uncertainty k = 0.193963
         5         6         1        16     9        0.000000       -0.854705         1    ;  uncertainty k = 1.700803
         5         6         1        16     9      180.000000       -0.119246         2    ;  uncertainty k = 0.500806
         5         6         1        16     9        0.000000       -0.389409         3    ;  uncertainty k = 0.257722
         5         6         1        16     9      180.000000        0.191923         4    ;  uncertainty k = 0.122719
         6         1         2        24     9        0.000000       -4.758292         1    ;  uncertainty k = 1.911032
         6         1         2        24     9      180.000000        0.579576         2    ;  uncertainty k = 0.611848
         6         1         2        24     9        0.000000        0.777261         3    ;  uncertainty k = 0.142514
         6         1         2        24     9      180.000000       -0.019571         4    ;  uncertainty k = 0.065458
         6         1         2        25     9        0.000000       -4.758292         1    ;  uncertainty k = 1.911032
         6         1         2        25     9      180.000000        0.579576         2    ;  uncertainty k = 0.611848
         6         1         2        25     9        0.000000        0.777261         3    ;  uncertainty k = 0.142514
         6         1         2        25     9      180.000000       -0.019571         4    ;  uncertainty k = 0.065458
         6         1        16        15     9        0.000000        6.092744         1    ;  uncertainty k = 0.639216
         6         1        16        15     9      180.000000        9.849098         2    ;  uncertainty k = 0.125325
         6         1        16        15     9        0.000000        0.393088         3    ;  uncertainty k = 0.568178
         6         1        16        15     9      180.000000       -0.170650         4    ;  uncertainty k = 0.159943
         6         1        16        17     9        0.000000        7.897552         1    ;  uncertainty k = 0.540106
         6         1        16        17     9      180.000000       10.040739         2    ;  uncertainty k = 0.060298
         6         1        16        17     9        0.000000        0.399412         3    ;  uncertainty k = 0.517405
         6         1        16        17     9      180.000000       -0.255495         4    ;  uncertainty k = 0.102086
         6         5         4        27     9        0.000000        0.387723         1    ;  uncertainty k = 0.479471
         6         5         4        27     9      180.000000       -0.437739         2    ;  uncertainty k = 0.598371
         6         5         4        27     9        0.000000        0.365970         3    ;  uncertainty k = 0.269109
         6         5         4        27     9      180.000000       -0.141939         4    ;  uncertainty k = 0.137865
         6         5         4        43     9        0.000000        0.387723         1    ;  uncertainty k = 0.479471
         6         5         4        43     9      180.000000       -0.437740         2    ;  uncertainty k = 0.598370
         6         5         4        43     9        0.000000        0.365970         3    ;  uncertainty k = 0.269109
         6         5         4        43     9      180.000000       -0.141939         4    ;  uncertainty k = 0.137865
         6         5        22        40     9        0.000000       -1.042537         1    ;  uncertainty k = 0.787801
         6         5        22        40     9      180.000000       -0.812632         2    ;  uncertainty k = 0.240321
         6         5        22        40     9        0.000000        0.744986         3    ;  uncertainty k = 0.157361
         6         5        22        40     9      180.000000       -0.253910         4    ;  uncertainty k = 0.099364
         6         5        22        41     9        0.000000       -1.042537         1    ;  uncertainty k = 0.787801
         6         5        22        41     9      180.000000       -0.812632         2    ;  uncertainty k = 0.240321
         6         5        22        41     9        0.000000        0.744986         3    ;  uncertainty k = 0.157361
         6         5        22        41     9      180.000000       -0.253910         4    ;  uncertainty k = 0.099364
         6         5        22        42     9        0.000000       -1.042537         1    ;  uncertainty k = 0.787801
         6         5        22        42     9      180.000000       -0.812632         2    ;  uncertainty k = 0.240321
         6         5        22        42     9        0.000000        0.744986         3    ;  uncertainty k = 0.157361
         6         5        22        42     9      180.000000       -0.253910         4    ;  uncertainty k = 0.099364
         7         8         9        10     9        0.000000        0.010970         1    ;  uncertainty k = 0.282560
         7         8         9        10     9      180.000000        9.431249         2    ;  uncertainty k = 0.429780
         7         8         9        10     9        0.000000        0.318246         3    ;  uncertainty k = 0.529833
         7         8         9        10     9      180.000000        1.324380         4    ;  uncertainty k = 0.336765
         7         8         9        19     9        0.000000        0.076795         1    ;  uncertainty k = 0.157538
         7         8         9        19     9      180.000000        9.305893         2    ;  uncertainty k = 0.491532
         7         8         9        19     9        0.000000        1.386429         3    ;  uncertainty k = 0.395748
         7         8         9        19     9      180.000000        1.805308         4    ;  uncertainty k = 0.089070
         7        12        11        10     9        0.000000       -0.082160         1    ;  uncertainty k = 0.237939
         7        12        11        10     9      180.000000       13.855497         2    ;  uncertainty k = 0.230136
         7        12        11        10     9        0.000000       -0.729155         3    ;  uncertainty k = 0.683699
         7        12        11        10     9      180.000000        0.891260         4    ;  uncertainty k = 0.355126
         7        12        11        32     9        0.000000        0.081944         1    ;  uncertainty k = 0.065611
         7        12        11        32     9      180.000000        7.844845         2    ;  uncertainty k = 0.376654
         7        12        11        32     9        0.000000        1.357200         3    ;  uncertainty k = 0.238340
         7        12        11        32     9      180.000000        1.876208         4    ;  uncertainty k = 0.148347
         7        13        14        15     9        0.000000        0.262588         1    ;  uncertainty k = 0.306998
         7        13        14        15     9      180.000000       12.763565         2    ;  uncertainty k = 0.413589
         7        13        14        15     9        0.000000        0.965262         3    ;  uncertainty k = 0.263160
         7        13        14        15     9      180.000000        1.413251         4    ;  uncertainty k = 0.241135
         7        13        14        34     9        0.000000       -0.507504         1    ;  uncertainty k = 0.783727
         7        13        14        34     9      180.000000        6.541073         2    ;  uncertainty k = 0.475283
         7        13        14        34     9        0.000000        0.955229         3    ;  uncertainty k = 0.217312
         7        13        14        34     9      180.000000        1.177128         4    ;  uncertainty k = 0.190768
         7        13        18        17     9        0.000000        0.704470         1    ;  uncertainty k = 0.538051
         7        13        18        17     9      180.000000        6.456980         2    ;  uncertainty k = 0.966818
         7        13        18        17     9        0.000000        0.841679         3    ;  uncertainty k = 0.138732
         7        13        18        17     9      180.000000        1.362485         4    ;  uncertainty k = 0.336604
         7        13        18        20     9        0.000000        0.123762         1    ;  uncertainty k = 1.095893
         7        13        18        20     9      180.000000        6.729884         2    ;  uncertainty k = 0.851296
         7        13        18        20     9        0.000000        0.679757         3    ;  uncertainty k = 0.306837
         7        13        18        20     9      180.000000        0.911545         4    ;  uncertainty k = 0.245886
         8         7        12        11     9        0.000000       -0.148877         1    ;  uncertainty k = 0.108010
         8         7        12        11     9      180.000000       11.086161         2    ;  uncertainty k = 0.364878
         8         7        12        11     9        0.000000       -0.440571         3    ;  uncertainty k = 0.268970
         8         7        12        11     9      180.000000        0.936830         4    ;  uncertainty k = 0.227174
         8         7        12        33     9        0.000000        0.104622         1    ;  uncertainty k = 0.285315
         8         7        12        33     9      180.000000        6.885367         2    ;  uncertainty k = 0.663669
         8         7        12        33     9        0.000000        1.449986         3    ;  uncertainty k = 0.239650
         8         7        12        33     9      180.000000        1.629709         4    ;  uncertainty k = 0.245262
         8         7        13        14     9        0.000000       -0.904386         1    ;  uncertainty k = 0.843015
         8         7        13        14     9      180.000000        4.305936         2    ;  uncertainty k = 0.365840
         8         7        13        14     9        0.000000        0.332678         3    ;  uncertainty k = 0.172419
         8         7        13        14     9      180.000000        0.171846         4    ;  uncertainty k = 0.034341
         8         7        13        18     9        0.000000        0.715633         1    ;  uncertainty k = 1.066270
         8         7        13        18     9      180.000000        4.654327         2    ;  uncertainty k = 0.546756
         8         7        13        18     9        0.000000        0.674583         3    ;  uncertainty k = 0.261746
         8         7        13        18     9      180.000000        0.452531         4    ;  uncertainty k = 0.062484
         8         9        10        11     9        0.000000       -0.174920         1    ;  uncertainty k = 0.300033
         8         9        10        11     9      180.000000        6.709232         2    ;  uncertainty k = 0.746394
         8         9        10        11     9        0.000000        0.261136         3    ;  uncertainty k = 0.466924
         8         9        10        11     9      180.000000        1.194206         4    ;  uncertainty k = 0.406307
         8         9        10        23     9        0.000000        0.146746         1    ;  uncertainty k = 0.218572
         8         9        10        23     9      180.000000        7.006615         2    ;  uncertainty k = 0.363498
         8         9        10        23     9        0.000000        1.517970         3    ;  uncertainty k = 0.277049
         8         9        10        23     9      180.000000        1.639244         4    ;  uncertainty k = 0.163673
         9         8         7        12     9        0.000000        0.004451         1    ;  uncertainty k = 0.155127
         9         8         7        12     9      180.000000       11.162757         2    ;  uncertainty k = 0.412981
         9         8         7        12     9        0.000000       -0.395345         3    ;  uncertainty k = 0.344446
         9         8         7        12     9      180.000000        0.997353         4    ;  uncertainty k = 0.292920
         9         8         7        13     9        0.000000       -0.048956         1    ;  uncertainty k = 0.159964
         9         8         7        13     9      180.000000        8.631732         2    ;  uncertainty k = 0.266269
         9         8         7        13     9        0.000000        1.209298         3    ;  uncertainty k = 0.261344
         9         8         7        13     9      180.000000        1.777689         4    ;  uncertainty k = 0.169376
         9        10        11        12     9        0.000000       -0.018444         1    ;  uncertainty k = 0.151834
         9        10        11        12     9      180.000000        9.576655         2    ;  uncertainty k = 0.228705
         9        10        11        12     9        0.000000        0.067693         3    ;  uncertainty k = 0.475962
         9        10        11        12     9      180.000000        1.227222         4    ;  uncertainty k = 0.279372
         9        10        11        32     9        0.000000        0.061970         1    ;  uncertainty k = 0.102877
         9        10        11        32     9      180.000000        6.264668         2    ;  uncertainty k = 0.571099
         9        10        11        32     9        0.000000        1.464744         3    ;  uncertainty k = 0.322233
         9        10        11        32     9      180.000000        1.552900         4    ;  uncertainty k = 0.171536
        10         9         8        31     9        0.000000        0.106203         1    ;  uncertainty k = 0.128963
        10         9         8        31     9      180.000000        6.533691         2    ;  uncertainty k = 0.565381
        10         9         8        31     9        0.000000        1.488612         3    ;  uncertainty k = 0.391653
        10         9         8        31     9      180.000000        1.638487         4    ;  uncertainty k = 0.128902
        10        11        12        33     9        0.000000        0.058932         1    ;  uncertainty k = 0.103519
        10        11        12        33     9      180.000000        8.009293         2    ;  uncertainty k = 0.402279
        10        11        12        33     9        0.000000        1.478233         3    ;  uncertainty k = 0.250977
        10        11        12        33     9      180.000000        1.939926         4    ;  uncertainty k = 0.206949
        11        10         9        19     9        0.000000        0.269886         1    ;  uncertainty k = 0.187034
        11        10         9        19     9      180.000000        7.105285         2    ;  uncertainty k = 0.447604
        11        10         9        19     9        0.000000        1.475216         3    ;  uncertainty k = 0.239385
        11        10         9        19     9      180.000000        1.655315         4    ;  uncertainty k = 0.138606
        11        12         7        13     9        0.000000        0.005428         1    ;  uncertainty k = 0.135832
        11        12         7        13     9      180.000000        8.432442         2    ;  uncertainty k = 0.518643
        11        12         7        13     9        0.000000        1.196083         3    ;  uncertainty k = 0.351408
        11        12         7        13     9      180.000000        1.818470         4    ;  uncertainty k = 0.235049
        12         7         8        31     9        0.000000        0.222989         1    ;  uncertainty k = 0.267794
        12         7         8        31     9      180.000000        6.998868         2    ;  uncertainty k = 0.629506
        12         7         8        31     9        0.000000        1.418667         3    ;  uncertainty k = 0.225368
        12         7         8        31     9      180.000000        1.648185         4    ;  uncertainty k = 0.260235
        12         7        13        14     9        0.000000       -0.920250         1    ;  uncertainty k = 0.648241
        12         7        13        14     9      180.000000        4.268239         2    ;  uncertainty k = 0.300937
        12         7        13        14     9        0.000000        0.351996         3    ;  uncertainty k = 0.165475
        12         7        13        14     9      180.000000        0.155370         4    ;  uncertainty k = 0.047538
        12         7        13        18     9        0.000000        0.771860         1    ;  uncertainty k = 1.041777
        12         7        13        18     9      180.000000        4.556607         2    ;  uncertainty k = 0.547813
        12         7        13        18     9        0.000000        0.733125         3    ;  uncertainty k = 0.222899
        12         7        13        18     9      180.000000        0.452006         4    ;  uncertainty k = 0.092882
        12        11        10        23     9        0.000000        0.033853         1    ;  uncertainty k = 0.171605
        12        11        10        23     9      180.000000        9.227780         2    ;  uncertainty k = 0.550599
        12        11        10        23     9        0.000000        1.528304         3    ;  uncertainty k = 0.411957
        12        11        10        23     9      180.000000        1.703396         4    ;  uncertainty k = 0.133573
        13         7         8        31     9        0.000000       -0.228753         1    ;  uncertainty k = 0.354943
        13         7         8        31     9      180.000000        7.017455         2    ;  uncertainty k = 0.264541
        13         7         8        31     9        0.000000        0.845361         3    ;  uncertainty k = 0.261634
        13         7         8        31     9      180.000000        1.212658         4    ;  uncertainty k = 0.290176
        13         7        12        33     9        0.000000       -0.230649         1    ;  uncertainty k = 0.405545
        13         7        12        33     9      180.000000        6.973546         2    ;  uncertainty k = 0.342013
        13         7        12        33     9        0.000000        0.849295         3    ;  uncertainty k = 0.246686
        13         7        12        33     9      180.000000        1.190290         4    ;  uncertainty k = 0.331089
        13        14        15        16     9        0.000000       -0.668668         1    ;  uncertainty k = 0.655726
        13        14        15        16     9      180.000000       16.028971         2    ;  uncertainty k = 0.596965
        13        14        15        16     9        0.000000       -0.156567         3    ;  uncertainty k = 0.723848
        13        14        15        16     9      180.000000        1.457591         4    ;  uncertainty k = 0.581677
        13        18        17        16     9        0.000000        0.639234         1    ;  uncertainty k = 1.248616
        13        18        17        16     9      180.000000       10.747942         2    ;  uncertainty k = 0.536552
        13        18        17        16     9        0.000000        0.804297         3    ;  uncertainty k = 0.697419
        13        18        17        16     9      180.000000        1.125892         4    ;  uncertainty k = 0.323483
        13        18        20        35     9        0.000000       14.593051         1    ;  uncertainty k = 0.209633
        13        18        20        35     9      180.000000        7.536090         2    ;  uncertainty k = 0.480435
        13        18        20        35     9        0.000000        0.843112         3    ;  uncertainty k = 0.171690
        13        18        20        35     9      180.000000       -0.158198         4    ;  uncertainty k = 0.083436
        13        18        20        36     9        0.000000       14.593051         1    ;  uncertainty k = 0.209633
        13        18        20        36     9      180.000000        7.536090         2    ;  uncertainty k = 0.480435
        13        18        20        36     9        0.000000        0.843112         3    ;  uncertainty k = 0.171690
        13        18        20        36     9      180.000000       -0.158198         4    ;  uncertainty k = 0.083436
        14        13        18        17     9        0.000000       -0.169565         1    ;  uncertainty k = 0.650175
        14        13        18        17     9      180.000000        6.306598         2    ;  uncertainty k = 1.069649
        14        13        18        17     9        0.000000       -0.735520         3    ;  uncertainty k = 0.431633
        14        13        18        17     9      180.000000        0.915234         4    ;  uncertainty k = 0.386854
        14        13        18        20     9        0.000000       -0.926107         1    ;  uncertainty k = 0.854329
        14        13        18        20     9      180.000000        5.536533         2    ;  uncertainty k = 0.443771
        14        13        18        20     9        0.000000        0.510102         3    ;  uncertainty k = 0.403986
        14        13        18        20     9      180.000000        0.765606         4    ;  uncertainty k = 0.216314
        14        15        16        17     9        0.000000       -0.202219         1    ;  uncertainty k = 1.187765
        14        15        16        17     9      180.000000       10.079630         2    ;  uncertainty k = 0.641706
        14        15        16        17     9        0.000000        0.673733         3    ;  uncertainty k = 0.571566
        14        15        16        17     9      180.000000        0.798853         4    ;  uncertainty k = 0.122901
        15        14        13        18     9        0.000000        0.111816         1    ;  uncertainty k = 0.664781
        15        14        13        18     9      180.000000       15.664864         2    ;  uncertainty k = 0.637955
        15        14        13        18     9        0.000000       -0.784994         3    ;  uncertainty k = 0.536319
        15        14        13        18     9      180.000000        0.844123         4    ;  uncertainty k = 0.245709
        15        16        17        18     9        0.000000       -0.796836         1    ;  uncertainty k = 1.334341
        15        16        17        18     9      180.000000        9.590097         2    ;  uncertainty k = 0.490712
        15        16        17        18     9        0.000000        0.978638         3    ;  uncertainty k = 0.429922
        15        16        17        18     9      180.000000        0.681346         4    ;  uncertainty k = 0.139222
        16         1         2        24     9        0.000000       -0.627363         1    ;  uncertainty k = 0.747919
        16         1         2        24     9      180.000000       -0.002450         2    ;  uncertainty k = 0.628919
        16         1         2        24     9        0.000000       -0.171531         3    ;  uncertainty k = 0.229940
        16         1         2        24     9      180.000000        0.276933         4    ;  uncertainty k = 0.052835
        16         1         2        25     9        0.000000       -0.627363         1    ;  uncertainty k = 0.747919
        16         1         2        25     9      180.000000       -0.002450         2    ;  uncertainty k = 0.628919
        16         1         2        25     9        0.000000       -0.171531         3    ;  uncertainty k = 0.229940
        16         1         2        25     9      180.000000        0.276933         4    ;  uncertainty k = 0.052835
        16         1         6        29     9        0.000000       -0.627363         1    ;  uncertainty k = 0.747919
        16         1         6        29     9      180.000000       -0.002450         2    ;  uncertainty k = 0.628919
        16         1         6        29     9        0.000000       -0.171531         3    ;  uncertainty k = 0.229940
        16         1         6        29     9      180.000000        0.276933         4    ;  uncertainty k = 0.052835
        16         1         6        30     9        0.000000       -0.627363         1    ;  uncertainty k = 0.747919
        16         1         6        30     9      180.000000       -0.002450         2    ;  uncertainty k = 0.628919
        16         1         6        30     9        0.000000       -0.171531         3    ;  uncertainty k = 0.229940
        16         1         6        30     9      180.000000        0.276933         4    ;  uncertainty k = 0.052835
        16        15        14        34     9        0.000000       -0.446409         1    ;  uncertainty k = 0.894672
        16        15        14        34     9      180.000000       15.880517         2    ;  uncertainty k = 0.594354
        16        15        14        34     9        0.000000        1.696490         3    ;  uncertainty k = 0.683160
        16        15        14        34     9      180.000000        1.183191         4    ;  uncertainty k = 0.619075
        16        17        18        20     9        0.000000        0.470331         1    ;  uncertainty k = 1.577409
        16        17        18        20     9      180.000000       15.263163         2    ;  uncertainty k = 0.273742
        16        17        18        20     9        0.000000        2.573540         3    ;  uncertainty k = 0.412705
        16        17        18        20     9      180.000000        1.862811         4    ;  uncertainty k = 0.301908
        17        18        20        35     9        0.000000       20.710033         1    ;  uncertainty k = 0.236801
        17        18        20        35     9      180.000000       12.584969         2    ;  uncertainty k = 0.174158
        17        18        20        35     9        0.000000        0.641399         3    ;  uncertainty k = 0.159612
        17        18        20        35     9      180.000000       -0.494298         4    ;  uncertainty k = 0.217440
        17        18        20        36     9        0.000000       20.710033         1    ;  uncertainty k = 0.236801
        17        18        20        36     9      180.000000       12.584969         2    ;  uncertainty k = 0.174158
        17        18        20        36     9        0.000000        0.641399         3    ;  uncertainty k = 0.159612
        17        18        20        36     9      180.000000       -0.494298         4    ;  uncertainty k = 0.217440
        18        13        14        34     9        0.000000       -0.575367         1    ;  uncertainty k = 0.544639
        18        13        14        34     9      180.000000        6.647734         2    ;  uncertainty k = 0.736150
        18        13        14        34     9        0.000000        0.866114         3    ;  uncertainty k = 0.271565
        18        13        14        34     9      180.000000        1.220865         4    ;  uncertainty k = 0.139725
        19         9         8        31     9        0.000000       -0.213547         1    ;  uncertainty k = 0.373063
        19         9         8        31     9      180.000000        7.821171         2    ;  uncertainty k = 0.449499
        19         9         8        31     9        0.000000        0.569548         3    ;  uncertainty k = 0.292177
        19         9         8        31     9      180.000000        1.056673         4    ;  uncertainty k = 0.208988
        19         9        10        23     9        0.000000       -0.059474         1    ;  uncertainty k = 0.739152
        19         9        10        23     9      180.000000        7.126201         2    ;  uncertainty k = 0.263827
        19         9        10        23     9        0.000000        1.247466         3    ;  uncertainty k = 0.316429
        19         9        10        23     9      180.000000        1.328757         4    ;  uncertainty k = 0.196965
        21         3         2        24     9        0.000000       -1.099607         1    ;  uncertainty k = 0.961439
        21         3         2        24     9      180.000000        0.224343         2    ;  uncertainty k = 0.645548
        21         3         2        24     9        0.000000        0.232075         3    ;  uncertainty k = 0.178400
        21         3         2        24     9      180.000000       -0.215070         4    ;  uncertainty k = 0.094837
        21         3         2        25     9        0.000000       -1.099607         1    ;  uncertainty k = 0.961439
        21         3         2        25     9      180.000000        0.224343         2    ;  uncertainty k = 0.645548
        21         3         2        25     9        0.000000        0.232075         3    ;  uncertainty k = 0.178400
        21         3         2        25     9      180.000000       -0.215070         4    ;  uncertainty k = 0.094837
        21         3         4        27     9        0.000000        0.283183         1    ;  uncertainty k = 0.831612
        21         3         4        27     9      180.000000       -0.000328         2    ;  uncertainty k = 0.452533
        21         3         4        27     9        0.000000        0.536443         3    ;  uncertainty k = 0.053747
        21         3         4        27     9      180.000000       -0.055964         4    ;  uncertainty k = 0.106249
        21         3         4        43     9        0.000000        0.283182         1    ;  uncertainty k = 0.831612
        21         3         4        43     9      180.000000       -0.000328         2    ;  uncertainty k = 0.452531
        21         3         4        43     9        0.000000        0.536443         3    ;  uncertainty k = 0.053747
        21         3         4        43     9      180.000000       -0.055964         4    ;  uncertainty k = 0.106249
        22         5         4        27     9        0.000000        0.283183         1    ;  uncertainty k = 0.831612
        22         5         4        27     9      180.000000       -0.000328         2    ;  uncertainty k = 0.452533
        22         5         4        27     9        0.000000        0.536443         3    ;  uncertainty k = 0.053747
        22         5         4        27     9      180.000000       -0.055964         4    ;  uncertainty k = 0.106249
        22         5         4        43     9        0.000000        0.283182         1    ;  uncertainty k = 0.831612
        22         5         4        43     9      180.000000       -0.000328         2    ;  uncertainty k = 0.452531
        22         5         4        43     9        0.000000        0.536443         3    ;  uncertainty k = 0.053747
        22         5         4        43     9      180.000000       -0.055964         4    ;  uncertainty k = 0.106249
        22         5         6        29     9        0.000000       -1.099607         1    ;  uncertainty k = 0.961439
        22         5         6        29     9      180.000000        0.224343         2    ;  uncertainty k = 0.645548
        22         5         6        29     9        0.000000        0.232075         3    ;  uncertainty k = 0.178400
        22         5         6        29     9      180.000000       -0.215070         4    ;  uncertainty k = 0.094837
        22         5         6        30     9        0.000000       -1.099607         1    ;  uncertainty k = 0.961439
        22         5         6        30     9      180.000000        0.224343         2    ;  uncertainty k = 0.645548
        22         5         6        30     9        0.000000        0.232075         3    ;  uncertainty k = 0.178400
        22         5         6        30     9      180.000000       -0.215070         4    ;  uncertainty k = 0.094837
        23        10        11        32     9        0.000000       -0.234876         1    ;  uncertainty k = 0.304568
        23        10        11        32     9      180.000000        7.486499         2    ;  uncertainty k = 0.401087
        23        10        11        32     9        0.000000        0.587022         3    ;  uncertainty k = 0.313031
        23        10        11        32     9      180.000000        0.989727         4    ;  uncertainty k = 0.189717
        24         2         3        26     9        0.000000       -0.089957         1    ;  uncertainty k = 0.391580
        24         2         3        26     9      180.000000        0.488641         2    ;  uncertainty k = 0.388972
        24         2         3        26     9        0.000000       -0.030083         3    ;  uncertainty k = 0.108045
        24         2         3        26     9      180.000000       -0.236342         4    ;  uncertainty k = 0.095087
        25         2         3        26     9        0.000000       -0.089957         1    ;  uncertainty k = 0.391580
        25         2         3        26     9      180.000000        0.488641         2    ;  uncertainty k = 0.388972
        25         2         3        26     9        0.000000       -0.030083         3    ;  uncertainty k = 0.108045
        25         2         3        26     9      180.000000       -0.236342         4    ;  uncertainty k = 0.095087
        26         3         4        27     9        0.000000        1.066204         1    ;  uncertainty k = 0.835752
        26         3         4        27     9      180.000000       -0.767065         2    ;  uncertainty k = 0.346639
        26         3         4        27     9        0.000000        0.067182         3    ;  uncertainty k = 0.187521
        26         3         4        27     9      180.000000        0.020691         4    ;  uncertainty k = 0.123472
        26         3         4        43     9        0.000000        1.066203         1    ;  uncertainty k = 0.835754
        26         3         4        43     9      180.000000       -0.767065         2    ;  uncertainty k = 0.346639
        26         3         4        43     9        0.000000        0.067181         3    ;  uncertainty k = 0.187522
        26         3         4        43     9      180.000000        0.020692         4    ;  uncertainty k = 0.123472
        26         3        21        37     9        0.000000        0.087358         1    ;  uncertainty k = 0.391327
        26         3        21        37     9      180.000000       -0.359821         2    ;  uncertainty k = 0.392956
        26         3        21        37     9        0.000000        0.412504         3    ;  uncertainty k = 0.152817
        26         3        21        37     9      180.000000       -0.099586         4    ;  uncertainty k = 0.152649
        26         3        21        38     9        0.000000        0.087358         1    ;  uncertainty k = 0.391327
        26         3        21        38     9      180.000000       -0.359821         2    ;  uncertainty k = 0.392956
        26         3        21        38     9        0.000000        0.412504         3    ;  uncertainty k = 0.152817
        26         3        21        38     9      180.000000       -0.099586         4    ;  uncertainty k = 0.152649
        26         3        21        39     9        0.000000        0.087358         1    ;  uncertainty k = 0.391327
        26         3        21        39     9      180.000000       -0.359821         2    ;  uncertainty k = 0.392956
        26         3        21        39     9        0.000000        0.412504         3    ;  uncertainty k = 0.152817
        26         3        21        39     9      180.000000       -0.099586         4    ;  uncertainty k = 0.152649
        27         4         5        28     9        0.000000        1.066204         1    ;  uncertainty k = 0.835752
        27         4         5        28     9      180.000000       -0.767065         2    ;  uncertainty k = 0.346639
        27         4         5        28     9        0.000000        0.067182         3    ;  uncertainty k = 0.187521
        27         4         5        28     9      180.000000        0.020691         4    ;  uncertainty k = 0.123472
        28         5         4        43     9        0.000000        1.066203         1    ;  uncertainty k = 0.835754
        28         5         4        43     9      180.000000       -0.767065         2    ;  uncertainty k = 0.346639
        28         5         4        43     9        0.000000        0.067181         3    ;  uncertainty k = 0.187522
        28         5         4        43     9      180.000000        0.020692         4    ;  uncertainty k = 0.123472
        28         5         6        29     9        0.000000       -0.089957         1    ;  uncertainty k = 0.391580
        28         5         6        29     9      180.000000        0.488641         2    ;  uncertainty k = 0.388972
        28         5         6        29     9        0.000000       -0.030083         3    ;  uncertainty k = 0.108045
        28         5         6        29     9      180.000000       -0.236342         4    ;  uncertainty k = 0.095087
        28         5         6        30     9        0.000000       -0.089957         1    ;  uncertainty k = 0.391580
        28         5         6        30     9      180.000000        0.488641         2    ;  uncertainty k = 0.388972
        28         5         6        30     9        0.000000       -0.030083         3    ;  uncertainty k = 0.108045
        28         5         6        30     9      180.000000       -0.236342         4    ;  uncertainty k = 0.095087
        28         5        22        40     9        0.000000        0.087358         1    ;  uncertainty k = 0.391327
        28         5        22        40     9      180.000000       -0.359821         2    ;  uncertainty k = 0.392956
        28         5        22        40     9        0.000000        0.412504         3    ;  uncertainty k = 0.152817
        28         5        22        40     9      180.000000       -0.099586         4    ;  uncertainty k = 0.152649
        28         5        22        41     9        0.000000        0.087358         1    ;  uncertainty k = 0.391327
        28         5        22        41     9      180.000000       -0.359821         2    ;  uncertainty k = 0.392956
        28         5        22        41     9        0.000000        0.412504         3    ;  uncertainty k = 0.152817
        28         5        22        41     9      180.000000       -0.099586         4    ;  uncertainty k = 0.152649
        28         5        22        42     9        0.000000        0.087358         1    ;  uncertainty k = 0.391327
        28         5        22        42     9      180.000000       -0.359821         2    ;  uncertainty k = 0.392956
        28         5        22        42     9        0.000000        0.412504         3    ;  uncertainty k = 0.152817
        28         5        22        42     9      180.000000       -0.099586         4    ;  uncertainty k = 0.152649
        32        11        12        33     9        0.000000       -0.019026         1    ;  uncertainty k = 0.199032
        32        11        12        33     9      180.000000        8.007743         2    ;  uncertainty k = 0.384237
        32        11        12        33     9        0.000000       -0.466845         3    ;  uncertainty k = 0.208858
        32        11        12        33     9      180.000000        0.152413         4    ;  uncertainty k = 0.134281

[ dihedrals ] ; impropers
;       ai        aj        ak        al funct           phase               k        pn
         7         8        12        13     4      180.000000       16.389992         2    ;  uncertainty k = 0.058384
         7        12        13         8     4      180.000000       16.389992         2    ;  uncertainty k = 0.058384
         7        13         8        12     4      180.000000       16.389992         2    ;  uncertainty k = 0.058384
         8         7         9        31     4      180.000000        3.354697         2    ;  uncertainty k = 0.199152
         8         9        31         7     4      180.000000        3.354697         2    ;  uncertainty k = 0.199152
         8        31         7         9     4      180.000000        3.354697         2    ;  uncertainty k = 0.199152
         9         8        10        19     4      180.000000       13.437018         2    ;  uncertainty k = 0.059469
         9        10        19         8     4      180.000000       13.437018         2    ;  uncertainty k = 0.059469
         9        19         8        10     4      180.000000       13.437018         2    ;  uncertainty k = 0.059469
        10         9        11        23     4      180.000000       13.273559         2    ;  uncertainty k = 0.033159
        10        11        23         9     4      180.000000       13.273559         2    ;  uncertainty k = 0.033159
        10        23         9        11     4      180.000000       13.273559         2    ;  uncertainty k = 0.033159
        11        10        12        32     4      180.000000        3.721313         2    ;  uncertainty k = 0.131992
        11        12        32        10     4      180.000000        3.721313         2    ;  uncertainty k = 0.131992
        11        32        10        12     4      180.000000        3.721313         2    ;  uncertainty k = 0.131992
        12         7        11        33     4      180.000000        3.696602         2    ;  uncertainty k = 0.072056
        12        11        33         7     4      180.000000        3.696602         2    ;  uncertainty k = 0.072056
        12        33         7        11     4      180.000000        3.696602         2    ;  uncertainty k = 0.072056
        13         7        14        18     4      180.000000        4.807414         2    ;  uncertainty k = 0.483274
        13        14        18         7     4      180.000000        4.807414         2    ;  uncertainty k = 0.483274
        13        18         7        14     4      180.000000        4.807414         2    ;  uncertainty k = 0.483274
        14        13        15        34     4      180.000000       15.720517         2    ;  uncertainty k = 0.086220
        14        15        34        13     4      180.000000       15.720517         2    ;  uncertainty k = 0.086220
        14        34        13        15     4      180.000000       15.720517         2    ;  uncertainty k = 0.086220
        16         1        15        17     4      180.000000       40.439955         2    ;  uncertainty k = 0.126383
        16        15        17         1     4      180.000000       40.439955         2    ;  uncertainty k = 0.126383
        16        17         1        15     4      180.000000       40.439955         2    ;  uncertainty k = 0.126383
        18        13        17        20     4      180.000000       35.549266         2    ;  uncertainty k = 0.074654
        18        17        20        13     4      180.000000       35.549266         2    ;  uncertainty k = 0.074654
        18        20        13        17     4      180.000000       35.549266         2    ;  uncertainty k = 0.074654
        20        18        35        36     4      180.000000        0.648045         2    ;  uncertainty k = 0.960219
        20        35        36        18     4      180.000000        0.648045         2    ;  uncertainty k = 0.960219
        20        36        18        35     4      180.000000        0.648045         2    ;  uncertainty k = 0.960219

[ pairs ]
;       ai        aj funct
         1         4     1
         1        14     1
         1        18     1
         1        21     1
         1        22     1
         1        26     1
         1        28     1
         2         5     1
         2        15     1
         2        17     1
         2        27     1
         2        29     1
         2        30     1
         2        37     1
         2        38     1
         2        39     1
         2        43     1
         3         6     1
         3        16     1
         3        22     1
         3        28     1
         4        24     1
         4        25     1
         4        29     1
         4        30     1
         4        37     1
         4        38     1
         4        39     1
         4        40     1
         4        41     1
         4        42     1
         5        16     1
         5        21     1
         5        26     1
         6        15     1
         6        17     1
         6        24     1
         6        25     1
         6        27     1
         6        40     1
         6        41     1
         6        42     1
         6        43     1
         7        10     1
         7        15     1
         7        17     1
         7        19     1
         7        20     1
         7        32     1
         7        34     1
         8        11     1
         8        14     1
         8        18     1
         8        23     1
         8        33     1
         9        12     1
         9        13     1
         9        32     1
        10        31     1
        10        33     1
        11        13     1
        11        19     1
        12        14     1
        12        18     1
        12        23     1
        12        31     1
        13        16     1
        13        31     1
        13        33     1
        13        35     1
        13        36     1
        14        17     1
        14        20     1
        15        18     1
        16        20     1
        16        24     1
        16        25     1
        16        29     1
        16        30     1
        16        34     1
        17        35     1
        17        36     1
        18        34     1
        19        23     1
        19        31     1
        21        24     1
        21        25     1
        21        27     1
        21        43     1
        22        27     1
        22        29     1
        22        30     1
        22        43     1
        23        32     1
        24        26     1
        25        26     1
        26        27     1
        26        37     1
        26        38     1
        26        39     1
        26        43     1
        27        28     1
        28        29     1
        28        30     1
        28        40     1
        28        41     1
        28        42     1
        28        43     1
        32        33     1
