; ITP file created by ByteFF-joint-25, 2026-02-17 09:36:15.455782

[ atomtypes ]
;name           bonded.type        at.num        mass        charge   ptype           sigma         epsilon
 n0bf                                   7      0.0000       0.00000       A     3.18976e-01     8.99366e-01    ;  uncertainty sigma = 0.000018, epsilon = 0.003506
 c1bf                                   6      0.0000       0.00000       A     3.39769e-01     4.50314e-01    ;  uncertainty sigma = 0.000016, epsilon = 0.001115
 c2bf                                   6      0.0000       0.00000       A     3.39777e-01     4.51436e-01    ;  uncertainty sigma = 0.000026, epsilon = 0.000485
 c3bf                                   6      0.0000       0.00000       A     3.39851e-01     4.51033e-01    ;  uncertainty sigma = 0.000022, epsilon = 0.002171
 c4bf                                   6      0.0000       0.00000       A     3.39777e-01     4.51436e-01    ;  uncertainty sigma = 0.000026, epsilon = 0.000485
 c5bf                                   6      0.0000       0.00000       A     3.39769e-01     4.50314e-01    ;  uncertainty sigma = 0.000016, epsilon = 0.001115
 c6bf                                   6      0.0000       0.00000       A     3.31544e-01     4.12884e-01    ;  uncertainty sigma = 0.000006, epsilon = 0.000919
 c7bf                                   6      0.0000       0.00000       A     3.31516e-01     4.13405e-01    ;  uncertainty sigma = 0.000011, epsilon = 0.000748
 c8bf                                   6      0.0000       0.00000       A     3.31517e-01     4.13352e-01    ;  uncertainty sigma = 0.000005, epsilon = 0.000514
 c9bf                                   6      0.0000       0.00000       A     3.31517e-01     4.13339e-01    ;  uncertainty sigma = 0.000004, epsilon = 0.000628
 c10bf                                  6      0.0000       0.00000       A     3.31517e-01     4.13337e-01    ;  uncertainty sigma = 0.000004, epsilon = 0.000623
 c11bf                                  6      0.0000       0.00000       A     3.31509e-01     4.13079e-01    ;  uncertainty sigma = 0.000005, epsilon = 0.000621
 c12bf                                  6      0.0000       0.00000       A     3.31562e-01     4.12750e-01    ;  uncertainty sigma = 0.000015, epsilon = 0.001859
 c13bf                                  6      0.0000       0.00000       A     3.31510e-01     4.13299e-01    ;  uncertainty sigma = 0.000009, epsilon = 0.000627
 n14bf                                  7      0.0000       0.00000       A     3.38405e-01     3.93997e-01    ;  uncertainty sigma = 0.000020, epsilon = 0.001343
 c15bf                                  6      0.0000       0.00000       A     3.31540e-01     4.14244e-01    ;  uncertainty sigma = 0.000012, epsilon = 0.001149
 n16bf                                  7      0.0000       0.00000       A     3.38461e-01     3.93887e-01    ;  uncertainty sigma = 0.000038, epsilon = 0.001240
 c17bf                                  6      0.0000       0.00000       A     3.31536e-01     4.12147e-01    ;  uncertainty sigma = 0.000013, epsilon = 0.001746
 cl18bf                                17      0.0000       0.00000       A     3.46639e-01     1.10469e+00    ;  uncertainty sigma = 0.000020, epsilon = 0.001458
 cl19bf                                17      0.0000       0.00000       A     3.46608e-01     1.10488e+00    ;  uncertainty sigma = 0.000013, epsilon = 0.002160
 n20bf                                  7      0.0000       0.00000       A     3.36871e-01     4.68770e-01    ;  uncertainty sigma = 0.000036, epsilon = 0.004307
 n21bf                                  7      0.0000       0.00000       A     2.76899e-01     4.78315e+00    ;  uncertainty sigma = 0.000050, epsilon = 0.017474
 h22bf                                  1      0.0000       0.00000       A     2.42236e-01     8.69701e-02    ;  uncertainty sigma = 0.000029, epsilon = 0.000740
 h23bf                                  1      0.0000       0.00000       A     2.42236e-01     8.69701e-02    ;  uncertainty sigma = 0.000029, epsilon = 0.000740
 h24bf                                  1      0.0000       0.00000       A     2.60041e-01     8.65942e-02    ;  uncertainty sigma = 0.000023, epsilon = 0.000754
 h25bf                                  1      0.0000       0.00000       A     2.60041e-01     8.65942e-02    ;  uncertainty sigma = 0.000023, epsilon = 0.000754
 h26bf                                  1      0.0000       0.00000       A     2.60041e-01     8.65942e-02    ;  uncertainty sigma = 0.000023, epsilon = 0.000754
 h27bf                                  1      0.0000       0.00000       A     2.60041e-01     8.65942e-02    ;  uncertainty sigma = 0.000023, epsilon = 0.000754
 h28bf                                  1      0.0000       0.00000       A     2.42236e-01     8.69701e-02    ;  uncertainty sigma = 0.000029, epsilon = 0.000740
 h29bf                                  1      0.0000       0.00000       A     2.42236e-01     8.69701e-02    ;  uncertainty sigma = 0.000029, epsilon = 0.000740
 h30bf                                  1      0.0000       0.00000       A     2.62556e-01     6.70339e-02    ;  uncertainty sigma = 0.000007, epsilon = 0.000600
 h31bf                                  1      0.0000       0.00000       A     2.62568e-01     6.69665e-02    ;  uncertainty sigma = 0.000007, epsilon = 0.000468
 h32bf                                  1      0.0000       0.00000       A     2.62564e-01     6.70394e-02    ;  uncertainty sigma = 0.000010, epsilon = 0.000469
 h33bf                                  1      0.0000       0.00000       A     1.10708e-01     4.10128e-02    ;  uncertainty sigma = 0.000183, epsilon = 0.000898
 h34bf                                  1      0.0000       0.00000       A     1.10708e-01     4.10128e-02    ;  uncertainty sigma = 0.000183, epsilon = 0.000898
 h35bf                                  1      0.0000       0.00000       A     1.10718e-01     4.12967e-02    ;  uncertainty sigma = 0.000085, epsilon = 0.000435
 h36bf                                  1      0.0000       0.00000       A     2.53681e-01     6.68791e-02    ;  uncertainty sigma = 0.000034, epsilon = 0.000846
 h37bf                                  1      0.0000       0.00000       A     1.88761e-01     8.67457e-02    ;  uncertainty sigma = 0.000162, epsilon = 0.001321
 h38bf                                  1      0.0000       0.00000       A     1.10718e-01     4.12967e-02    ;  uncertainty sigma = 0.000085, epsilon = 0.000435
 h39bf                                  1      0.0000       0.00000       A     1.10708e-01     4.10128e-02    ;  uncertainty sigma = 0.000183, epsilon = 0.000898

[ moleculetype ]
;name             nrexcl
 MOL                   3

[ atoms ]
;       nr            type      resi   res      atom      cgnr      charge          mass ; qtot
         1            n0bf         1   UNL        n0         1    -0.77975       14.0070 ; qtot   -0.780
         2            c1bf         1   UNL        c1         2     0.22995       12.0110 ; qtot   -0.550
         3            c2bf         1   UNL        c2         3    -0.11835       12.0110 ; qtot   -0.668
         4            c3bf         1   UNL        c3         4     0.16106       12.0110 ; qtot   -0.507
         5            c4bf         1   UNL        c4         5    -0.11835       12.0110 ; qtot   -0.625
         6            c5bf         1   UNL        c5         6     0.22995       12.0110 ; qtot   -0.395
         7            c6bf         1   UNL        c6         7    -0.00236       12.0110 ; qtot   -0.398
         8            c7bf         1   UNL        c7         8     0.03905       12.0110 ; qtot   -0.359
         9            c8bf         1   UNL        c8         9     0.02984       12.0110 ; qtot   -0.329
        10            c9bf         1   UNL        c9        10    -0.10811       12.0110 ; qtot   -0.437
        11           c10bf         1   UNL       c10        11    -0.11758       12.0110 ; qtot   -0.555
        12           c11bf         1   UNL       c11        12    -0.11056       12.0110 ; qtot   -0.665
        13           c12bf         1   UNL       c12        13    -0.38191       12.0110 ; qtot   -1.047
        14           c13bf         1   UNL       c13        14     0.50957       12.0110 ; qtot   -0.538
        15           n14bf         1   UNL       n14        15    -0.79558       14.0070 ; qtot   -1.333
        16           c15bf         1   UNL       c15        16     0.93417       12.0110 ; qtot   -0.399
        17           n16bf         1   UNL       n16        17    -0.85387       14.0070 ; qtot   -1.253
        18           c17bf         1   UNL       c17        18     0.72606       12.0110 ; qtot   -0.527
        19          cl18bf         1   UNL      cl18        19    -0.08432       35.4530 ; qtot   -0.611
        20          cl19bf         1   UNL      cl19        20    -0.08434       35.4530 ; qtot   -0.695
        21           n20bf         1   UNL       n20        21    -0.92216       14.0070 ; qtot   -1.618
        22           n21bf         1   UNL       n21        22    -0.86238       14.0070 ; qtot   -2.480
        23           h22bf         1   UNL       h22        23     0.07821        1.0080 ; qtot   -2.402
        24           h23bf         1   UNL       h23        24     0.07821        1.0080 ; qtot   -2.324
        25           h24bf         1   UNL       h24        25     0.08459        1.0080 ; qtot   -2.239
        26           h25bf         1   UNL       h25        26     0.08459        1.0080 ; qtot   -2.154
        27           h26bf         1   UNL       h26        27     0.08459        1.0080 ; qtot   -2.070
        28           h27bf         1   UNL       h27        28     0.08459        1.0080 ; qtot   -1.985
        29           h28bf         1   UNL       h28        29     0.07821        1.0080 ; qtot   -1.907
        30           h29bf         1   UNL       h29        30     0.07821        1.0080 ; qtot   -1.829
        31           h30bf         1   UNL       h30        31     0.15499        1.0080 ; qtot   -1.674
        32           h31bf         1   UNL       h31        32     0.14427        1.0080 ; qtot   -1.530
        33           h32bf         1   UNL       h32        33     0.14475        1.0080 ; qtot   -1.385
        34           h33bf         1   UNL       h33        34     0.46606        1.0080 ; qtot   -0.919
        35           h34bf         1   UNL       h34        35     0.46606        1.0080 ; qtot   -0.453
        36           h35bf         1   UNL       h35        36     0.42318        1.0080 ; qtot   -0.029
        37           h36bf         1   UNL       h36        37     0.02442        1.0080 ; qtot   -0.005
        38           h37bf         1   UNL       h37        38     0.11577        1.0080 ; qtot    0.111
        39           h38bf         1   UNL       h38        39     0.42318        1.0080 ; qtot    0.534
        40           h39bf         1   UNL       h39        40     0.46609        1.0080 ; qtot    1.000

[ bonds ]
;       ai        aj funct               r               k
         1         2     1        0.145118   249276.151855    ;  uncertainty r = 0.000191, k = 13.663608
         1         6     1        0.145118   249276.151855    ;  uncertainty r = 0.000191, k = 13.663608
         1        16     1        0.138488   308109.923438    ;  uncertainty r = 0.000568, k = 22.635811
         2         3     1        0.154318   209914.834766    ;  uncertainty r = 0.000183, k = 13.961420
         2        23     1        0.109459   306825.508984    ;  uncertainty r = 0.000040, k = 1.821578
         2        24     1        0.109459   306825.508984    ;  uncertainty r = 0.000040, k = 1.821578
         3         4     1        0.153232   205107.525000    ;  uncertainty r = 0.000148, k = 11.513620
         3        25     1        0.109554   310863.283496    ;  uncertainty r = 0.000032, k = 2.687163
         3        26     1        0.109554   310863.283496    ;  uncertainty r = 0.000032, k = 2.687163
         4         5     1        0.153232   205107.525000    ;  uncertainty r = 0.000148, k = 11.513620
         4        22     1        0.153299   206083.004272    ;  uncertainty r = 0.000126, k = 16.901330
         4        38     1        0.109198   313384.843213    ;  uncertainty r = 0.000045, k = 4.493688
         5         6     1        0.154318   209914.834766    ;  uncertainty r = 0.000183, k = 13.961420
         5        27     1        0.109554   310863.283496    ;  uncertainty r = 0.000032, k = 2.687163
         5        28     1        0.109554   310863.283496    ;  uncertainty r = 0.000032, k = 2.687163
         6        29     1        0.109459   306825.508984    ;  uncertainty r = 0.000040, k = 1.821578
         6        30     1        0.109459   306825.508984    ;  uncertainty r = 0.000040, k = 1.821578
         7         8     1        0.140429   333897.985986    ;  uncertainty r = 0.000054, k = 5.714440
         7        12     1        0.140308   347052.508545    ;  uncertainty r = 0.000078, k = 3.464620
         7        13     1        0.148039   290467.100684    ;  uncertainty r = 0.000178, k = 8.335935
         8         9     1        0.140128   340452.493701    ;  uncertainty r = 0.000048, k = 1.609083
         8        20     1        0.174433   187283.580298    ;  uncertainty r = 0.000095, k = 4.003621
         9        10     1        0.139452   364547.190527    ;  uncertainty r = 0.000024, k = 3.123751
         9        19     1        0.174657   190992.449609    ;  uncertainty r = 0.000061, k = 2.464953
        10        11     1        0.139288   379463.467187    ;  uncertainty r = 0.000019, k = 0.532740
        10        31     1        0.108658   335617.322949    ;  uncertainty r = 0.000011, k = 0.544911
        11        12     1        0.139326   372187.280762    ;  uncertainty r = 0.000011, k = 0.917764
        11        32     1        0.108742   332867.180566    ;  uncertainty r = 0.000010, k = 1.148117
        12        33     1        0.108740   333988.489502    ;  uncertainty r = 0.000014, k = 1.635846
        13        14     1        0.140148   415850.630371    ;  uncertainty r = 0.000058, k = 21.561237
        13        18     1        0.142468   435436.827148    ;  uncertainty r = 0.000146, k = 25.675877
        14        15     1        0.134349   424378.135156    ;  uncertainty r = 0.000314, k = 14.939532
        14        37     1        0.108839   326187.668701    ;  uncertainty r = 0.000016, k = 4.409346
        15        16     1        0.136231   473058.913867    ;  uncertainty r = 0.000131, k = 8.961140
        16        17     1        0.137045   459532.162402    ;  uncertainty r = 0.000097, k = 20.238256
        17        18     1        0.137136   553885.550488    ;  uncertainty r = 0.000345, k = 18.138846
        18        21     1        0.141147   543861.979688    ;  uncertainty r = 0.000306, k = 32.823378
        21        36     1        0.101885   428718.371191    ;  uncertainty r = 0.000039, k = 2.239561
        21        39     1        0.101885   428718.371191    ;  uncertainty r = 0.000039, k = 2.239561
        22        34     1        0.102919   407318.733203    ;  uncertainty r = 0.000041, k = 3.503008
        22        35     1        0.102919   407318.733203    ;  uncertainty r = 0.000041, k = 3.503008
        22        40     1        0.102919   407318.733203    ;  uncertainty r = 0.000041, k = 3.503013

[ angles ]
;       ai        aj        ak funct           theta             cth
         1         2         3     1      109.460289      695.934049    ;  uncertainty theta = 0.001220, k = 0.179890
         1         2        23     1      106.442055      459.681950    ;  uncertainty theta = 0.002367, k = 0.083481
         1         2        24     1      106.442055      459.681950    ;  uncertainty theta = 0.002367, k = 0.083481
         1         6         5     1      109.460289      695.934049    ;  uncertainty theta = 0.001220, k = 0.179890
         1         6        29     1      106.442055      459.681950    ;  uncertainty theta = 0.002367, k = 0.083481
         1         6        30     1      106.442055      459.681950    ;  uncertainty theta = 0.002367, k = 0.083481
         1        16        15     1      119.840714      557.773626    ;  uncertainty theta = 0.007333, k = 0.190632
         1        16        17     1      120.014359      596.317552    ;  uncertainty theta = 0.005750, k = 0.183349
         2         1         6     1      108.136864      420.431030    ;  uncertainty theta = 0.014196, k = 0.120345
         2         1        16     1      110.225052      434.869233    ;  uncertainty theta = 0.006244, k = 0.101596
         2         3         4     1      109.648827      563.941477    ;  uncertainty theta = 0.004624, k = 0.170708
         2         3        25     1      108.380333      396.113765    ;  uncertainty theta = 0.001180, k = 0.116081
         2         3        26     1      108.380333      396.113765    ;  uncertainty theta = 0.001180, k = 0.116081
         3         2        23     1      108.999222      418.535155    ;  uncertainty theta = 0.003317, k = 0.068933
         3         2        24     1      108.999222      418.535155    ;  uncertainty theta = 0.003317, k = 0.068933
         3         4         5     1      111.395851      594.935803    ;  uncertainty theta = 0.007722, k = 0.243221
         3         4        22     1      109.889343      702.436563    ;  uncertainty theta = 0.005225, k = 0.229365
         3         4        38     1      110.711197      403.650181    ;  uncertainty theta = 0.003805, k = 0.061749
         4         3        25     1      107.825485      405.047827    ;  uncertainty theta = 0.002259, k = 0.113087
         4         3        26     1      107.825485      405.047827    ;  uncertainty theta = 0.002259, k = 0.113087
         4         5         6     1      109.648827      563.941477    ;  uncertainty theta = 0.004624, k = 0.170708
         4         5        27     1      107.825485      405.047827    ;  uncertainty theta = 0.002259, k = 0.113087
         4         5        28     1      107.825485      405.047827    ;  uncertainty theta = 0.002259, k = 0.113087
         4        22        34     1      110.151428      419.757712    ;  uncertainty theta = 0.003917, k = 0.134632
         4        22        35     1      110.151428      419.757712    ;  uncertainty theta = 0.003917, k = 0.134632
         4        22        40     1      110.151428      419.757712    ;  uncertainty theta = 0.003917, k = 0.134632
         5         4        22     1      109.889343      702.436563    ;  uncertainty theta = 0.005225, k = 0.229365
         5         4        38     1      110.711197      403.650181    ;  uncertainty theta = 0.003805, k = 0.061749
         5         6        29     1      108.999222      418.535155    ;  uncertainty theta = 0.003317, k = 0.068933
         5         6        30     1      108.999222      418.535155    ;  uncertainty theta = 0.003317, k = 0.068933
         6         1        16     1      110.225052      434.869233    ;  uncertainty theta = 0.006244, k = 0.101596
         6         5        27     1      108.380333      396.113765    ;  uncertainty theta = 0.001180, k = 0.116081
         6         5        28     1      108.380333      396.113765    ;  uncertainty theta = 0.001180, k = 0.116081
         7         8         9     1      123.806595      370.654575    ;  uncertainty theta = 0.003909, k = 0.241726
         7         8        20     1      117.947044      417.111557    ;  uncertainty theta = 0.003602, k = 0.105794
         7        12        11     1      121.123550      523.746609    ;  uncertainty theta = 0.001876, k = 0.071020
         7        12        33     1      118.550636      276.208641    ;  uncertainty theta = 0.002834, k = 0.073302
         7        13        14     1      123.380577      402.723184    ;  uncertainty theta = 0.004881, k = 0.230222
         7        13        18     1      121.296646      351.690239    ;  uncertainty theta = 0.004020, k = 0.355657
         8         7        12     1      121.064842      395.754841    ;  uncertainty theta = 0.002834, k = 0.243733
         8         7        13     1      120.830795      383.388591    ;  uncertainty theta = 0.006479, k = 0.176899
         8         9        10     1      121.616013      353.425103    ;  uncertainty theta = 0.003641, k = 0.137799
         8         9        19     1      120.540298      453.094142    ;  uncertainty theta = 0.001524, k = 0.111136
         9         8        20     1      120.212685      454.993050    ;  uncertainty theta = 0.002574, k = 0.111788
         9        10        11     1      118.528542      504.617048    ;  uncertainty theta = 0.003207, k = 0.070711
         9        10        31     1      119.966553      282.454411    ;  uncertainty theta = 0.002324, k = 0.079692
        10         9        19     1      120.286354      456.044413    ;  uncertainty theta = 0.002060, k = 0.119008
        10        11        12     1      119.409912      508.564574    ;  uncertainty theta = 0.002263, k = 0.038897
        10        11        32     1      120.063889      285.082084    ;  uncertainty theta = 0.000495, k = 0.022586
        11        10        31     1      121.400040      282.032538    ;  uncertainty theta = 0.001563, k = 0.013158
        11        12        33     1      120.689560      293.587538    ;  uncertainty theta = 0.000920, k = 0.056040
        12         7        13     1      122.426003      429.947019    ;  uncertainty theta = 0.006004, k = 0.145382
        12        11        32     1      120.405472      283.929530    ;  uncertainty theta = 0.000709, k = 0.032108
        13        14        15     1      124.068359      718.335776    ;  uncertainty theta = 0.002673, k = 0.164754
        13        14        37     1      119.538536      262.864017    ;  uncertainty theta = 0.003737, k = 0.141356
        13        18        17     1      122.303299      540.857143    ;  uncertainty theta = 0.008002, k = 0.155119
        13        18        21     1      125.345169      512.932058    ;  uncertainty theta = 0.003371, k = 0.195410
        14        13        18     1      117.095749      438.004775    ;  uncertainty theta = 0.015230, k = 0.894267
        14        15        16     1      115.553734      414.220246    ;  uncertainty theta = 0.006755, k = 0.240495
        15        14        37     1      116.537865      323.396782    ;  uncertainty theta = 0.004078, k = 0.146978
        15        16        17     1      128.528290      730.251199    ;  uncertainty theta = 0.003716, k = 0.077391
        16        17        18     1      122.433701      478.394938    ;  uncertainty theta = 0.005735, k = 0.203370
        17        18        21     1      125.528793      903.169415    ;  uncertainty theta = 0.004935, k = 0.070068
        18        21        36     1      118.192429      415.370341    ;  uncertainty theta = 0.001830, k = 0.144657
        18        21        39     1      118.192444      415.370341    ;  uncertainty theta = 0.001830, k = 0.144657
        22         4        38     1      102.808273      449.513137    ;  uncertainty theta = 0.005397, k = 0.186408
        23         2        24     1      105.528908      324.242635    ;  uncertainty theta = 0.002212, k = 0.073433
        25         3        26     1      105.794815      312.560748    ;  uncertainty theta = 0.001704, k = 0.074496
        27         5        28     1      105.794815      312.560748    ;  uncertainty theta = 0.001704, k = 0.074496
        29         6        30     1      105.528908      324.242635    ;  uncertainty theta = 0.002212, k = 0.073433
        34        22        35     1      108.205833      374.960866    ;  uncertainty theta = 0.002335, k = 0.132332
        34        22        40     1      108.205833      374.960866    ;  uncertainty theta = 0.002335, k = 0.132332
        35        22        40     1      108.205833      374.960866    ;  uncertainty theta = 0.002335, k = 0.132332
        36        21        39     1      107.953087      275.511605    ;  uncertainty theta = 0.001193, k = 0.067996

[ dihedrals ] ; propers for gromacs 4.5 or higher, use funct 9
;       ai        aj        ak        al funct           phase               k        pn
         1         2         3         4     9        0.000000        2.855045         1    ;  uncertainty k = 0.982936
         1         2         3         4     9      180.000000       -3.617146         2    ;  uncertainty k = 0.984082
         1         2         3         4     9        0.000000        2.045059         3    ;  uncertainty k = 0.142080
         1         2         3         4     9      180.000000       -0.548711         4    ;  uncertainty k = 0.338178
         1         2         3        25     9        0.000000       -1.994848         1    ;  uncertainty k = 0.967230
         1         2         3        25     9      180.000000        0.318607         2    ;  uncertainty k = 0.398003
         1         2         3        25     9        0.000000        1.321530         3    ;  uncertainty k = 0.337547
         1         2         3        25     9      180.000000       -0.260109         4    ;  uncertainty k = 0.074181
         1         2         3        26     9        0.000000       -1.994848         1    ;  uncertainty k = 0.967230
         1         2         3        26     9      180.000000        0.318607         2    ;  uncertainty k = 0.398003
         1         2         3        26     9        0.000000        1.321530         3    ;  uncertainty k = 0.337547
         1         2         3        26     9      180.000000       -0.260109         4    ;  uncertainty k = 0.074181
         1         6         5         4     9        0.000000        2.855045         1    ;  uncertainty k = 0.982936
         1         6         5         4     9      180.000000       -3.617146         2    ;  uncertainty k = 0.984082
         1         6         5         4     9        0.000000        2.045059         3    ;  uncertainty k = 0.142080
         1         6         5         4     9      180.000000       -0.548711         4    ;  uncertainty k = 0.338178
         1         6         5        27     9        0.000000       -1.994848         1    ;  uncertainty k = 0.967230
         1         6         5        27     9      180.000000        0.318607         2    ;  uncertainty k = 0.398003
         1         6         5        27     9        0.000000        1.321530         3    ;  uncertainty k = 0.337547
         1         6         5        27     9      180.000000       -0.260109         4    ;  uncertainty k = 0.074181
         1         6         5        28     9        0.000000       -1.994848         1    ;  uncertainty k = 0.967230
         1         6         5        28     9      180.000000        0.318607         2    ;  uncertainty k = 0.398003
         1         6         5        28     9        0.000000        1.321530         3    ;  uncertainty k = 0.337547
         1         6         5        28     9      180.000000       -0.260109         4    ;  uncertainty k = 0.074181
         1        16        15        14     9        0.000000        0.803470         1    ;  uncertainty k = 1.749365
         1        16        15        14     9      180.000000        9.911519         2    ;  uncertainty k = 0.145400
         1        16        15        14     9        0.000000        1.535107         3    ;  uncertainty k = 0.605840
         1        16        15        14     9      180.000000        0.776700         4    ;  uncertainty k = 0.181200
         1        16        17        18     9        0.000000        0.743741         1    ;  uncertainty k = 1.165359
         1        16        17        18     9      180.000000        9.954223         2    ;  uncertainty k = 0.523176
         1        16        17        18     9        0.000000        1.557978         3    ;  uncertainty k = 0.323090
         1        16        17        18     9      180.000000        0.782879         4    ;  uncertainty k = 0.265131
         2         1         6         5     9        0.000000       -6.227616         1    ;  uncertainty k = 2.495126
         2         1         6         5     9      180.000000        1.168863         2    ;  uncertainty k = 0.689624
         2         1         6         5     9        0.000000        1.267064         3    ;  uncertainty k = 0.314026
         2         1         6         5     9      180.000000       -0.440089         4    ;  uncertainty k = 0.186240
         2         1         6        29     9        0.000000       -6.120808         1    ;  uncertainty k = 1.799902
         2         1         6        29     9      180.000000        1.015407         2    ;  uncertainty k = 0.510947
         2         1         6        29     9        0.000000        0.862112         3    ;  uncertainty k = 0.063277
         2         1         6        29     9      180.000000       -0.079630         4    ;  uncertainty k = 0.055782
         2         1         6        30     9        0.000000       -6.120808         1    ;  uncertainty k = 1.799902
         2         1         6        30     9      180.000000        1.015407         2    ;  uncertainty k = 0.510947
         2         1         6        30     9        0.000000        0.862112         3    ;  uncertainty k = 0.063277
         2         1         6        30     9      180.000000       -0.079630         4    ;  uncertainty k = 0.055782
         2         1        16        15     9        0.000000        4.980382         1    ;  uncertainty k = 1.139507
         2         1        16        15     9      180.000000       11.197502         2    ;  uncertainty k = 0.122612
         2         1        16        15     9        0.000000        0.468137         3    ;  uncertainty k = 0.240831
         2         1        16        15     9      180.000000       -0.171932         4    ;  uncertainty k = 0.118324
         2         1        16        17     9        0.000000        6.617054         1    ;  uncertainty k = 0.904132
         2         1        16        17     9      180.000000       11.314578         2    ;  uncertainty k = 0.113071
         2         1        16        17     9        0.000000        0.485557         3    ;  uncertainty k = 0.163097
         2         1        16        17     9      180.000000       -0.209564         4    ;  uncertainty k = 0.121387
         2         3         4         5     9        0.000000       -4.998867         1    ;  uncertainty k = 1.082045
         2         3         4         5     9      180.000000        1.408497         2    ;  uncertainty k = 0.799566
         2         3         4         5     9        0.000000        1.289945         3    ;  uncertainty k = 0.241953
         2         3         4         5     9      180.000000       -1.058191         4    ;  uncertainty k = 0.202220
         2         3         4        22     9        0.000000       -5.327426         1    ;  uncertainty k = 0.977518
         2         3         4        22     9      180.000000       -1.044025         2    ;  uncertainty k = 1.653837
         2         3         4        22     9        0.000000        1.472133         3    ;  uncertainty k = 0.443331
         2         3         4        22     9      180.000000       -0.035531         4    ;  uncertainty k = 0.141119
         2         3         4        38     9        0.000000       -2.216430         1    ;  uncertainty k = 0.771686
         2         3         4        38     9      180.000000        0.323806         2    ;  uncertainty k = 0.816333
         2         3         4        38     9        0.000000        0.299062         3    ;  uncertainty k = 0.291112
         2         3         4        38     9      180.000000       -0.160274         4    ;  uncertainty k = 0.134862
         3         2         1         6     9        0.000000       -6.227616         1    ;  uncertainty k = 2.495126
         3         2         1         6     9      180.000000        1.168863         2    ;  uncertainty k = 0.689624
         3         2         1         6     9        0.000000        1.267064         3    ;  uncertainty k = 0.314026
         3         2         1         6     9      180.000000       -0.440089         4    ;  uncertainty k = 0.186240
         3         2         1        16     9        0.000000       -3.326846         1    ;  uncertainty k = 1.442270
         3         2         1        16     9      180.000000        0.736765         2    ;  uncertainty k = 0.559844
         3         2         1        16     9        0.000000        0.119860         3    ;  uncertainty k = 0.203368
         3         2         1        16     9      180.000000        0.255859         4    ;  uncertainty k = 0.174579
         3         4         5         6     9        0.000000       -4.998867         1    ;  uncertainty k = 1.082045
         3         4         5         6     9      180.000000        1.408497         2    ;  uncertainty k = 0.799566
         3         4         5         6     9        0.000000        1.289945         3    ;  uncertainty k = 0.241953
         3         4         5         6     9      180.000000       -1.058191         4    ;  uncertainty k = 0.202220
         3         4         5        27     9        0.000000       -1.390367         1    ;  uncertainty k = 0.220993
         3         4         5        27     9      180.000000       -0.176044         2    ;  uncertainty k = 0.063996
         3         4         5        27     9        0.000000        0.256886         3    ;  uncertainty k = 0.163355
         3         4         5        27     9      180.000000       -0.104588         4    ;  uncertainty k = 0.040418
         3         4         5        28     9        0.000000       -1.390367         1    ;  uncertainty k = 0.220993
         3         4         5        28     9      180.000000       -0.176044         2    ;  uncertainty k = 0.063996
         3         4         5        28     9        0.000000        0.256886         3    ;  uncertainty k = 0.163355
         3         4         5        28     9      180.000000       -0.104588         4    ;  uncertainty k = 0.040418
         3         4        22        34     9        0.000000       -0.240625         1    ;  uncertainty k = 1.116187
         3         4        22        34     9      180.000000       -0.206837         2    ;  uncertainty k = 0.341737
         3         4        22        34     9        0.000000        0.886234         3    ;  uncertainty k = 0.145058
         3         4        22        34     9      180.000000       -0.086348         4    ;  uncertainty k = 0.106902
         3         4        22        35     9        0.000000       -0.240625         1    ;  uncertainty k = 1.116187
         3         4        22        35     9      180.000000       -0.206837         2    ;  uncertainty k = 0.341737
         3         4        22        35     9        0.000000        0.886234         3    ;  uncertainty k = 0.145058
         3         4        22        35     9      180.000000       -0.086348         4    ;  uncertainty k = 0.106902
         3         4        22        40     9        0.000000       -0.240625         1    ;  uncertainty k = 1.116187
         3         4        22        40     9      180.000000       -0.206837         2    ;  uncertainty k = 0.341737
         3         4        22        40     9        0.000000        0.886234         3    ;  uncertainty k = 0.145058
         3         4        22        40     9      180.000000       -0.086348         4    ;  uncertainty k = 0.106902
         4         3         2        23     9        0.000000        1.938775         1    ;  uncertainty k = 1.205397
         4         3         2        23     9      180.000000       -2.613487         2    ;  uncertainty k = 0.397191
         4         3         2        23     9        0.000000        0.126736         3    ;  uncertainty k = 0.131089
         4         3         2        23     9      180.000000        0.200645         4    ;  uncertainty k = 0.031430
         4         3         2        24     9        0.000000        1.938775         1    ;  uncertainty k = 1.205397
         4         3         2        24     9      180.000000       -2.613487         2    ;  uncertainty k = 0.397191
         4         3         2        24     9        0.000000        0.126736         3    ;  uncertainty k = 0.131089
         4         3         2        24     9      180.000000        0.200645         4    ;  uncertainty k = 0.031430
         4         5         6        29     9        0.000000        1.938775         1    ;  uncertainty k = 1.205397
         4         5         6        29     9      180.000000       -2.613487         2    ;  uncertainty k = 0.397191
         4         5         6        29     9        0.000000        0.126736         3    ;  uncertainty k = 0.131089
         4         5         6        29     9      180.000000        0.200645         4    ;  uncertainty k = 0.031430
         4         5         6        30     9        0.000000        1.938775         1    ;  uncertainty k = 1.205397
         4         5         6        30     9      180.000000       -2.613487         2    ;  uncertainty k = 0.397191
         4         5         6        30     9        0.000000        0.126736         3    ;  uncertainty k = 0.131089
         4         5         6        30     9      180.000000        0.200645         4    ;  uncertainty k = 0.031430
         5         4         3        25     9        0.000000       -1.390367         1    ;  uncertainty k = 0.220993
         5         4         3        25     9      180.000000       -0.176044         2    ;  uncertainty k = 0.063996
         5         4         3        25     9        0.000000        0.256886         3    ;  uncertainty k = 0.163355
         5         4         3        25     9      180.000000       -0.104588         4    ;  uncertainty k = 0.040418
         5         4         3        26     9        0.000000       -1.390367         1    ;  uncertainty k = 0.220993
         5         4         3        26     9      180.000000       -0.176044         2    ;  uncertainty k = 0.063996
         5         4         3        26     9        0.000000        0.256886         3    ;  uncertainty k = 0.163355
         5         4         3        26     9      180.000000       -0.104588         4    ;  uncertainty k = 0.040418
         5         4        22        34     9        0.000000       -0.240625         1    ;  uncertainty k = 1.116187
         5         4        22        34     9      180.000000       -0.206837         2    ;  uncertainty k = 0.341737
         5         4        22        34     9        0.000000        0.886234         3    ;  uncertainty k = 0.145058
         5         4        22        34     9      180.000000       -0.086348         4    ;  uncertainty k = 0.106902
         5         4        22        35     9        0.000000       -0.240625         1    ;  uncertainty k = 1.116187
         5         4        22        35     9      180.000000       -0.206837         2    ;  uncertainty k = 0.341737
         5         4        22        35     9        0.000000        0.886234         3    ;  uncertainty k = 0.145058
         5         4        22        35     9      180.000000       -0.086348         4    ;  uncertainty k = 0.106902
         5         4        22        40     9        0.000000       -0.240625         1    ;  uncertainty k = 1.116187
         5         4        22        40     9      180.000000       -0.206837         2    ;  uncertainty k = 0.341737
         5         4        22        40     9        0.000000        0.886234         3    ;  uncertainty k = 0.145058
         5         4        22        40     9      180.000000       -0.086348         4    ;  uncertainty k = 0.106902
         5         6         1        16     9        0.000000       -3.326846         1    ;  uncertainty k = 1.442270
         5         6         1        16     9      180.000000        0.736765         2    ;  uncertainty k = 0.559844
         5         6         1        16     9        0.000000        0.119860         3    ;  uncertainty k = 0.203368
         5         6         1        16     9      180.000000        0.255859         4    ;  uncertainty k = 0.174579
         6         1         2        23     9        0.000000       -6.120808         1    ;  uncertainty k = 1.799902
         6         1         2        23     9      180.000000        1.015407         2    ;  uncertainty k = 0.510947
         6         1         2        23     9        0.000000        0.862112         3    ;  uncertainty k = 0.063277
         6         1         2        23     9      180.000000       -0.079630         4    ;  uncertainty k = 0.055782
         6         1         2        24     9        0.000000       -6.120808         1    ;  uncertainty k = 1.799902
         6         1         2        24     9      180.000000        1.015407         2    ;  uncertainty k = 0.510947
         6         1         2        24     9        0.000000        0.862112         3    ;  uncertainty k = 0.063277
         6         1         2        24     9      180.000000       -0.079630         4    ;  uncertainty k = 0.055782
         6         1        16        15     9        0.000000        4.980382         1    ;  uncertainty k = 1.139507
         6         1        16        15     9      180.000000       11.197502         2    ;  uncertainty k = 0.122612
         6         1        16        15     9        0.000000        0.468137         3    ;  uncertainty k = 0.240831
         6         1        16        15     9      180.000000       -0.171932         4    ;  uncertainty k = 0.118324
         6         1        16        17     9        0.000000        6.617054         1    ;  uncertainty k = 0.904132
         6         1        16        17     9      180.000000       11.314578         2    ;  uncertainty k = 0.113071
         6         1        16        17     9        0.000000        0.485557         3    ;  uncertainty k = 0.163097
         6         1        16        17     9      180.000000       -0.209564         4    ;  uncertainty k = 0.121387
         6         5         4        22     9        0.000000       -5.327426         1    ;  uncertainty k = 0.977518
         6         5         4        22     9      180.000000       -1.044025         2    ;  uncertainty k = 1.653837
         6         5         4        22     9        0.000000        1.472133         3    ;  uncertainty k = 0.443331
         6         5         4        22     9      180.000000       -0.035531         4    ;  uncertainty k = 0.141119
         6         5         4        38     9        0.000000       -2.216430         1    ;  uncertainty k = 0.771686
         6         5         4        38     9      180.000000        0.323806         2    ;  uncertainty k = 0.816333
         6         5         4        38     9        0.000000        0.299062         3    ;  uncertainty k = 0.291112
         6         5         4        38     9      180.000000       -0.160274         4    ;  uncertainty k = 0.134862
         7         8         9        10     9        0.000000       -0.280569         1    ;  uncertainty k = 0.284044
         7         8         9        10     9      180.000000        5.850053         2    ;  uncertainty k = 0.879436
         7         8         9        10     9        0.000000        0.565188         3    ;  uncertainty k = 0.156899
         7         8         9        10     9      180.000000        1.337050         4    ;  uncertainty k = 0.379094
         7         8         9        19     9        0.000000        0.100581         1    ;  uncertainty k = 0.174765
         7         8         9        19     9      180.000000        6.825309         2    ;  uncertainty k = 0.560726
         7         8         9        19     9        0.000000        1.450533         3    ;  uncertainty k = 0.273302
         7         8         9        19     9      180.000000        1.763537         4    ;  uncertainty k = 0.144408
         7        12        11        10     9        0.000000        0.010412         1    ;  uncertainty k = 0.163455
         7        12        11        10     9      180.000000       14.013986         2    ;  uncertainty k = 0.303637
         7        12        11        10     9        0.000000       -0.950179         3    ;  uncertainty k = 0.533633
         7        12        11        10     9      180.000000        0.721825         4    ;  uncertainty k = 0.233739
         7        12        11        32     9        0.000000        0.073261         1    ;  uncertainty k = 0.152052
         7        12        11        32     9      180.000000        7.235133         2    ;  uncertainty k = 0.306290
         7        12        11        32     9        0.000000        1.368173         3    ;  uncertainty k = 0.187513
         7        12        11        32     9      180.000000        1.804347         4    ;  uncertainty k = 0.097338
         7        13        14        15     9        0.000000        0.315909         1    ;  uncertainty k = 0.448325
         7        13        14        15     9      180.000000       12.719448         2    ;  uncertainty k = 0.433578
         7        13        14        15     9        0.000000        0.978741         3    ;  uncertainty k = 0.324248
         7        13        14        15     9      180.000000        1.417456         4    ;  uncertainty k = 0.268773
         7        13        14        37     9        0.000000       -0.577190         1    ;  uncertainty k = 0.710967
         7        13        14        37     9      180.000000        6.650512         2    ;  uncertainty k = 0.494976
         7        13        14        37     9        0.000000        0.929785         3    ;  uncertainty k = 0.166415
         7        13        14        37     9      180.000000        1.166653         4    ;  uncertainty k = 0.145120
         7        13        18        17     9        0.000000        0.668608         1    ;  uncertainty k = 0.525003
         7        13        18        17     9      180.000000        6.658736         2    ;  uncertainty k = 1.082533
         7        13        18        17     9        0.000000        0.707985         3    ;  uncertainty k = 0.134292
         7        13        18        17     9      180.000000        1.355618         4    ;  uncertainty k = 0.387676
         7        13        18        21     9        0.000000        0.295523         1    ;  uncertainty k = 1.172000
         7        13        18        21     9      180.000000        7.024441         2    ;  uncertainty k = 0.842106
         7        13        18        21     9        0.000000        0.613671         3    ;  uncertainty k = 0.331043
         7        13        18        21     9      180.000000        0.895696         4    ;  uncertainty k = 0.239282
         8         7        12        11     9        0.000000       -0.073176         1    ;  uncertainty k = 0.197895
         8         7        12        11     9      180.000000       10.663239         2    ;  uncertainty k = 0.403406
         8         7        12        11     9        0.000000       -0.041978         3    ;  uncertainty k = 0.352798
         8         7        12        11     9      180.000000        1.200769         4    ;  uncertainty k = 0.389049
         8         7        12        33     9        0.000000        0.220628         1    ;  uncertainty k = 0.353754
         8         7        12        33     9      180.000000        6.850098         2    ;  uncertainty k = 0.538023
         8         7        12        33     9        0.000000        1.432346         3    ;  uncertainty k = 0.275738
         8         7        12        33     9      180.000000        1.690820         4    ;  uncertainty k = 0.177763
         8         7        13        14     9        0.000000        1.468118         1    ;  uncertainty k = 1.151726
         8         7        13        14     9      180.000000        3.566773         2    ;  uncertainty k = 0.530926
         8         7        13        14     9        0.000000        0.495938         3    ;  uncertainty k = 0.158850
         8         7        13        14     9      180.000000        0.295165         4    ;  uncertainty k = 0.088394
         8         7        13        18     9        0.000000        3.756972         1    ;  uncertainty k = 1.409195
         8         7        13        18     9      180.000000        3.183553         2    ;  uncertainty k = 0.553995
         8         7        13        18     9        0.000000        1.323651         3    ;  uncertainty k = 0.557743
         8         7        13        18     9      180.000000        0.406532         4    ;  uncertainty k = 0.082164
         8         9        10        11     9        0.000000       -0.007919         1    ;  uncertainty k = 0.101402
         8         9        10        11     9      180.000000        9.712615         2    ;  uncertainty k = 0.314012
         8         9        10        11     9        0.000000        0.069000         3    ;  uncertainty k = 0.581226
         8         9        10        11     9      180.000000        1.231449         4    ;  uncertainty k = 0.309867
         8         9        10        31     9        0.000000        0.157988         1    ;  uncertainty k = 0.145762
         8         9        10        31     9      180.000000        6.152356         2    ;  uncertainty k = 0.598784
         8         9        10        31     9        0.000000        1.431826         3    ;  uncertainty k = 0.392372
         8         9        10        31     9      180.000000        1.578410         4    ;  uncertainty k = 0.163314
         9         8         7        12     9        0.000000       -0.062754         1    ;  uncertainty k = 0.462640
         9         8         7        12     9      180.000000        6.739815         2    ;  uncertainty k = 0.748070
         9         8         7        12     9        0.000000        0.478089         3    ;  uncertainty k = 0.442219
         9         8         7        12     9      180.000000        1.252093         4    ;  uncertainty k = 0.302421
         9         8         7        13     9        0.000000       -0.022926         1    ;  uncertainty k = 0.505694
         9         8         7        13     9      180.000000        6.635923         2    ;  uncertainty k = 0.467376
         9         8         7        13     9        0.000000        1.371761         3    ;  uncertainty k = 0.322618
         9         8         7        13     9      180.000000        1.584553         4    ;  uncertainty k = 0.230148
         9        10        11        12     9        0.000000        0.036870         1    ;  uncertainty k = 0.143830
         9        10        11        12     9      180.000000       14.533530         2    ;  uncertainty k = 0.198005
         9        10        11        12     9        0.000000       -1.107434         3    ;  uncertainty k = 0.627555
         9        10        11        12     9      180.000000        0.736085         4    ;  uncertainty k = 0.247741
         9        10        11        32     9        0.000000        0.056766         1    ;  uncertainty k = 0.136807
         9        10        11        32     9      180.000000        7.557542         2    ;  uncertainty k = 0.336710
         9        10        11        32     9        0.000000        1.504418         3    ;  uncertainty k = 0.260587
         9        10        11        32     9      180.000000        1.858727         4    ;  uncertainty k = 0.152812
        10         9         8        20     9        0.000000        0.175573         1    ;  uncertainty k = 0.276364
        10         9         8        20     9      180.000000        7.141747         2    ;  uncertainty k = 0.291729
        10         9         8        20     9        0.000000        1.466319         3    ;  uncertainty k = 0.198526
        10         9         8        20     9      180.000000        1.670546         4    ;  uncertainty k = 0.147824
        10        11        12        33     9        0.000000        0.059443         1    ;  uncertainty k = 0.033865
        10        11        12        33     9      180.000000        7.893909         2    ;  uncertainty k = 0.258541
        10        11        12        33     9        0.000000        1.416665         3    ;  uncertainty k = 0.297324
        10        11        12        33     9      180.000000        1.832546         4    ;  uncertainty k = 0.143070
        11        10         9        19     9        0.000000        0.112138         1    ;  uncertainty k = 0.255913
        11        10         9        19     9      180.000000        9.595874         2    ;  uncertainty k = 0.644413
        11        10         9        19     9        0.000000        1.484418         3    ;  uncertainty k = 0.456305
        11        10         9        19     9      180.000000        1.723615         4    ;  uncertainty k = 0.176687
        11        12         7        13     9        0.000000        0.040948         1    ;  uncertainty k = 0.260842
        11        12         7        13     9      180.000000        9.330551         2    ;  uncertainty k = 0.668764
        11        12         7        13     9        0.000000        1.182360         3    ;  uncertainty k = 0.390899
        11        12         7        13     9      180.000000        1.815241         4    ;  uncertainty k = 0.290947
        12         7         8        20     9        0.000000       -0.029773         1    ;  uncertainty k = 0.432232
        12         7         8        20     9      180.000000        7.817202         2    ;  uncertainty k = 0.470372
        12         7         8        20     9        0.000000        1.389665         3    ;  uncertainty k = 0.375474
        12         7         8        20     9      180.000000        1.556393         4    ;  uncertainty k = 0.203657
        12         7        13        14     9        0.000000       -1.386575         1    ;  uncertainty k = 0.402661
        12         7        13        14     9      180.000000        4.841232         2    ;  uncertainty k = 0.328898
        12         7        13        14     9        0.000000        0.641222         3    ;  uncertainty k = 0.404795
        12         7        13        14     9      180.000000        0.306785         4    ;  uncertainty k = 0.116357
        12         7        13        18     9        0.000000        0.573461         1    ;  uncertainty k = 1.208132
        12         7        13        18     9      180.000000        4.736720         2    ;  uncertainty k = 0.759791
        12         7        13        18     9        0.000000        0.577579         3    ;  uncertainty k = 0.359790
        12         7        13        18     9      180.000000        0.575871         4    ;  uncertainty k = 0.114507
        12        11        10        31     9        0.000000        0.150758         1    ;  uncertainty k = 0.084196
        12        11        10        31     9      180.000000        7.633825         2    ;  uncertainty k = 0.300647
        12        11        10        31     9        0.000000        1.487748         3    ;  uncertainty k = 0.262043
        12        11        10        31     9      180.000000        1.795402         4    ;  uncertainty k = 0.174621
        13         7         8        20     9        0.000000       -0.244119         1    ;  uncertainty k = 0.784849
        13         7         8        20     9      180.000000        7.877014         2    ;  uncertainty k = 0.296015
        13         7         8        20     9        0.000000        1.142733         3    ;  uncertainty k = 0.321214
        13         7         8        20     9      180.000000        1.433384         4    ;  uncertainty k = 0.226892
        13         7        12        33     9        0.000000       -0.140187         1    ;  uncertainty k = 0.171301
        13         7        12        33     9      180.000000        7.391450         2    ;  uncertainty k = 0.371156
        13         7        12        33     9        0.000000        0.885470         3    ;  uncertainty k = 0.330741
        13         7        12        33     9      180.000000        1.244079         4    ;  uncertainty k = 0.287884
        13        14        15        16     9        0.000000       -0.715201         1    ;  uncertainty k = 0.541139
        13        14        15        16     9      180.000000       16.381671         2    ;  uncertainty k = 0.667289
        13        14        15        16     9        0.000000       -0.396293         3    ;  uncertainty k = 0.702092
        13        14        15        16     9      180.000000        1.433484         4    ;  uncertainty k = 0.582094
        13        18        17        16     9        0.000000        0.621440         1    ;  uncertainty k = 1.532199
        13        18        17        16     9      180.000000       11.169730         2    ;  uncertainty k = 0.684414
        13        18        17        16     9        0.000000        0.589545         3    ;  uncertainty k = 0.777490
        13        18        17        16     9      180.000000        1.125451         4    ;  uncertainty k = 0.441653
        13        18        21        36     9        0.000000       14.472282         1    ;  uncertainty k = 0.305890
        13        18        21        36     9      180.000000        7.549965         2    ;  uncertainty k = 0.430902
        13        18        21        36     9        0.000000        0.805638         3    ;  uncertainty k = 0.186732
        13        18        21        36     9      180.000000       -0.139579         4    ;  uncertainty k = 0.064881
        13        18        21        39     9        0.000000       14.472282         1    ;  uncertainty k = 0.305890
        13        18        21        39     9      180.000000        7.549965         2    ;  uncertainty k = 0.430902
        13        18        21        39     9        0.000000        0.805638         3    ;  uncertainty k = 0.186732
        13        18        21        39     9      180.000000       -0.139579         4    ;  uncertainty k = 0.064881
        14        13        18        17     9        0.000000       -0.225485         1    ;  uncertainty k = 0.761861
        14        13        18        17     9      180.000000        6.440228         2    ;  uncertainty k = 1.055427
        14        13        18        17     9        0.000000       -0.760896         3    ;  uncertainty k = 0.348735
        14        13        18        17     9      180.000000        0.895782         4    ;  uncertainty k = 0.406785
        14        13        18        21     9        0.000000       -0.906511         1    ;  uncertainty k = 0.747776
        14        13        18        21     9      180.000000        5.668633         2    ;  uncertainty k = 0.438999
        14        13        18        21     9        0.000000        0.491269         3    ;  uncertainty k = 0.380306
        14        13        18        21     9      180.000000        0.760113         4    ;  uncertainty k = 0.208335
        14        15        16        17     9        0.000000        0.001312         1    ;  uncertainty k = 1.334869
        14        15        16        17     9      180.000000        8.804750         2    ;  uncertainty k = 0.576227
        14        15        16        17     9        0.000000        0.726444         3    ;  uncertainty k = 0.520700
        14        15        16        17     9      180.000000        0.693231         4    ;  uncertainty k = 0.161402
        15        14        13        18     9        0.000000        0.158699         1    ;  uncertainty k = 0.668692
        15        14        13        18     9      180.000000       15.597120         2    ;  uncertainty k = 0.542510
        15        14        13        18     9        0.000000       -0.888981         3    ;  uncertainty k = 0.554465
        15        14        13        18     9      180.000000        0.853044         4    ;  uncertainty k = 0.183317
        15        16        17        18     9        0.000000       -0.443868         1    ;  uncertainty k = 0.933777
        15        16        17        18     9      180.000000        8.439826         2    ;  uncertainty k = 0.475905
        15        16        17        18     9        0.000000        1.077033         3    ;  uncertainty k = 0.357989
        15        16        17        18     9      180.000000        0.617525         4    ;  uncertainty k = 0.233967
        16         1         2        23     9        0.000000       -0.432128         1    ;  uncertainty k = 0.550802
        16         1         2        23     9      180.000000        0.217329         2    ;  uncertainty k = 0.267646
        16         1         2        23     9        0.000000       -0.011486         3    ;  uncertainty k = 0.107588
        16         1         2        23     9      180.000000        0.281752         4    ;  uncertainty k = 0.040806
        16         1         2        24     9        0.000000       -0.432128         1    ;  uncertainty k = 0.550802
        16         1         2        24     9      180.000000        0.217329         2    ;  uncertainty k = 0.267646
        16         1         2        24     9        0.000000       -0.011486         3    ;  uncertainty k = 0.107588
        16         1         2        24     9      180.000000        0.281752         4    ;  uncertainty k = 0.040806
        16         1         6        29     9        0.000000       -0.432128         1    ;  uncertainty k = 0.550802
        16         1         6        29     9      180.000000        0.217329         2    ;  uncertainty k = 0.267646
        16         1         6        29     9        0.000000       -0.011486         3    ;  uncertainty k = 0.107588
        16         1         6        29     9      180.000000        0.281752         4    ;  uncertainty k = 0.040806
        16         1         6        30     9        0.000000       -0.432128         1    ;  uncertainty k = 0.550802
        16         1         6        30     9      180.000000        0.217329         2    ;  uncertainty k = 0.267646
        16         1         6        30     9        0.000000       -0.011486         3    ;  uncertainty k = 0.107588
        16         1         6        30     9      180.000000        0.281752         4    ;  uncertainty k = 0.040806
        16        15        14        37     9        0.000000       -0.595825         1    ;  uncertainty k = 0.846289
        16        15        14        37     9      180.000000       15.847665         2    ;  uncertainty k = 0.601484
        16        15        14        37     9        0.000000        1.531909         3    ;  uncertainty k = 0.703194
        16        15        14        37     9      180.000000        1.181239         4    ;  uncertainty k = 0.617173
        16        17        18        21     9        0.000000        0.394472         1    ;  uncertainty k = 1.266259
        16        17        18        21     9      180.000000       15.313971         2    ;  uncertainty k = 0.318246
        16        17        18        21     9        0.000000        2.561161         3    ;  uncertainty k = 0.516633
        16        17        18        21     9      180.000000        1.861309         4    ;  uncertainty k = 0.375488
        17        18        21        36     9        0.000000       20.733108         1    ;  uncertainty k = 0.257632
        17        18        21        36     9      180.000000       12.720319         2    ;  uncertainty k = 0.157224
        17        18        21        36     9        0.000000        0.630493         3    ;  uncertainty k = 0.132647
        17        18        21        36     9      180.000000       -0.490804         4    ;  uncertainty k = 0.222648
        17        18        21        39     9        0.000000       20.733108         1    ;  uncertainty k = 0.257632
        17        18        21        39     9      180.000000       12.720319         2    ;  uncertainty k = 0.157224
        17        18        21        39     9        0.000000        0.630493         3    ;  uncertainty k = 0.132647
        17        18        21        39     9      180.000000       -0.490804         4    ;  uncertainty k = 0.222648
        18        13        14        37     9        0.000000       -0.532993         1    ;  uncertainty k = 0.536963
        18        13        14        37     9      180.000000        6.727941         2    ;  uncertainty k = 0.710433
        18        13        14        37     9        0.000000        0.791683         3    ;  uncertainty k = 0.344149
        18        13        14        37     9      180.000000        1.205376         4    ;  uncertainty k = 0.171017
        19         9         8        20     9        0.000000        0.125521         1    ;  uncertainty k = 0.513571
        19         9         8        20     9      180.000000        7.537906         2    ;  uncertainty k = 0.335303
        19         9         8        20     9        0.000000        1.191624         3    ;  uncertainty k = 0.260834
        19         9         8        20     9      180.000000        1.411209         4    ;  uncertainty k = 0.256626
        19         9        10        31     9        0.000000       -0.186330         1    ;  uncertainty k = 0.303113
        19         9        10        31     9      180.000000        7.595780         2    ;  uncertainty k = 0.393566
        19         9        10        31     9        0.000000        0.545351         3    ;  uncertainty k = 0.282548
        19         9        10        31     9      180.000000        1.006467         4    ;  uncertainty k = 0.166699
        22         4         3        25     9        0.000000       -1.139173         1    ;  uncertainty k = 0.773247
        22         4         3        25     9      180.000000       -1.817115         2    ;  uncertainty k = 0.581300
        22         4         3        25     9        0.000000        0.835858         3    ;  uncertainty k = 0.146101
        22         4         3        25     9      180.000000       -0.195248         4    ;  uncertainty k = 0.142221
        22         4         3        26     9        0.000000       -1.139173         1    ;  uncertainty k = 0.773247
        22         4         3        26     9      180.000000       -1.817115         2    ;  uncertainty k = 0.581300
        22         4         3        26     9        0.000000        0.835858         3    ;  uncertainty k = 0.146101
        22         4         3        26     9      180.000000       -0.195248         4    ;  uncertainty k = 0.142221
        22         4         5        27     9        0.000000       -1.139173         1    ;  uncertainty k = 0.773247
        22         4         5        27     9      180.000000       -1.817115         2    ;  uncertainty k = 0.581300
        22         4         5        27     9        0.000000        0.835858         3    ;  uncertainty k = 0.146101
        22         4         5        27     9      180.000000       -0.195248         4    ;  uncertainty k = 0.142221
        22         4         5        28     9        0.000000       -1.139173         1    ;  uncertainty k = 0.773247
        22         4         5        28     9      180.000000       -1.817115         2    ;  uncertainty k = 0.581300
        22         4         5        28     9        0.000000        0.835858         3    ;  uncertainty k = 0.146101
        22         4         5        28     9      180.000000       -0.195248         4    ;  uncertainty k = 0.142221
        23         2         3        25     9        0.000000        0.129794         1    ;  uncertainty k = 0.196487
        23         2         3        25     9      180.000000        0.349353         2    ;  uncertainty k = 0.352690
        23         2         3        25     9        0.000000        0.196630         3    ;  uncertainty k = 0.074106
        23         2         3        25     9      180.000000       -0.110736         4    ;  uncertainty k = 0.138941
        23         2         3        26     9        0.000000        0.129794         1    ;  uncertainty k = 0.196487
        23         2         3        26     9      180.000000        0.349353         2    ;  uncertainty k = 0.352690
        23         2         3        26     9        0.000000        0.196630         3    ;  uncertainty k = 0.074106
        23         2         3        26     9      180.000000       -0.110736         4    ;  uncertainty k = 0.138941
        24         2         3        25     9        0.000000        0.129794         1    ;  uncertainty k = 0.196487
        24         2         3        25     9      180.000000        0.349353         2    ;  uncertainty k = 0.352690
        24         2         3        25     9        0.000000        0.196630         3    ;  uncertainty k = 0.074106
        24         2         3        25     9      180.000000       -0.110736         4    ;  uncertainty k = 0.138941
        24         2         3        26     9        0.000000        0.129794         1    ;  uncertainty k = 0.196487
        24         2         3        26     9      180.000000        0.349353         2    ;  uncertainty k = 0.352690
        24         2         3        26     9        0.000000        0.196630         3    ;  uncertainty k = 0.074106
        24         2         3        26     9      180.000000       -0.110736         4    ;  uncertainty k = 0.138941
        25         3         4        38     9        0.000000        0.923798         1    ;  uncertainty k = 0.419153
        25         3         4        38     9      180.000000       -0.453018         2    ;  uncertainty k = 0.362382
        25         3         4        38     9        0.000000        0.064963         3    ;  uncertainty k = 0.039469
        25         3         4        38     9      180.000000        0.015561         4    ;  uncertainty k = 0.043167
        26         3         4        38     9        0.000000        0.923798         1    ;  uncertainty k = 0.419153
        26         3         4        38     9      180.000000       -0.453018         2    ;  uncertainty k = 0.362382
        26         3         4        38     9        0.000000        0.064963         3    ;  uncertainty k = 0.039469
        26         3         4        38     9      180.000000        0.015561         4    ;  uncertainty k = 0.043167
        27         5         4        38     9        0.000000        0.923798         1    ;  uncertainty k = 0.419153
        27         5         4        38     9      180.000000       -0.453018         2    ;  uncertainty k = 0.362382
        27         5         4        38     9        0.000000        0.064963         3    ;  uncertainty k = 0.039469
        27         5         4        38     9      180.000000        0.015561         4    ;  uncertainty k = 0.043167
        27         5         6        29     9        0.000000        0.129794         1    ;  uncertainty k = 0.196487
        27         5         6        29     9      180.000000        0.349353         2    ;  uncertainty k = 0.352690
        27         5         6        29     9        0.000000        0.196630         3    ;  uncertainty k = 0.074106
        27         5         6        29     9      180.000000       -0.110736         4    ;  uncertainty k = 0.138941
        27         5         6        30     9        0.000000        0.129794         1    ;  uncertainty k = 0.196487
        27         5         6        30     9      180.000000        0.349353         2    ;  uncertainty k = 0.352690
        27         5         6        30     9        0.000000        0.196630         3    ;  uncertainty k = 0.074106
        27         5         6        30     9      180.000000       -0.110736         4    ;  uncertainty k = 0.138941
        28         5         4        38     9        0.000000        0.923798         1    ;  uncertainty k = 0.419153
        28         5         4        38     9      180.000000       -0.453018         2    ;  uncertainty k = 0.362382
        28         5         4        38     9        0.000000        0.064963         3    ;  uncertainty k = 0.039469
        28         5         4        38     9      180.000000        0.015561         4    ;  uncertainty k = 0.043167
        28         5         6        29     9        0.000000        0.129794         1    ;  uncertainty k = 0.196487
        28         5         6        29     9      180.000000        0.349353         2    ;  uncertainty k = 0.352690
        28         5         6        29     9        0.000000        0.196630         3    ;  uncertainty k = 0.074106
        28         5         6        29     9      180.000000       -0.110736         4    ;  uncertainty k = 0.138941
        28         5         6        30     9        0.000000        0.129794         1    ;  uncertainty k = 0.196487
        28         5         6        30     9      180.000000        0.349353         2    ;  uncertainty k = 0.352690
        28         5         6        30     9        0.000000        0.196630         3    ;  uncertainty k = 0.074106
        28         5         6        30     9      180.000000       -0.110736         4    ;  uncertainty k = 0.138941
        31        10        11        32     9        0.000000       -0.041227         1    ;  uncertainty k = 0.137026
        31        10        11        32     9      180.000000        7.842755         2    ;  uncertainty k = 0.468640
        31        10        11        32     9        0.000000       -0.426336         3    ;  uncertainty k = 0.252784
        31        10        11        32     9      180.000000        0.042828         4    ;  uncertainty k = 0.172783
        32        11        12        33     9        0.000000       -0.001430         1    ;  uncertainty k = 0.180179
        32        11        12        33     9      180.000000        7.854342         2    ;  uncertainty k = 0.409467
        32        11        12        33     9        0.000000       -0.446761         3    ;  uncertainty k = 0.258264
        32        11        12        33     9      180.000000        0.134857         4    ;  uncertainty k = 0.128963
        34        22         4        38     9        0.000000        0.920695         1    ;  uncertainty k = 0.666426
        34        22         4        38     9      180.000000       -1.037510         2    ;  uncertainty k = 0.320222
        34        22         4        38     9        0.000000        0.261088         3    ;  uncertainty k = 0.237065
        34        22         4        38     9      180.000000        0.051692         4    ;  uncertainty k = 0.096824
        35        22         4        38     9        0.000000        0.920695         1    ;  uncertainty k = 0.666426
        35        22         4        38     9      180.000000       -1.037510         2    ;  uncertainty k = 0.320222
        35        22         4        38     9        0.000000        0.261088         3    ;  uncertainty k = 0.237065
        35        22         4        38     9      180.000000        0.051692         4    ;  uncertainty k = 0.096824
        38         4        22        40     9        0.000000        0.920695         1    ;  uncertainty k = 0.666426
        38         4        22        40     9      180.000000       -1.037510         2    ;  uncertainty k = 0.320222
        38         4        22        40     9        0.000000        0.261088         3    ;  uncertainty k = 0.237065
        38         4        22        40     9      180.000000        0.051692         4    ;  uncertainty k = 0.096824

[ dihedrals ] ; impropers
;       ai        aj        ak        al funct           phase               k        pn
         1         2         6        16     4      180.000000        0.418129         2    ;  uncertainty k = 0.934966
         1         6        16         2     4      180.000000        0.418129         2    ;  uncertainty k = 0.934966
         1        16         2         6     4      180.000000        0.418129         2    ;  uncertainty k = 0.934966
         7         8        12        13     4      180.000000       16.957020         2    ;  uncertainty k = 0.050529
         7        12        13         8     4      180.000000       16.957020         2    ;  uncertainty k = 0.050529
         7        13         8        12     4      180.000000       16.957020         2    ;  uncertainty k = 0.050529
         8         7         9        20     4      180.000000       13.740292         2    ;  uncertainty k = 0.083690
         8         9        20         7     4      180.000000       13.740292         2    ;  uncertainty k = 0.083690
         8        20         7         9     4      180.000000       13.740292         2    ;  uncertainty k = 0.083690
         9         8        10        19     4      180.000000       13.551993         2    ;  uncertainty k = 0.084239
         9        10        19         8     4      180.000000       13.551993         2    ;  uncertainty k = 0.084239
         9        19         8        10     4      180.000000       13.551993         2    ;  uncertainty k = 0.084239
        10         9        11        31     4      180.000000        3.702854         2    ;  uncertainty k = 0.124178
        10        11        31         9     4      180.000000        3.702854         2    ;  uncertainty k = 0.124178
        10        31         9        11     4      180.000000        3.702854         2    ;  uncertainty k = 0.124178
        11        10        12        32     4      180.000000        4.247338         2    ;  uncertainty k = 0.106583
        11        12        32        10     4      180.000000        4.247338         2    ;  uncertainty k = 0.106583
        11        32        10        12     4      180.000000        4.247338         2    ;  uncertainty k = 0.106583
        12         7        11        33     4      180.000000        3.534971         2    ;  uncertainty k = 0.118429
        12        11        33         7     4      180.000000        3.534971         2    ;  uncertainty k = 0.118429
        12        33         7        11     4      180.000000        3.534971         2    ;  uncertainty k = 0.118429
        13         7        14        18     4      180.000000        4.667717         2    ;  uncertainty k = 0.384239
        13        14        18         7     4      180.000000        4.667717         2    ;  uncertainty k = 0.384239
        13        18         7        14     4      180.000000        4.667717         2    ;  uncertainty k = 0.384239
        14        13        15        37     4      180.000000       15.815960         2    ;  uncertainty k = 0.083690
        14        15        37        13     4      180.000000       15.815960         2    ;  uncertainty k = 0.083690
        14        37        13        15     4      180.000000       15.815960         2    ;  uncertainty k = 0.083690
        16         1        15        17     4      180.000000       42.450324         2    ;  uncertainty k = 0.086377
        16        15        17         1     4      180.000000       42.450324         2    ;  uncertainty k = 0.086377
        16        17         1        15     4      180.000000       42.450324         2    ;  uncertainty k = 0.086377
        18        13        17        21     4      180.000000       35.332293         2    ;  uncertainty k = 0.063540
        18        17        21        13     4      180.000000       35.332293         2    ;  uncertainty k = 0.063540
        18        21        13        17     4      180.000000       35.332293         2    ;  uncertainty k = 0.063540
        21        18        36        39     4      180.000000        0.730707         2    ;  uncertainty k = 1.124817
        21        36        39        18     4      180.000000        0.730707         2    ;  uncertainty k = 1.124817
        21        39        18        36     4      180.000000        0.730707         2    ;  uncertainty k = 1.124817

[ pairs ]
;       ai        aj funct
         1         4     1
         1        14     1
         1        18     1
         1        25     1
         1        26     1
         1        27     1
         1        28     1
         2         5     1
         2        15     1
         2        17     1
         2        22     1
         2        29     1
         2        30     1
         2        38     1
         3         6     1
         3        16     1
         3        27     1
         3        28     1
         3        34     1
         3        35     1
         3        40     1
         4        23     1
         4        24     1
         4        29     1
         4        30     1
         5        16     1
         5        25     1
         5        26     1
         5        34     1
         5        35     1
         5        40     1
         6        15     1
         6        17     1
         6        22     1
         6        23     1
         6        24     1
         6        38     1
         7        10     1
         7        15     1
         7        17     1
         7        19     1
         7        21     1
         7        32     1
         7        37     1
         8        11     1
         8        14     1
         8        18     1
         8        31     1
         8        33     1
         9        12     1
         9        13     1
         9        32     1
        10        20     1
        10        33     1
        11        13     1
        11        19     1
        12        14     1
        12        18     1
        12        20     1
        12        31     1
        13        16     1
        13        20     1
        13        33     1
        13        36     1
        13        39     1
        14        17     1
        14        21     1
        15        18     1
        16        21     1
        16        23     1
        16        24     1
        16        29     1
        16        30     1
        16        37     1
        17        36     1
        17        39     1
        18        37     1
        19        20     1
        19        31     1
        22        25     1
        22        26     1
        22        27     1
        22        28     1
        23        25     1
        23        26     1
        24        25     1
        24        26     1
        25        38     1
        26        38     1
        27        29     1
        27        30     1
        27        38     1
        28        29     1
        28        30     1
        28        38     1
        31        32     1
        32        33     1
        34        38     1
        35        38     1
        38        40     1
