; ITP file created by ByteFF-joint-25, 2026-02-17 09:34:03.152003

[ atomtypes ]
;name           bonded.type        at.num        mass        charge   ptype           sigma         epsilon
 n0bf                                   7      0.0000       0.00000       A     3.18986e-01     8.98305e-01    ;  uncertainty sigma = 0.000025, epsilon = 0.004359
 c1bf                                   6      0.0000       0.00000       A     3.39775e-01     4.50495e-01    ;  uncertainty sigma = 0.000022, epsilon = 0.001103
 c2bf                                   6      0.0000       0.00000       A     3.39768e-01     4.51100e-01    ;  uncertainty sigma = 0.000021, epsilon = 0.000603
 c3bf                                   6      0.0000       0.00000       A     3.39788e-01     4.49780e-01    ;  uncertainty sigma = 0.000038, epsilon = 0.001520
 c4bf                                   6      0.0000       0.00000       A     3.39768e-01     4.51100e-01    ;  uncertainty sigma = 0.000021, epsilon = 0.000603
 c5bf                                   6      0.0000       0.00000       A     3.39775e-01     4.50495e-01    ;  uncertainty sigma = 0.000022, epsilon = 0.001103
 c6bf                                   6      0.0000       0.00000       A     3.31538e-01     4.13431e-01    ;  uncertainty sigma = 0.000014, epsilon = 0.001015
 c7bf                                   6      0.0000       0.00000       A     3.31513e-01     4.13559e-01    ;  uncertainty sigma = 0.000010, epsilon = 0.000750
 c8bf                                   6      0.0000       0.00000       A     3.31517e-01     4.13418e-01    ;  uncertainty sigma = 0.000007, epsilon = 0.000490
 c9bf                                   6      0.0000       0.00000       A     3.31517e-01     4.13339e-01    ;  uncertainty sigma = 0.000004, epsilon = 0.000628
 c10bf                                  6      0.0000       0.00000       A     3.31515e-01     4.13294e-01    ;  uncertainty sigma = 0.000004, epsilon = 0.000592
 c11bf                                  6      0.0000       0.00000       A     3.31518e-01     4.13425e-01    ;  uncertainty sigma = 0.000005, epsilon = 0.000679
 c12bf                                  6      0.0000       0.00000       A     3.31493e-01     4.12684e-01    ;  uncertainty sigma = 0.000023, epsilon = 0.001388
 n13bf                                  7      0.0000       0.00000       A     3.38415e-01     3.93487e-01    ;  uncertainty sigma = 0.000021, epsilon = 0.001843
 c14bf                                  6      0.0000       0.00000       A     3.31498e-01     4.13064e-01    ;  uncertainty sigma = 0.000038, epsilon = 0.000722
 c15bf                                  6      0.0000       0.00000       A     3.31442e-01     4.12808e-01    ;  uncertainty sigma = 0.000043, epsilon = 0.002132
 n16bf                                  7      0.0000       0.00000       A     3.38409e-01     3.93396e-01    ;  uncertainty sigma = 0.000048, epsilon = 0.000496
 c17bf                                  6      0.0000       0.00000       A     3.31495e-01     4.11907e-01    ;  uncertainty sigma = 0.000020, epsilon = 0.001501
 cl18bf                                17      0.0000       0.00000       A     3.46639e-01     1.10469e+00    ;  uncertainty sigma = 0.000020, epsilon = 0.001458
 cl19bf                                17      0.0000       0.00000       A     3.46596e-01     1.10464e+00    ;  uncertainty sigma = 0.000016, epsilon = 0.003016
 n20bf                                  7      0.0000       0.00000       A     3.36870e-01     4.67721e-01    ;  uncertainty sigma = 0.000043, epsilon = 0.002784
 n21bf                                  7      0.0000       0.00000       A     2.77101e-01     4.77733e+00    ;  uncertainty sigma = 0.000102, epsilon = 0.025603
 c22bf                                  6      0.0000       0.00000       A     3.39744e-01     4.51058e-01    ;  uncertainty sigma = 0.000018, epsilon = 0.000674
 h23bf                                  1      0.0000       0.00000       A     2.42223e-01     8.69235e-02    ;  uncertainty sigma = 0.000017, epsilon = 0.000659
 h24bf                                  1      0.0000       0.00000       A     2.42223e-01     8.69235e-02    ;  uncertainty sigma = 0.000017, epsilon = 0.000659
 h25bf                                  1      0.0000       0.00000       A     2.60047e-01     8.66235e-02    ;  uncertainty sigma = 0.000026, epsilon = 0.001019
 h26bf                                  1      0.0000       0.00000       A     2.60047e-01     8.66235e-02    ;  uncertainty sigma = 0.000026, epsilon = 0.001019
 h27bf                                  1      0.0000       0.00000       A     2.60047e-01     8.66235e-02    ;  uncertainty sigma = 0.000026, epsilon = 0.001019
 h28bf                                  1      0.0000       0.00000       A     2.60047e-01     8.66235e-02    ;  uncertainty sigma = 0.000026, epsilon = 0.001019
 h29bf                                  1      0.0000       0.00000       A     2.42223e-01     8.69235e-02    ;  uncertainty sigma = 0.000017, epsilon = 0.000659
 h30bf                                  1      0.0000       0.00000       A     2.42223e-01     8.69235e-02    ;  uncertainty sigma = 0.000017, epsilon = 0.000659
 h31bf                                  1      0.0000       0.00000       A     2.62556e-01     6.70339e-02    ;  uncertainty sigma = 0.000007, epsilon = 0.000600
 h32bf                                  1      0.0000       0.00000       A     2.62563e-01     6.70978e-02    ;  uncertainty sigma = 0.000011, epsilon = 0.000541
 cl33bf                                17      0.0000       0.00000       A     3.46697e-01     1.10809e+00    ;  uncertainty sigma = 0.000033, epsilon = 0.003666
 h34bf                                  1      0.0000       0.00000       A     1.10722e-01     4.12462e-02    ;  uncertainty sigma = 0.000082, epsilon = 0.000527
 h35bf                                  1      0.0000       0.00000       A     1.10722e-01     4.12462e-02    ;  uncertainty sigma = 0.000082, epsilon = 0.000527
 h36bf                                  1      0.0000       0.00000       A     1.10744e-01     4.05584e-02    ;  uncertainty sigma = 0.000197, epsilon = 0.001139
 h37bf                                  1      0.0000       0.00000       A     2.60029e-01     8.68919e-02    ;  uncertainty sigma = 0.000018, epsilon = 0.000792
 h38bf                                  1      0.0000       0.00000       A     2.60029e-01     8.68919e-02    ;  uncertainty sigma = 0.000018, epsilon = 0.000792
 h39bf                                  1      0.0000       0.00000       A     2.60029e-01     8.68919e-02    ;  uncertainty sigma = 0.000018, epsilon = 0.000792
 h40bf                                  1      0.0000       0.00000       A     1.10744e-01     4.05584e-02    ;  uncertainty sigma = 0.000197, epsilon = 0.001139
 h41bf                                  1      0.0000       0.00000       A     2.62568e-01     6.69665e-02    ;  uncertainty sigma = 0.000007, epsilon = 0.000468
 h42bf                                  1      0.0000       0.00000       A     1.10744e-01     4.05584e-02    ;  uncertainty sigma = 0.000197, epsilon = 0.001139

[ moleculetype ]
;name             nrexcl
 MOL                   3

[ atoms ]
;       nr            type      resi   res      atom      cgnr      charge          mass ; qtot
         1            n0bf         1   UNL        n0         1    -0.76177       14.0070 ; qtot   -0.762
         2            c1bf         1   UNL        c1         2     0.21674       12.0110 ; qtot   -0.545
         3            c2bf         1   UNL        c2         3    -0.11820       12.0110 ; qtot   -0.663
         4            c3bf         1   UNL        c3         4     0.18791       12.0110 ; qtot   -0.475
         5            c4bf         1   UNL        c4         5    -0.11820       12.0110 ; qtot   -0.594
         6            c5bf         1   UNL        c5         6     0.21674       12.0110 ; qtot   -0.377
         7            c6bf         1   UNL        c6         7    -0.10962       12.0110 ; qtot   -0.486
         8            c7bf         1   UNL        c7         8     0.05319       12.0110 ; qtot   -0.433
         9            c8bf         1   UNL        c8         9     0.02451       12.0110 ; qtot   -0.409
        10            c9bf         1   UNL        c9        10    -0.10171       12.0110 ; qtot   -0.510
        11           c10bf         1   UNL       c10        11    -0.12241       12.0110 ; qtot   -0.633
        12           c11bf         1   UNL       c11        12    -0.09853       12.0110 ; qtot   -0.731
        13           c12bf         1   UNL       c12        13     0.26155       12.0110 ; qtot   -0.470
        14           n13bf         1   UNL       n13        14    -0.58173       14.0070 ; qtot   -1.052
        15           c14bf         1   UNL       c14        15     0.33498       12.0110 ; qtot   -0.717
        16           c15bf         1   UNL       c15        16     0.61447       12.0110 ; qtot   -0.102
        17           n16bf         1   UNL       n16        17    -0.80777       14.0070 ; qtot   -0.910
        18           c17bf         1   UNL       c17        18     0.59186       12.0110 ; qtot   -0.318
        19          cl18bf         1   UNL      cl18        19    -0.08348       35.4530 ; qtot   -0.401
        20          cl19bf         1   UNL      cl19        20    -0.07905       35.4530 ; qtot   -0.481
        21           n20bf         1   UNL       n20        21    -0.91327       14.0070 ; qtot   -1.394
        22           n21bf         1   UNL       n21        22    -0.86673       14.0070 ; qtot   -2.261
        23           c22bf         1   UNL       c22        23    -0.13034       12.0110 ; qtot   -2.391
        24           h23bf         1   UNL       h23        24     0.07690        1.0080 ; qtot   -2.314
        25           h24bf         1   UNL       h24        25     0.07690        1.0080 ; qtot   -2.237
        26           h25bf         1   UNL       h25        26     0.08278        1.0080 ; qtot   -2.154
        27           h26bf         1   UNL       h26        27     0.08278        1.0080 ; qtot   -2.071
        28           h27bf         1   UNL       h27        28     0.08278        1.0080 ; qtot   -1.989
        29           h28bf         1   UNL       h28        29     0.08278        1.0080 ; qtot   -1.906
        30           h29bf         1   UNL       h29        30     0.07690        1.0080 ; qtot   -1.829
        31           h30bf         1   UNL       h30        31     0.07690        1.0080 ; qtot   -1.752
        32           h31bf         1   UNL       h31        32     0.15499        1.0080 ; qtot   -1.597
        33           h32bf         1   UNL       h32        33     0.15054        1.0080 ; qtot   -1.447
        34          cl33bf         1   UNL      cl33        34    -0.15835       35.4530 ; qtot   -1.605
        35           h34bf         1   UNL       h34        35     0.41702        1.0080 ; qtot   -1.188
        36           h35bf         1   UNL       h35        36     0.41702        1.0080 ; qtot   -0.771
        37           h36bf         1   UNL       h36        37     0.46464        1.0080 ; qtot   -0.306
        38           h37bf         1   UNL       h37        38     0.07734        1.0080 ; qtot   -0.229
        39           h38bf         1   UNL       h38        39     0.07734        1.0080 ; qtot   -0.152
        40           h39bf         1   UNL       h39        40     0.07734        1.0080 ; qtot   -0.074
        41           h40bf         1   UNL       h40        41     0.46464        1.0080 ; qtot    0.390
        42           h41bf         1   UNL       h41        42     0.14497        1.0080 ; qtot    0.535
        43           h42bf         1   UNL       h42        43     0.46465        1.0080 ; qtot    1.000

[ bonds ]
;       ai        aj funct               r               k
         1         2     1        0.145930   249688.499561    ;  uncertainty r = 0.000048, k = 12.329958
         1         6     1        0.145930   249688.499561    ;  uncertainty r = 0.000048, k = 12.329958
         1        16     1        0.139286   312539.079687    ;  uncertainty r = 0.000666, k = 31.268675
         2         3     1        0.153949   208156.477100    ;  uncertainty r = 0.000238, k = 11.034224
         2        24     1        0.109489   307186.501563    ;  uncertainty r = 0.000051, k = 1.887946
         2        25     1        0.109489   307186.501563    ;  uncertainty r = 0.000051, k = 1.887946
         3         4     1        0.153676   203189.241187    ;  uncertainty r = 0.000166, k = 7.265986
         3        26     1        0.109591   310533.497266    ;  uncertainty r = 0.000042, k = 1.839138
         3        27     1        0.109591   310533.497266    ;  uncertainty r = 0.000042, k = 1.839138
         4         5     1        0.153676   203189.241187    ;  uncertainty r = 0.000166, k = 7.265986
         4        22     1        0.155122   197292.186353    ;  uncertainty r = 0.000211, k = 49.108522
         4        23     1        0.152893   210290.460107    ;  uncertainty r = 0.000125, k = 13.841219
         5         6     1        0.153949   208156.477100    ;  uncertainty r = 0.000238, k = 11.034224
         5        28     1        0.109591   310533.497266    ;  uncertainty r = 0.000042, k = 1.839138
         5        29     1        0.109591   310533.497266    ;  uncertainty r = 0.000042, k = 1.839138
         6        30     1        0.109489   307186.501563    ;  uncertainty r = 0.000051, k = 1.887946
         6        31     1        0.109489   307186.501563    ;  uncertainty r = 0.000051, k = 1.887946
         7         8     1        0.140180   324045.003076    ;  uncertainty r = 0.000127, k = 8.309108
         7        12     1        0.139991   347766.807031    ;  uncertainty r = 0.000038, k = 4.249325
         7        13     1        0.148489   288630.267480    ;  uncertainty r = 0.000146, k = 10.789949
         8         9     1        0.140081   338158.290869    ;  uncertainty r = 0.000066, k = 1.557491
         8        20     1        0.174228   186667.254932    ;  uncertainty r = 0.000057, k = 4.731528
         9        10     1        0.139432   364703.069043    ;  uncertainty r = 0.000027, k = 3.877522
         9        19     1        0.174626   190975.416357    ;  uncertainty r = 0.000065, k = 1.953772
        10        11     1        0.139275   380193.470996    ;  uncertainty r = 0.000019, k = 0.375568
        10        32     1        0.108658   335617.322949    ;  uncertainty r = 0.000011, k = 0.544911
        11        12     1        0.139222   371106.856738    ;  uncertainty r = 0.000025, k = 1.271468
        11        42     1        0.108744   332681.040576    ;  uncertainty r = 0.000006, k = 1.317305
        12        33     1        0.108655   332465.507373    ;  uncertainty r = 0.000021, k = 1.100526
        13        14     1        0.133065   391177.901074    ;  uncertainty r = 0.000265, k = 15.377342
        13        18     1        0.139255   425828.923877    ;  uncertainty r = 0.000470, k = 13.708911
        14        15     1        0.130858   383435.075049    ;  uncertainty r = 0.000288, k = 23.202461
        15        16     1        0.140762   422904.899316    ;  uncertainty r = 0.000243, k = 35.107428
        15        34     1        0.176097   176439.527710    ;  uncertainty r = 0.000102, k = 14.732929
        16        17     1        0.134459   367988.264941    ;  uncertainty r = 0.000090, k = 15.406410
        17        18     1        0.135763   502468.879102    ;  uncertainty r = 0.000142, k = 12.108629
        18        21     1        0.140828   489893.384961    ;  uncertainty r = 0.000337, k = 40.198761
        21        35     1        0.101788   426937.489795    ;  uncertainty r = 0.000055, k = 2.235148
        21        36     1        0.101788   426937.489795    ;  uncertainty r = 0.000055, k = 2.235148
        22        37     1        0.102893   408930.686621    ;  uncertainty r = 0.000060, k = 6.495046
        22        41     1        0.102893   408930.686621    ;  uncertainty r = 0.000060, k = 6.495046
        22        43     1        0.102893   408930.686621    ;  uncertainty r = 0.000060, k = 6.495046
        23        38     1        0.109485   313302.332813    ;  uncertainty r = 0.000023, k = 3.037366
        23        39     1        0.109485   313302.332813    ;  uncertainty r = 0.000023, k = 3.037366
        23        40     1        0.109485   313302.383887    ;  uncertainty r = 0.000023, k = 3.037347

[ angles ]
;       ai        aj        ak funct           theta             cth
         1         2         3     1      110.112999      681.508136    ;  uncertainty theta = 0.002574, k = 0.115529
         1         2        24     1      107.541649      449.388357    ;  uncertainty theta = 0.001394, k = 0.074349
         1         2        25     1      107.541649      449.388357    ;  uncertainty theta = 0.001394, k = 0.074349
         1         6         5     1      110.112999      681.508136    ;  uncertainty theta = 0.002574, k = 0.115529
         1         6        30     1      107.541649      449.388357    ;  uncertainty theta = 0.001394, k = 0.074349
         1         6        31     1      107.541649      449.388357    ;  uncertainty theta = 0.001394, k = 0.074349
         1        16        15     1      119.299820      363.386395    ;  uncertainty theta = 0.006590, k = 0.240292
         1        16        17     1      123.733627      651.096311    ;  uncertainty theta = 0.007190, k = 0.227214
         2         1         6     1      107.523903      405.100337    ;  uncertainty theta = 0.010589, k = 0.212620
         2         1        16     1      111.218956      402.711085    ;  uncertainty theta = 0.002574, k = 0.154548
         2         3         4     1      110.154457      546.701693    ;  uncertainty theta = 0.003190, k = 0.080152
         2         3        26     1      108.228027      399.871486    ;  uncertainty theta = 0.001011, k = 0.105198
         2         3        27     1      108.228027      399.871486    ;  uncertainty theta = 0.001011, k = 0.105198
         3         2        24     1      108.727341      413.284406    ;  uncertainty theta = 0.003479, k = 0.104998
         3         2        25     1      108.727341      413.284406    ;  uncertainty theta = 0.003479, k = 0.104998
         3         4         5     1      110.679581      579.870504    ;  uncertainty theta = 0.006768, k = 0.197925
         3         4        22     1      107.283340      684.092874    ;  uncertainty theta = 0.005196, k = 0.323363
         3         4        23     1      111.976845      573.046350    ;  uncertainty theta = 0.003349, k = 0.044873
         4         3        26     1      107.183029      390.978284    ;  uncertainty theta = 0.002183, k = 0.173231
         4         3        27     1      107.183029      390.978284    ;  uncertainty theta = 0.002183, k = 0.173231
         4         5         6     1      110.154457      546.701693    ;  uncertainty theta = 0.003190, k = 0.080152
         4         5        28     1      107.183029      390.978284    ;  uncertainty theta = 0.002183, k = 0.173231
         4         5        29     1      107.183029      390.978284    ;  uncertainty theta = 0.002183, k = 0.173231
         4        22        37     1      110.464333      409.034616    ;  uncertainty theta = 0.003988, k = 0.162351
         4        22        41     1      110.464333      409.034616    ;  uncertainty theta = 0.003988, k = 0.162351
         4        22        43     1      110.464333      409.034616    ;  uncertainty theta = 0.003988, k = 0.162351
         4        23        38     1      107.456223      389.152764    ;  uncertainty theta = 0.000505, k = 0.034812
         4        23        39     1      107.456223      389.152764    ;  uncertainty theta = 0.000505, k = 0.034812
         4        23        40     1      107.456223      389.152796    ;  uncertainty theta = 0.000505, k = 0.034812
         5         4        22     1      107.283340      684.092874    ;  uncertainty theta = 0.005196, k = 0.323363
         5         4        23     1      111.976845      573.046350    ;  uncertainty theta = 0.003349, k = 0.044873
         5         6        30     1      108.727341      413.284406    ;  uncertainty theta = 0.003479, k = 0.104998
         5         6        31     1      108.727341      413.284406    ;  uncertainty theta = 0.003479, k = 0.104998
         6         1        16     1      111.218956      402.711085    ;  uncertainty theta = 0.002574, k = 0.154548
         6         5        28     1      108.228027      399.871486    ;  uncertainty theta = 0.001011, k = 0.105198
         6         5        29     1      108.228027      399.871486    ;  uncertainty theta = 0.001011, k = 0.105198
         7         8         9     1      123.939621      373.344431    ;  uncertainty theta = 0.005009, k = 0.158553
         7         8        20     1      117.570839      413.891264    ;  uncertainty theta = 0.003905, k = 0.086235
         7        12        11     1      121.199547      521.629583    ;  uncertainty theta = 0.002226, k = 0.036794
         7        12        33     1      118.366684      272.732944    ;  uncertainty theta = 0.003027, k = 0.079475
         7        13        14     1      118.801476      444.462472    ;  uncertainty theta = 0.005753, k = 0.180605
         7        13        18     1      120.920631      329.621708    ;  uncertainty theta = 0.006878, k = 0.347161
         8         7        12     1      121.865372      401.725959    ;  uncertainty theta = 0.004335, k = 0.234393
         8         7        13     1      120.277977      372.406964    ;  uncertainty theta = 0.001421, k = 0.163669
         8         9        10     1      121.600662      355.472030    ;  uncertainty theta = 0.004430, k = 0.117176
         8         9        19     1      120.568947      449.474768    ;  uncertainty theta = 0.001428, k = 0.087847
         9         8        20     1      120.137085      453.066019    ;  uncertainty theta = 0.003161, k = 0.095973
         9        10        11     1      118.521408      504.243759    ;  uncertainty theta = 0.003727, k = 0.077042
         9        10        32     1      119.895508      282.330875    ;  uncertainty theta = 0.002549, k = 0.077648
        10         9        19     1      120.234840      454.908777    ;  uncertainty theta = 0.002092, k = 0.126480
        10        11        12     1      119.323929      506.342974    ;  uncertainty theta = 0.002723, k = 0.050820
        10        11        42     1      120.122826      285.662511    ;  uncertainty theta = 0.000443, k = 0.032129
        11        10        32     1      121.361893      281.867473    ;  uncertainty theta = 0.001546, k = 0.022762
        11        12        33     1      120.750648      291.201797    ;  uncertainty theta = 0.001707, k = 0.042747
        12         7        13     1      121.064636      402.997037    ;  uncertainty theta = 0.001327, k = 0.109884
        12        11        42     1      120.387840      283.633077    ;  uncertainty theta = 0.001257, k = 0.017514
        13        14        15     1      123.257484      445.860884    ;  uncertainty theta = 0.011830, k = 0.124084
        13        18        17     1      119.928062      460.801721    ;  uncertainty theta = 0.006175, k = 0.161825
        13        18        21     1      122.317459      460.463897    ;  uncertainty theta = 0.006625, k = 0.497531
        14        13        18     1      118.516556      474.789449    ;  uncertainty theta = 0.009018, k = 0.187333
        14        15        16     1      123.680664      460.666789    ;  uncertainty theta = 0.010894, k = 0.337170
        14        15        34     1      118.746864      582.712529    ;  uncertainty theta = 0.003074, k = 0.270082
        15        16        17     1      118.555763      431.778540    ;  uncertainty theta = 0.011819, k = 0.363012
        16        15        34     1      118.841942      363.059616    ;  uncertainty theta = 0.005554, k = 0.427490
        16        17        18     1      121.263451      461.687028    ;  uncertainty theta = 0.011756, k = 0.399994
        17        18        21     1      126.289719      915.314162    ;  uncertainty theta = 0.005629, k = 0.241015
        18        21        35     1      117.143776      387.075224    ;  uncertainty theta = 0.002799, k = 0.196461
        18        21        36     1      117.143776      387.075224    ;  uncertainty theta = 0.002799, k = 0.196461
        22         4        23     1      107.732376      711.715791    ;  uncertainty theta = 0.003143, k = 0.202828
        24         2        25     1      105.596703      324.839277    ;  uncertainty theta = 0.002989, k = 0.043405
        26         3        27     1      106.069984      314.890850    ;  uncertainty theta = 0.002539, k = 0.094492
        28         5        29     1      106.069984      314.890850    ;  uncertainty theta = 0.002539, k = 0.094492
        30         6        31     1      105.596703      324.839277    ;  uncertainty theta = 0.002989, k = 0.043405
        35        21        36     1      108.264320      277.112176    ;  uncertainty theta = 0.001999, k = 0.081832
        37        22        41     1      108.017105      374.242252    ;  uncertainty theta = 0.003302, k = 0.129446
        37        22        43     1      108.017105      374.242252    ;  uncertainty theta = 0.003302, k = 0.129446
        38        23        39     1      105.936523      319.817118    ;  uncertainty theta = 0.000605, k = 0.051303
        38        23        40     1      105.936523      319.817118    ;  uncertainty theta = 0.000605, k = 0.051303
        39        23        40     1      105.936523      319.817118    ;  uncertainty theta = 0.000605, k = 0.051303
        41        22        43     1      108.017105      374.242252    ;  uncertainty theta = 0.003302, k = 0.129446

[ dihedrals ] ; propers for gromacs 4.5 or higher, use funct 9
;       ai        aj        ak        al funct           phase               k        pn
         1         2         3         4     9        0.000000        3.181934         1    ;  uncertainty k = 2.245605
         1         2         3         4     9      180.000000       -4.222742         2    ;  uncertainty k = 0.790043
         1         2         3         4     9        0.000000        1.990056         3    ;  uncertainty k = 0.313701
         1         2         3         4     9      180.000000       -0.437070         4    ;  uncertainty k = 0.211732
         1         2         3        26     9        0.000000       -2.019814         1    ;  uncertainty k = 0.870223
         1         2         3        26     9      180.000000        0.188267         2    ;  uncertainty k = 0.493219
         1         2         3        26     9        0.000000        1.232574         3    ;  uncertainty k = 0.298254
         1         2         3        26     9      180.000000       -0.225848         4    ;  uncertainty k = 0.066652
         1         2         3        27     9        0.000000       -2.019814         1    ;  uncertainty k = 0.870223
         1         2         3        27     9      180.000000        0.188267         2    ;  uncertainty k = 0.493219
         1         2         3        27     9        0.000000        1.232574         3    ;  uncertainty k = 0.298254
         1         2         3        27     9      180.000000       -0.225848         4    ;  uncertainty k = 0.066652
         1         6         5         4     9        0.000000        3.181934         1    ;  uncertainty k = 2.245605
         1         6         5         4     9      180.000000       -4.222742         2    ;  uncertainty k = 0.790043
         1         6         5         4     9        0.000000        1.990056         3    ;  uncertainty k = 0.313701
         1         6         5         4     9      180.000000       -0.437070         4    ;  uncertainty k = 0.211732
         1         6         5        28     9        0.000000       -2.019814         1    ;  uncertainty k = 0.870223
         1         6         5        28     9      180.000000        0.188267         2    ;  uncertainty k = 0.493219
         1         6         5        28     9        0.000000        1.232574         3    ;  uncertainty k = 0.298254
         1         6         5        28     9      180.000000       -0.225848         4    ;  uncertainty k = 0.066652
         1         6         5        29     9        0.000000       -2.019814         1    ;  uncertainty k = 0.870223
         1         6         5        29     9      180.000000        0.188267         2    ;  uncertainty k = 0.493219
         1         6         5        29     9        0.000000        1.232574         3    ;  uncertainty k = 0.298254
         1         6         5        29     9      180.000000       -0.225848         4    ;  uncertainty k = 0.066652
         1        16        15        14     9        0.000000       -0.663431         1    ;  uncertainty k = 1.427807
         1        16        15        14     9      180.000000        2.690150         2    ;  uncertainty k = 1.000258
         1        16        15        14     9        0.000000        0.185448         3    ;  uncertainty k = 0.369636
         1        16        15        14     9      180.000000        0.787741         4    ;  uncertainty k = 0.449817
         1        16        15        34     9        0.000000       -0.291391         1    ;  uncertainty k = 2.039694
         1        16        15        34     9      180.000000        2.475906         2    ;  uncertainty k = 1.134442
         1        16        15        34     9        0.000000        0.348544         3    ;  uncertainty k = 0.598005
         1        16        15        34     9      180.000000        0.550836         4    ;  uncertainty k = 0.223721
         1        16        17        18     9        0.000000        0.463576         1    ;  uncertainty k = 1.423949
         1        16        17        18     9      180.000000       14.686769         2    ;  uncertainty k = 0.677778
         1        16        17        18     9        0.000000        2.596913         3    ;  uncertainty k = 0.436012
         1        16        17        18     9      180.000000        1.637537         4    ;  uncertainty k = 0.582161
         2         1         6         5     9        0.000000       -6.750360         1    ;  uncertainty k = 2.548722
         2         1         6         5     9      180.000000        0.828942         2    ;  uncertainty k = 0.964993
         2         1         6         5     9        0.000000        1.026425         3    ;  uncertainty k = 0.464496
         2         1         6         5     9      180.000000       -0.420906         4    ;  uncertainty k = 0.213826
         2         1         6        30     9        0.000000       -6.040614         1    ;  uncertainty k = 1.618423
         2         1         6        30     9      180.000000        0.544985         2    ;  uncertainty k = 0.287056
         2         1         6        30     9        0.000000        0.754718         3    ;  uncertainty k = 0.087140
         2         1         6        30     9      180.000000       -0.090723         4    ;  uncertainty k = 0.073236
         2         1         6        31     9        0.000000       -6.040614         1    ;  uncertainty k = 1.618423
         2         1         6        31     9      180.000000        0.544985         2    ;  uncertainty k = 0.287056
         2         1         6        31     9        0.000000        0.754718         3    ;  uncertainty k = 0.087140
         2         1         6        31     9      180.000000       -0.090723         4    ;  uncertainty k = 0.073236
         2         1        16        15     9        0.000000        4.963980         1    ;  uncertainty k = 0.805726
         2         1        16        15     9      180.000000        5.671255         2    ;  uncertainty k = 0.518590
         2         1        16        15     9        0.000000        0.949460         3    ;  uncertainty k = 0.307171
         2         1        16        15     9      180.000000       -0.053750         4    ;  uncertainty k = 0.119055
         2         1        16        17     9        0.000000        5.740308         1    ;  uncertainty k = 1.318689
         2         1        16        17     9      180.000000       10.474383         2    ;  uncertainty k = 0.238713
         2         1        16        17     9        0.000000        0.061352         3    ;  uncertainty k = 0.329931
         2         1        16        17     9      180.000000        0.105074         4    ;  uncertainty k = 0.100872
         2         3         4         5     9        0.000000       -2.052215         1    ;  uncertainty k = 1.975136
         2         3         4         5     9      180.000000        0.436899         2    ;  uncertainty k = 0.602278
         2         3         4         5     9        0.000000        0.639743         3    ;  uncertainty k = 0.432064
         2         3         4         5     9      180.000000       -1.006676         4    ;  uncertainty k = 0.204590
         2         3         4        22     9        0.000000       -5.055075         1    ;  uncertainty k = 1.234857
         2         3         4        22     9      180.000000       -1.237590         2    ;  uncertainty k = 1.469421
         2         3         4        22     9        0.000000        1.028922         3    ;  uncertainty k = 0.387032
         2         3         4        22     9      180.000000        0.222738         4    ;  uncertainty k = 0.147256
         2         3         4        23     9        0.000000       -4.878559         1    ;  uncertainty k = 0.881604
         2         3         4        23     9      180.000000        1.286241         2    ;  uncertainty k = 0.403706
         2         3         4        23     9        0.000000        0.507921         3    ;  uncertainty k = 0.327321
         2         3         4        23     9      180.000000       -0.188323         4    ;  uncertainty k = 0.113231
         3         2         1         6     9        0.000000       -6.750360         1    ;  uncertainty k = 2.548722
         3         2         1         6     9      180.000000        0.828942         2    ;  uncertainty k = 0.964993
         3         2         1         6     9        0.000000        1.026425         3    ;  uncertainty k = 0.464496
         3         2         1         6     9      180.000000       -0.420906         4    ;  uncertainty k = 0.213826
         3         2         1        16     9        0.000000       -2.617429         1    ;  uncertainty k = 0.466751
         3         2         1        16     9      180.000000        0.221334         2    ;  uncertainty k = 0.247311
         3         2         1        16     9        0.000000       -0.043723         3    ;  uncertainty k = 0.160716
         3         2         1        16     9      180.000000        0.179021         4    ;  uncertainty k = 0.134748
         3         4         5         6     9        0.000000       -2.052215         1    ;  uncertainty k = 1.975136
         3         4         5         6     9      180.000000        0.436899         2    ;  uncertainty k = 0.602278
         3         4         5         6     9        0.000000        0.639743         3    ;  uncertainty k = 0.432064
         3         4         5         6     9      180.000000       -1.006676         4    ;  uncertainty k = 0.204590
         3         4         5        28     9        0.000000       -1.032719         1    ;  uncertainty k = 0.277220
         3         4         5        28     9      180.000000       -0.372391         2    ;  uncertainty k = 0.195211
         3         4         5        28     9        0.000000       -0.016948         3    ;  uncertainty k = 0.088967
         3         4         5        28     9      180.000000       -0.099463         4    ;  uncertainty k = 0.056988
         3         4         5        29     9        0.000000       -1.032719         1    ;  uncertainty k = 0.277220
         3         4         5        29     9      180.000000       -0.372391         2    ;  uncertainty k = 0.195211
         3         4         5        29     9        0.000000       -0.016948         3    ;  uncertainty k = 0.088967
         3         4         5        29     9      180.000000       -0.099463         4    ;  uncertainty k = 0.056988
         3         4        22        37     9        0.000000       -0.347105         1    ;  uncertainty k = 1.193618
         3         4        22        37     9      180.000000       -0.225842         2    ;  uncertainty k = 0.264572
         3         4        22        37     9        0.000000        0.751154         3    ;  uncertainty k = 0.137669
         3         4        22        37     9      180.000000       -0.116187         4    ;  uncertainty k = 0.103302
         3         4        22        41     9        0.000000       -0.347105         1    ;  uncertainty k = 1.193618
         3         4        22        41     9      180.000000       -0.225842         2    ;  uncertainty k = 0.264572
         3         4        22        41     9        0.000000        0.751154         3    ;  uncertainty k = 0.137669
         3         4        22        41     9      180.000000       -0.116187         4    ;  uncertainty k = 0.103302
         3         4        22        43     9        0.000000       -0.347105         1    ;  uncertainty k = 1.193618
         3         4        22        43     9      180.000000       -0.225842         2    ;  uncertainty k = 0.264572
         3         4        22        43     9        0.000000        0.751154         3    ;  uncertainty k = 0.137669
         3         4        22        43     9      180.000000       -0.116187         4    ;  uncertainty k = 0.103302
         3         4        23        38     9        0.000000       -0.895310         1    ;  uncertainty k = 0.339458
         3         4        23        38     9      180.000000       -0.491980         2    ;  uncertainty k = 0.208211
         3         4        23        38     9        0.000000        0.541904         3    ;  uncertainty k = 0.078616
         3         4        23        38     9      180.000000       -0.143850         4    ;  uncertainty k = 0.057472
         3         4        23        39     9        0.000000       -0.895310         1    ;  uncertainty k = 0.339458
         3         4        23        39     9      180.000000       -0.491980         2    ;  uncertainty k = 0.208211
         3         4        23        39     9        0.000000        0.541904         3    ;  uncertainty k = 0.078616
         3         4        23        39     9      180.000000       -0.143850         4    ;  uncertainty k = 0.057472
         3         4        23        40     9        0.000000       -0.895310         1    ;  uncertainty k = 0.339458
         3         4        23        40     9      180.000000       -0.491980         2    ;  uncertainty k = 0.208211
         3         4        23        40     9        0.000000        0.541904         3    ;  uncertainty k = 0.078616
         3         4        23        40     9      180.000000       -0.143850         4    ;  uncertainty k = 0.057472
         4         3         2        24     9        0.000000        3.015089         1    ;  uncertainty k = 1.137107
         4         3         2        24     9      180.000000       -2.711113         2    ;  uncertainty k = 0.235757
         4         3         2        24     9        0.000000        0.032039         3    ;  uncertainty k = 0.138848
         4         3         2        24     9      180.000000        0.268559         4    ;  uncertainty k = 0.076361
         4         3         2        25     9        0.000000        3.015089         1    ;  uncertainty k = 1.137107
         4         3         2        25     9      180.000000       -2.711113         2    ;  uncertainty k = 0.235757
         4         3         2        25     9        0.000000        0.032039         3    ;  uncertainty k = 0.138848
         4         3         2        25     9      180.000000        0.268559         4    ;  uncertainty k = 0.076361
         4         5         6        30     9        0.000000        3.015089         1    ;  uncertainty k = 1.137107
         4         5         6        30     9      180.000000       -2.711113         2    ;  uncertainty k = 0.235757
         4         5         6        30     9        0.000000        0.032039         3    ;  uncertainty k = 0.138848
         4         5         6        30     9      180.000000        0.268559         4    ;  uncertainty k = 0.076361
         4         5         6        31     9        0.000000        3.015089         1    ;  uncertainty k = 1.137107
         4         5         6        31     9      180.000000       -2.711113         2    ;  uncertainty k = 0.235757
         4         5         6        31     9        0.000000        0.032039         3    ;  uncertainty k = 0.138848
         4         5         6        31     9      180.000000        0.268559         4    ;  uncertainty k = 0.076361
         5         4         3        26     9        0.000000       -1.032719         1    ;  uncertainty k = 0.277220
         5         4         3        26     9      180.000000       -0.372391         2    ;  uncertainty k = 0.195211
         5         4         3        26     9        0.000000       -0.016948         3    ;  uncertainty k = 0.088967
         5         4         3        26     9      180.000000       -0.099463         4    ;  uncertainty k = 0.056988
         5         4         3        27     9        0.000000       -1.032719         1    ;  uncertainty k = 0.277220
         5         4         3        27     9      180.000000       -0.372391         2    ;  uncertainty k = 0.195211
         5         4         3        27     9        0.000000       -0.016948         3    ;  uncertainty k = 0.088967
         5         4         3        27     9      180.000000       -0.099463         4    ;  uncertainty k = 0.056988
         5         4        22        37     9        0.000000       -0.347105         1    ;  uncertainty k = 1.193618
         5         4        22        37     9      180.000000       -0.225842         2    ;  uncertainty k = 0.264572
         5         4        22        37     9        0.000000        0.751154         3    ;  uncertainty k = 0.137669
         5         4        22        37     9      180.000000       -0.116187         4    ;  uncertainty k = 0.103302
         5         4        22        41     9        0.000000       -0.347105         1    ;  uncertainty k = 1.193618
         5         4        22        41     9      180.000000       -0.225842         2    ;  uncertainty k = 0.264572
         5         4        22        41     9        0.000000        0.751154         3    ;  uncertainty k = 0.137669
         5         4        22        41     9      180.000000       -0.116187         4    ;  uncertainty k = 0.103302
         5         4        22        43     9        0.000000       -0.347105         1    ;  uncertainty k = 1.193618
         5         4        22        43     9      180.000000       -0.225842         2    ;  uncertainty k = 0.264572
         5         4        22        43     9        0.000000        0.751154         3    ;  uncertainty k = 0.137669
         5         4        22        43     9      180.000000       -0.116187         4    ;  uncertainty k = 0.103302
         5         4        23        38     9        0.000000       -0.895310         1    ;  uncertainty k = 0.339458
         5         4        23        38     9      180.000000       -0.491980         2    ;  uncertainty k = 0.208211
         5         4        23        38     9        0.000000        0.541904         3    ;  uncertainty k = 0.078616
         5         4        23        38     9      180.000000       -0.143850         4    ;  uncertainty k = 0.057472
         5         4        23        39     9        0.000000       -0.895310         1    ;  uncertainty k = 0.339458
         5         4        23        39     9      180.000000       -0.491980         2    ;  uncertainty k = 0.208211
         5         4        23        39     9        0.000000        0.541904         3    ;  uncertainty k = 0.078616
         5         4        23        39     9      180.000000       -0.143850         4    ;  uncertainty k = 0.057472
         5         4        23        40     9        0.000000       -0.895310         1    ;  uncertainty k = 0.339458
         5         4        23        40     9      180.000000       -0.491980         2    ;  uncertainty k = 0.208211
         5         4        23        40     9        0.000000        0.541904         3    ;  uncertainty k = 0.078616
         5         4        23        40     9      180.000000       -0.143850         4    ;  uncertainty k = 0.057472
         5         6         1        16     9        0.000000       -2.617429         1    ;  uncertainty k = 0.466751
         5         6         1        16     9      180.000000        0.221334         2    ;  uncertainty k = 0.247311
         5         6         1        16     9        0.000000       -0.043723         3    ;  uncertainty k = 0.160716
         5         6         1        16     9      180.000000        0.179021         4    ;  uncertainty k = 0.134748
         6         1         2        24     9        0.000000       -6.040614         1    ;  uncertainty k = 1.618423
         6         1         2        24     9      180.000000        0.544985         2    ;  uncertainty k = 0.287056
         6         1         2        24     9        0.000000        0.754718         3    ;  uncertainty k = 0.087140
         6         1         2        24     9      180.000000       -0.090723         4    ;  uncertainty k = 0.073236
         6         1         2        25     9        0.000000       -6.040614         1    ;  uncertainty k = 1.618423
         6         1         2        25     9      180.000000        0.544985         2    ;  uncertainty k = 0.287056
         6         1         2        25     9        0.000000        0.754718         3    ;  uncertainty k = 0.087140
         6         1         2        25     9      180.000000       -0.090723         4    ;  uncertainty k = 0.073236
         6         1        16        15     9        0.000000        4.963980         1    ;  uncertainty k = 0.805726
         6         1        16        15     9      180.000000        5.671255         2    ;  uncertainty k = 0.518590
         6         1        16        15     9        0.000000        0.949460         3    ;  uncertainty k = 0.307171
         6         1        16        15     9      180.000000       -0.053750         4    ;  uncertainty k = 0.119055
         6         1        16        17     9        0.000000        5.740308         1    ;  uncertainty k = 1.318689
         6         1        16        17     9      180.000000       10.474383         2    ;  uncertainty k = 0.238713
         6         1        16        17     9        0.000000        0.061352         3    ;  uncertainty k = 0.329931
         6         1        16        17     9      180.000000        0.105074         4    ;  uncertainty k = 0.100872
         6         5         4        22     9        0.000000       -5.055075         1    ;  uncertainty k = 1.234857
         6         5         4        22     9      180.000000       -1.237590         2    ;  uncertainty k = 1.469421
         6         5         4        22     9        0.000000        1.028922         3    ;  uncertainty k = 0.387032
         6         5         4        22     9      180.000000        0.222738         4    ;  uncertainty k = 0.147256
         6         5         4        23     9        0.000000       -4.878559         1    ;  uncertainty k = 0.881604
         6         5         4        23     9      180.000000        1.286241         2    ;  uncertainty k = 0.403706
         6         5         4        23     9        0.000000        0.507921         3    ;  uncertainty k = 0.327321
         6         5         4        23     9      180.000000       -0.188323         4    ;  uncertainty k = 0.113231
         7         8         9        10     9        0.000000       -0.159538         1    ;  uncertainty k = 0.357875
         7         8         9        10     9      180.000000        5.411841         2    ;  uncertainty k = 0.880312
         7         8         9        10     9        0.000000        0.569656         3    ;  uncertainty k = 0.189408
         7         8         9        10     9      180.000000        1.376119         4    ;  uncertainty k = 0.300491
         7         8         9        19     9        0.000000        0.275404         1    ;  uncertainty k = 0.184881
         7         8         9        19     9      180.000000        6.850642         2    ;  uncertainty k = 0.643738
         7         8         9        19     9        0.000000        1.492313         3    ;  uncertainty k = 0.248755
         7         8         9        19     9      180.000000        1.769237         4    ;  uncertainty k = 0.159977
         7        12        11        10     9        0.000000        0.000612         1    ;  uncertainty k = 0.152464
         7        12        11        10     9      180.000000       13.608872         2    ;  uncertainty k = 0.401835
         7        12        11        10     9        0.000000       -0.872117         3    ;  uncertainty k = 0.380022
         7        12        11        10     9      180.000000        0.768610         4    ;  uncertainty k = 0.231686
         7        12        11        42     9        0.000000        0.082758         1    ;  uncertainty k = 0.120029
         7        12        11        42     9      180.000000        7.227271         2    ;  uncertainty k = 0.313429
         7        12        11        42     9        0.000000        1.405237         3    ;  uncertainty k = 0.117772
         7        12        11        42     9      180.000000        1.851437         4    ;  uncertainty k = 0.123146
         7        13        14        15     9        0.000000        0.020776         1    ;  uncertainty k = 0.336356
         7        13        14        15     9      180.000000       15.983554         2    ;  uncertainty k = 0.481504
         7        13        14        15     9        0.000000        2.611486         3    ;  uncertainty k = 0.398078
         7        13        14        15     9      180.000000        1.664031         4    ;  uncertainty k = 0.287592
         7        13        18        17     9        0.000000       -0.378135         1    ;  uncertainty k = 0.913809
         7        13        18        17     9      180.000000        4.055313         2    ;  uncertainty k = 0.689463
         7        13        18        17     9        0.000000        0.031156         3    ;  uncertainty k = 0.412079
         7        13        18        17     9      180.000000        0.848309         4    ;  uncertainty k = 0.515541
         7        13        18        21     9        0.000000        0.285580         1    ;  uncertainty k = 1.103126
         7        13        18        21     9      180.000000        4.631556         2    ;  uncertainty k = 0.867951
         7        13        18        21     9        0.000000        0.490532         3    ;  uncertainty k = 0.441063
         7        13        18        21     9      180.000000        0.595297         4    ;  uncertainty k = 0.405002
         8         7        12        11     9        0.000000       -0.145104         1    ;  uncertainty k = 0.138339
         8         7        12        11     9      180.000000       10.467503         2    ;  uncertainty k = 0.384738
         8         7        12        11     9        0.000000       -0.075599         3    ;  uncertainty k = 0.233575
         8         7        12        11     9      180.000000        1.294726         4    ;  uncertainty k = 0.349369
         8         7        12        33     9        0.000000        0.207830         1    ;  uncertainty k = 0.270857
         8         7        12        33     9      180.000000        7.084752         2    ;  uncertainty k = 0.439168
         8         7        12        33     9        0.000000        1.284526         3    ;  uncertainty k = 0.268032
         8         7        12        33     9      180.000000        1.669796         4    ;  uncertainty k = 0.165167
         8         7        13        14     9        0.000000       -1.859905         1    ;  uncertainty k = 1.396898
         8         7        13        14     9      180.000000        4.937610         2    ;  uncertainty k = 0.398347
         8         7        13        14     9        0.000000        1.090364         3    ;  uncertainty k = 0.429165
         8         7        13        14     9      180.000000        0.198147         4    ;  uncertainty k = 0.149328
         8         7        13        18     9        0.000000        2.934540         1    ;  uncertainty k = 1.889230
         8         7        13        18     9      180.000000        2.902804         2    ;  uncertainty k = 0.821134
         8         7        13        18     9        0.000000        0.935182         3    ;  uncertainty k = 0.531196
         8         7        13        18     9      180.000000        0.260910         4    ;  uncertainty k = 0.184023
         8         9        10        11     9        0.000000        0.002852         1    ;  uncertainty k = 0.111935
         8         9        10        11     9      180.000000        9.686774         2    ;  uncertainty k = 0.296867
         8         9        10        11     9        0.000000        0.091223         3    ;  uncertainty k = 0.576898
         8         9        10        11     9      180.000000        1.248193         4    ;  uncertainty k = 0.301793
         8         9        10        32     9        0.000000        0.160469         1    ;  uncertainty k = 0.115845
         8         9        10        32     9      180.000000        6.143170         2    ;  uncertainty k = 0.584636
         8         9        10        32     9        0.000000        1.422833         3    ;  uncertainty k = 0.370866
         8         9        10        32     9      180.000000        1.585209         4    ;  uncertainty k = 0.191219
         9         8         7        12     9        0.000000        0.042578         1    ;  uncertainty k = 0.617458
         9         8         7        12     9      180.000000        6.768862         2    ;  uncertainty k = 0.605899
         9         8         7        12     9        0.000000        0.394256         3    ;  uncertainty k = 0.397161
         9         8         7        12     9      180.000000        1.312294         4    ;  uncertainty k = 0.281460
         9         8         7        13     9        0.000000        0.044267         1    ;  uncertainty k = 0.349673
         9         8         7        13     9      180.000000        5.936166         2    ;  uncertainty k = 0.452257
         9         8         7        13     9        0.000000        1.454963         3    ;  uncertainty k = 0.421348
         9         8         7        13     9      180.000000        1.794702         4    ;  uncertainty k = 0.126307
         9        10        11        12     9        0.000000        0.032379         1    ;  uncertainty k = 0.116696
         9        10        11        12     9      180.000000       14.345522         2    ;  uncertainty k = 0.160340
         9        10        11        12     9        0.000000       -1.087256         3    ;  uncertainty k = 0.625240
         9        10        11        12     9      180.000000        0.770564         4    ;  uncertainty k = 0.260775
         9        10        11        42     9        0.000000        0.039035         1    ;  uncertainty k = 0.138062
         9        10        11        42     9      180.000000        7.573957         2    ;  uncertainty k = 0.326463
         9        10        11        42     9        0.000000        1.498646         3    ;  uncertainty k = 0.240396
         9        10        11        42     9      180.000000        1.852602         4    ;  uncertainty k = 0.140866
        10         9         8        20     9        0.000000        0.141596         1    ;  uncertainty k = 0.227101
        10         9         8        20     9      180.000000        7.003529         2    ;  uncertainty k = 0.264439
        10         9         8        20     9        0.000000        1.459862         3    ;  uncertainty k = 0.224785
        10         9         8        20     9      180.000000        1.666452         4    ;  uncertainty k = 0.137453
        10        11        12        33     9        0.000000        0.069646         1    ;  uncertainty k = 0.067795
        10        11        12        33     9      180.000000        7.812867         2    ;  uncertainty k = 0.200631
        10        11        12        33     9        0.000000        1.367062         3    ;  uncertainty k = 0.299642
        10        11        12        33     9      180.000000        1.835394         4    ;  uncertainty k = 0.152349
        11        10         9        19     9        0.000000        0.138880         1    ;  uncertainty k = 0.273316
        11        10         9        19     9      180.000000        9.611408         2    ;  uncertainty k = 0.646931
        11        10         9        19     9        0.000000        1.485930         3    ;  uncertainty k = 0.454577
        11        10         9        19     9      180.000000        1.742540         4    ;  uncertainty k = 0.176936
        11        12         7        13     9        0.000000        0.170473         1    ;  uncertainty k = 0.238992
        11        12         7        13     9      180.000000        8.690835         2    ;  uncertainty k = 0.678293
        11        12         7        13     9        0.000000        1.233481         3    ;  uncertainty k = 0.387198
        11        12         7        13     9      180.000000        1.929776         4    ;  uncertainty k = 0.232553
        12         7         8        20     9        0.000000       -0.043268         1    ;  uncertainty k = 0.209440
        12         7         8        20     9      180.000000        7.940215         2    ;  uncertainty k = 0.439889
        12         7         8        20     9        0.000000        1.358164         3    ;  uncertainty k = 0.333733
        12         7         8        20     9      180.000000        1.573476         4    ;  uncertainty k = 0.165260
        12         7        13        14     9        0.000000        0.946332         1    ;  uncertainty k = 0.319530
        12         7        13        14     9      180.000000        5.509606         2    ;  uncertainty k = 0.390541
        12         7        13        14     9        0.000000        0.369315         3    ;  uncertainty k = 0.258785
        12         7        13        14     9      180.000000        0.319202         4    ;  uncertainty k = 0.182437
        12         7        13        18     9        0.000000       -0.402966         1    ;  uncertainty k = 0.504777
        12         7        13        18     9      180.000000        3.729870         2    ;  uncertainty k = 0.278856
        12         7        13        18     9        0.000000        0.518296         3    ;  uncertainty k = 0.318216
        12         7        13        18     9      180.000000        0.243356         4    ;  uncertainty k = 0.123089
        12        11        10        32     9        0.000000        0.131595         1    ;  uncertainty k = 0.106145
        12        11        10        32     9      180.000000        7.555672         2    ;  uncertainty k = 0.306483
        12        11        10        32     9        0.000000        1.476388         3    ;  uncertainty k = 0.228295
        12        11        10        32     9      180.000000        1.782294         4    ;  uncertainty k = 0.178684
        13         7         8        20     9        0.000000       -0.324621         1    ;  uncertainty k = 0.789727
        13         7         8        20     9      180.000000        7.686688         2    ;  uncertainty k = 0.333082
        13         7         8        20     9        0.000000        1.171290         3    ;  uncertainty k = 0.280055
        13         7         8        20     9      180.000000        1.468592         4    ;  uncertainty k = 0.223895
        13         7        12        33     9        0.000000       -0.222909         1    ;  uncertainty k = 0.248015
        13         7        12        33     9      180.000000        7.270592         2    ;  uncertainty k = 0.256845
        13         7        12        33     9        0.000000        0.721046         3    ;  uncertainty k = 0.363120
        13         7        12        33     9      180.000000        1.286006         4    ;  uncertainty k = 0.212429
        13        14        15        16     9        0.000000        0.836343         1    ;  uncertainty k = 1.251644
        13        14        15        16     9      180.000000       10.701251         2    ;  uncertainty k = 0.972052
        13        14        15        16     9        0.000000        1.704087         3    ;  uncertainty k = 0.574952
        13        14        15        16     9      180.000000        1.394168         4    ;  uncertainty k = 0.228084
        13        14        15        34     9        0.000000        0.245635         1    ;  uncertainty k = 1.466019
        13        14        15        34     9      180.000000       14.763892         2    ;  uncertainty k = 0.509610
        13        14        15        34     9        0.000000        2.376058         3    ;  uncertainty k = 0.255316
        13        14        15        34     9      180.000000        1.952680         4    ;  uncertainty k = 0.292624
        13        18        17        16     9        0.000000        1.418049         1    ;  uncertainty k = 1.375790
        13        18        17        16     9      180.000000        7.169789         2    ;  uncertainty k = 0.999828
        13        18        17        16     9        0.000000        1.258225         3    ;  uncertainty k = 0.317071
        13        18        17        16     9      180.000000        1.083067         4    ;  uncertainty k = 0.672524
        13        18        21        35     9        0.000000       10.247584         1    ;  uncertainty k = 0.416139
        13        18        21        35     9      180.000000        5.771928         2    ;  uncertainty k = 0.379170
        13        18        21        35     9        0.000000        0.864561         3    ;  uncertainty k = 0.238678
        13        18        21        35     9      180.000000        0.094088         4    ;  uncertainty k = 0.087029
        13        18        21        36     9        0.000000       10.247584         1    ;  uncertainty k = 0.416139
        13        18        21        36     9      180.000000        5.771928         2    ;  uncertainty k = 0.379170
        13        18        21        36     9        0.000000        0.864561         3    ;  uncertainty k = 0.238678
        13        18        21        36     9      180.000000        0.094088         4    ;  uncertainty k = 0.087029
        14        13        18        17     9        0.000000       -0.918470         1    ;  uncertainty k = 1.027005
        14        13        18        17     9      180.000000        4.790017         2    ;  uncertainty k = 1.352527
        14        13        18        17     9        0.000000       -0.616737         3    ;  uncertainty k = 0.629696
        14        13        18        17     9      180.000000        0.846206         4    ;  uncertainty k = 0.596710
        14        13        18        21     9        0.000000        0.322588         1    ;  uncertainty k = 0.534113
        14        13        18        21     9      180.000000        4.653372         2    ;  uncertainty k = 1.088503
        14        13        18        21     9        0.000000        0.350156         3    ;  uncertainty k = 0.316807
        14        13        18        21     9      180.000000        0.735424         4    ;  uncertainty k = 0.258780
        14        15        16        17     9        0.000000       -1.258502         1    ;  uncertainty k = 1.109369
        14        15        16        17     9      180.000000        2.659558         2    ;  uncertainty k = 0.872841
        14        15        16        17     9        0.000000       -0.683583         3    ;  uncertainty k = 0.496364
        14        15        16        17     9      180.000000        0.454361         4    ;  uncertainty k = 0.501972
        15        14        13        18     9        0.000000        0.728881         1    ;  uncertainty k = 1.164538
        15        14        13        18     9      180.000000       14.422067         2    ;  uncertainty k = 0.399664
        15        14        13        18     9        0.000000        1.723814         3    ;  uncertainty k = 0.259222
        15        14        13        18     9      180.000000        1.308927         4    ;  uncertainty k = 0.213714
        15        16        17        18     9        0.000000        1.418972         1    ;  uncertainty k = 1.008990
        15        16        17        18     9      180.000000        8.425165         2    ;  uncertainty k = 0.816451
        15        16        17        18     9        0.000000        1.231651         3    ;  uncertainty k = 0.623547
        15        16        17        18     9      180.000000        1.030387         4    ;  uncertainty k = 0.257530
        16         1         2        24     9        0.000000        0.794680         1    ;  uncertainty k = 0.277143
        16         1         2        24     9      180.000000       -1.167551         2    ;  uncertainty k = 0.200821
        16         1         2        24     9        0.000000       -0.060832         3    ;  uncertainty k = 0.111877
        16         1         2        24     9      180.000000        0.240800         4    ;  uncertainty k = 0.060891
        16         1         2        25     9        0.000000        0.794680         1    ;  uncertainty k = 0.277143
        16         1         2        25     9      180.000000       -1.167551         2    ;  uncertainty k = 0.200821
        16         1         2        25     9        0.000000       -0.060832         3    ;  uncertainty k = 0.111877
        16         1         2        25     9      180.000000        0.240800         4    ;  uncertainty k = 0.060891
        16         1         6        30     9        0.000000        0.794680         1    ;  uncertainty k = 0.277143
        16         1         6        30     9      180.000000       -1.167551         2    ;  uncertainty k = 0.200821
        16         1         6        30     9        0.000000       -0.060832         3    ;  uncertainty k = 0.111877
        16         1         6        30     9      180.000000        0.240800         4    ;  uncertainty k = 0.060891
        16         1         6        31     9        0.000000        0.794680         1    ;  uncertainty k = 0.277143
        16         1         6        31     9      180.000000       -1.167551         2    ;  uncertainty k = 0.200821
        16         1         6        31     9        0.000000       -0.060832         3    ;  uncertainty k = 0.111877
        16         1         6        31     9      180.000000        0.240800         4    ;  uncertainty k = 0.060891
        16        17        18        21     9        0.000000        0.395839         1    ;  uncertainty k = 1.323298
        16        17        18        21     9      180.000000       13.653864         2    ;  uncertainty k = 0.352406
        16        17        18        21     9        0.000000        2.558842         3    ;  uncertainty k = 0.455585
        16        17        18        21     9      180.000000        1.731732         4    ;  uncertainty k = 0.089934
        17        16        15        34     9        0.000000       -0.441147         1    ;  uncertainty k = 1.938378
        17        16        15        34     9      180.000000        1.797496         2    ;  uncertainty k = 2.063944
        17        16        15        34     9        0.000000        0.500939         3    ;  uncertainty k = 0.711347
        17        16        15        34     9      180.000000        0.679283         4    ;  uncertainty k = 0.380302
        17        18        21        35     9        0.000000       19.836678         1    ;  uncertainty k = 0.209114
        17        18        21        35     9      180.000000       10.980317         2    ;  uncertainty k = 0.334415
        17        18        21        35     9        0.000000        0.460508         3    ;  uncertainty k = 0.070905
        17        18        21        35     9      180.000000       -0.284033         4    ;  uncertainty k = 0.219524
        17        18        21        36     9        0.000000       19.836678         1    ;  uncertainty k = 0.209114
        17        18        21        36     9      180.000000       10.980317         2    ;  uncertainty k = 0.334415
        17        18        21        36     9        0.000000        0.460508         3    ;  uncertainty k = 0.070905
        17        18        21        36     9      180.000000       -0.284033         4    ;  uncertainty k = 0.219524
        19         9         8        20     9        0.000000        0.127028         1    ;  uncertainty k = 0.458559
        19         9         8        20     9      180.000000        7.584079         2    ;  uncertainty k = 0.298205
        19         9         8        20     9        0.000000        1.208450         3    ;  uncertainty k = 0.256922
        19         9         8        20     9      180.000000        1.439487         4    ;  uncertainty k = 0.242719
        19         9        10        32     9        0.000000       -0.183324         1    ;  uncertainty k = 0.309109
        19         9        10        32     9      180.000000        7.615952         2    ;  uncertainty k = 0.378043
        19         9        10        32     9        0.000000        0.553325         3    ;  uncertainty k = 0.272076
        19         9        10        32     9      180.000000        1.023076         4    ;  uncertainty k = 0.167401
        22         4         3        26     9        0.000000       -0.953768         1    ;  uncertainty k = 0.757469
        22         4         3        26     9      180.000000       -1.816826         2    ;  uncertainty k = 0.442932
        22         4         3        26     9        0.000000        0.532727         3    ;  uncertainty k = 0.157901
        22         4         3        26     9      180.000000       -0.244066         4    ;  uncertainty k = 0.144685
        22         4         3        27     9        0.000000       -0.953768         1    ;  uncertainty k = 0.757469
        22         4         3        27     9      180.000000       -1.816826         2    ;  uncertainty k = 0.442932
        22         4         3        27     9        0.000000        0.532727         3    ;  uncertainty k = 0.157901
        22         4         3        27     9      180.000000       -0.244066         4    ;  uncertainty k = 0.144685
        22         4         5        28     9        0.000000       -0.953768         1    ;  uncertainty k = 0.757469
        22         4         5        28     9      180.000000       -1.816826         2    ;  uncertainty k = 0.442932
        22         4         5        28     9        0.000000        0.532727         3    ;  uncertainty k = 0.157901
        22         4         5        28     9      180.000000       -0.244066         4    ;  uncertainty k = 0.144685
        22         4         5        29     9        0.000000       -0.953768         1    ;  uncertainty k = 0.757469
        22         4         5        29     9      180.000000       -1.816826         2    ;  uncertainty k = 0.442932
        22         4         5        29     9        0.000000        0.532727         3    ;  uncertainty k = 0.157901
        22         4         5        29     9      180.000000       -0.244066         4    ;  uncertainty k = 0.144685
        22         4        23        38     9        0.000000       -1.658331         1    ;  uncertainty k = 1.431247
        22         4        23        38     9      180.000000       -2.618283         2    ;  uncertainty k = 0.451254
        22         4        23        38     9        0.000000        0.778238         3    ;  uncertainty k = 0.254191
        22         4        23        38     9      180.000000       -0.194334         4    ;  uncertainty k = 0.172568
        22         4        23        39     9        0.000000       -1.658331         1    ;  uncertainty k = 1.431247
        22         4        23        39     9      180.000000       -2.618283         2    ;  uncertainty k = 0.451254
        22         4        23        39     9        0.000000        0.778238         3    ;  uncertainty k = 0.254191
        22         4        23        39     9      180.000000       -0.194334         4    ;  uncertainty k = 0.172568
        22         4        23        40     9        0.000000       -1.658331         1    ;  uncertainty k = 1.431247
        22         4        23        40     9      180.000000       -2.618283         2    ;  uncertainty k = 0.451254
        22         4        23        40     9        0.000000        0.778238         3    ;  uncertainty k = 0.254191
        22         4        23        40     9      180.000000       -0.194334         4    ;  uncertainty k = 0.172568
        23         4         3        26     9        0.000000       -0.343027         1    ;  uncertainty k = 0.403494
        23         4         3        26     9      180.000000       -0.061672         2    ;  uncertainty k = 0.389275
        23         4         3        26     9        0.000000        0.274791         3    ;  uncertainty k = 0.213691
        23         4         3        26     9      180.000000       -0.053928         4    ;  uncertainty k = 0.077784
        23         4         3        27     9        0.000000       -0.343027         1    ;  uncertainty k = 0.403494
        23         4         3        27     9      180.000000       -0.061672         2    ;  uncertainty k = 0.389275
        23         4         3        27     9        0.000000        0.274791         3    ;  uncertainty k = 0.213691
        23         4         3        27     9      180.000000       -0.053928         4    ;  uncertainty k = 0.077784
        23         4         5        28     9        0.000000       -0.343027         1    ;  uncertainty k = 0.403494
        23         4         5        28     9      180.000000       -0.061672         2    ;  uncertainty k = 0.389275
        23         4         5        28     9        0.000000        0.274791         3    ;  uncertainty k = 0.213691
        23         4         5        28     9      180.000000       -0.053928         4    ;  uncertainty k = 0.077784
        23         4         5        29     9        0.000000       -0.343027         1    ;  uncertainty k = 0.403494
        23         4         5        29     9      180.000000       -0.061672         2    ;  uncertainty k = 0.389275
        23         4         5        29     9        0.000000        0.274791         3    ;  uncertainty k = 0.213691
        23         4         5        29     9      180.000000       -0.053928         4    ;  uncertainty k = 0.077784
        23         4        22        37     9        0.000000        0.214189         1    ;  uncertainty k = 1.165375
        23         4        22        37     9      180.000000       -0.101715         2    ;  uncertainty k = 0.387077
        23         4        22        37     9        0.000000        0.750310         3    ;  uncertainty k = 0.221539
        23         4        22        37     9      180.000000       -0.027140         4    ;  uncertainty k = 0.139765
        23         4        22        41     9        0.000000        0.214189         1    ;  uncertainty k = 1.165375
        23         4        22        41     9      180.000000       -0.101715         2    ;  uncertainty k = 0.387077
        23         4        22        41     9        0.000000        0.750310         3    ;  uncertainty k = 0.221539
        23         4        22        41     9      180.000000       -0.027140         4    ;  uncertainty k = 0.139765
        23         4        22        43     9        0.000000        0.214189         1    ;  uncertainty k = 1.165375
        23         4        22        43     9      180.000000       -0.101715         2    ;  uncertainty k = 0.387077
        23         4        22        43     9        0.000000        0.750310         3    ;  uncertainty k = 0.221539
        23         4        22        43     9      180.000000       -0.027140         4    ;  uncertainty k = 0.139765
        24         2         3        26     9        0.000000        0.162384         1    ;  uncertainty k = 0.265700
        24         2         3        26     9      180.000000        0.408483         2    ;  uncertainty k = 0.376463
        24         2         3        26     9        0.000000        0.143449         3    ;  uncertainty k = 0.090528
        24         2         3        26     9      180.000000       -0.135942         4    ;  uncertainty k = 0.141032
        24         2         3        27     9        0.000000        0.162384         1    ;  uncertainty k = 0.265700
        24         2         3        27     9      180.000000        0.408483         2    ;  uncertainty k = 0.376463
        24         2         3        27     9        0.000000        0.143449         3    ;  uncertainty k = 0.090528
        24         2         3        27     9      180.000000       -0.135942         4    ;  uncertainty k = 0.141032
        25         2         3        26     9        0.000000        0.162384         1    ;  uncertainty k = 0.265700
        25         2         3        26     9      180.000000        0.408483         2    ;  uncertainty k = 0.376463
        25         2         3        26     9        0.000000        0.143449         3    ;  uncertainty k = 0.090528
        25         2         3        26     9      180.000000       -0.135942         4    ;  uncertainty k = 0.141032
        25         2         3        27     9        0.000000        0.162384         1    ;  uncertainty k = 0.265700
        25         2         3        27     9      180.000000        0.408483         2    ;  uncertainty k = 0.376463
        25         2         3        27     9        0.000000        0.143449         3    ;  uncertainty k = 0.090528
        25         2         3        27     9      180.000000       -0.135942         4    ;  uncertainty k = 0.141032
        28         5         6        30     9        0.000000        0.162384         1    ;  uncertainty k = 0.265700
        28         5         6        30     9      180.000000        0.408483         2    ;  uncertainty k = 0.376463
        28         5         6        30     9        0.000000        0.143449         3    ;  uncertainty k = 0.090528
        28         5         6        30     9      180.000000       -0.135942         4    ;  uncertainty k = 0.141032
        28         5         6        31     9        0.000000        0.162384         1    ;  uncertainty k = 0.265700
        28         5         6        31     9      180.000000        0.408483         2    ;  uncertainty k = 0.376463
        28         5         6        31     9        0.000000        0.143449         3    ;  uncertainty k = 0.090528
        28         5         6        31     9      180.000000       -0.135942         4    ;  uncertainty k = 0.141032
        29         5         6        30     9        0.000000        0.162384         1    ;  uncertainty k = 0.265700
        29         5         6        30     9      180.000000        0.408483         2    ;  uncertainty k = 0.376463
        29         5         6        30     9        0.000000        0.143449         3    ;  uncertainty k = 0.090528
        29         5         6        30     9      180.000000       -0.135942         4    ;  uncertainty k = 0.141032
        29         5         6        31     9        0.000000        0.162384         1    ;  uncertainty k = 0.265700
        29         5         6        31     9      180.000000        0.408483         2    ;  uncertainty k = 0.376463
        29         5         6        31     9        0.000000        0.143449         3    ;  uncertainty k = 0.090528
        29         5         6        31     9      180.000000       -0.135942         4    ;  uncertainty k = 0.141032
        32        10        11        42     9        0.000000       -0.063231         1    ;  uncertainty k = 0.143919
        32        10        11        42     9      180.000000        7.894391         2    ;  uncertainty k = 0.469259
        32        10        11        42     9        0.000000       -0.422798         3    ;  uncertainty k = 0.255830
        32        10        11        42     9      180.000000        0.044530         4    ;  uncertainty k = 0.174749
        33        12        11        42     9        0.000000       -0.025737         1    ;  uncertainty k = 0.216295
        33        12        11        42     9      180.000000        7.946947         2    ;  uncertainty k = 0.428487
        33        12        11        42     9        0.000000       -0.407574         3    ;  uncertainty k = 0.245417
        33        12        11        42     9      180.000000        0.167857         4    ;  uncertainty k = 0.135379

[ dihedrals ] ; impropers
;       ai        aj        ak        al funct           phase               k        pn
         1         2         6        16     4      180.000000        0.208495         2    ;  uncertainty k = 0.466210
         1         6        16         2     4      180.000000        0.208495         2    ;  uncertainty k = 0.466210
         1        16         2         6     4      180.000000        0.208495         2    ;  uncertainty k = 0.466210
         7         8        12        13     4      180.000000       13.995834         2    ;  uncertainty k = 0.037304
         7        12        13         8     4      180.000000       13.995834         2    ;  uncertainty k = 0.037304
         7        13         8        12     4      180.000000       13.995834         2    ;  uncertainty k = 0.037304
         8         7         9        20     4      180.000000       13.861115         2    ;  uncertainty k = 0.055573
         8         9        20         7     4      180.000000       13.861115         2    ;  uncertainty k = 0.055573
         8        20         7         9     4      180.000000       13.861115         2    ;  uncertainty k = 0.055573
         9         8        10        19     4      180.000000       13.291986         2    ;  uncertainty k = 0.070510
         9        10        19         8     4      180.000000       13.291986         2    ;  uncertainty k = 0.070510
         9        19         8        10     4      180.000000       13.291986         2    ;  uncertainty k = 0.070510
        10         9        11        32     4      180.000000        3.899337         2    ;  uncertainty k = 0.119505
        10        11        32         9     4      180.000000        3.899337         2    ;  uncertainty k = 0.119505
        10        32         9        11     4      180.000000        3.899337         2    ;  uncertainty k = 0.119505
        11        10        12        42     4      180.000000        4.055680         2    ;  uncertainty k = 0.065234
        11        12        42        10     4      180.000000        4.055680         2    ;  uncertainty k = 0.065234
        11        42        10        12     4      180.000000        4.055680         2    ;  uncertainty k = 0.065234
        12         7        11        33     4      180.000000        3.981769         2    ;  uncertainty k = 0.113108
        12        11        33         7     4      180.000000        3.981769         2    ;  uncertainty k = 0.113108
        12        33         7        11     4      180.000000        3.981769         2    ;  uncertainty k = 0.113108
        13         7        14        18     4      180.000000       17.484490         2    ;  uncertainty k = 0.132916
        13        14        18         7     4      180.000000       17.484490         2    ;  uncertainty k = 0.132916
        13        18         7        14     4      180.000000       17.484490         2    ;  uncertainty k = 0.132916
        15        14        16        34     4      180.000000       19.265033         2    ;  uncertainty k = 0.186066
        15        16        34        14     4      180.000000       19.265033         2    ;  uncertainty k = 0.186066
        15        34        14        16     4      180.000000       19.265033         2    ;  uncertainty k = 0.186066
        16         1        15        17     4      180.000000       31.678904         2    ;  uncertainty k = 0.090872
        16        15        17         1     4      180.000000       31.678904         2    ;  uncertainty k = 0.090872
        16        17         1        15     4      180.000000       31.678904         2    ;  uncertainty k = 0.090872
        18        13        17        21     4      180.000000       31.099943         2    ;  uncertainty k = 0.062204
        18        17        21        13     4      180.000000       31.099943         2    ;  uncertainty k = 0.062204
        18        21        13        17     4      180.000000       31.099943         2    ;  uncertainty k = 0.062204
        21        18        35        36     4      180.000000        0.436818         2    ;  uncertainty k = 0.626872
        21        35        36        18     4      180.000000        0.436818         2    ;  uncertainty k = 0.626872
        21        36        18        35     4      180.000000        0.436818         2    ;  uncertainty k = 0.626872

[ pairs ]
;       ai        aj funct
         1         4     1
         1        14     1
         1        18     1
         1        26     1
         1        27     1
         1        28     1
         1        29     1
         1        34     1
         2         5     1
         2        15     1
         2        17     1
         2        22     1
         2        23     1
         2        30     1
         2        31     1
         3         6     1
         3        16     1
         3        28     1
         3        29     1
         3        37     1
         3        38     1
         3        39     1
         3        40     1
         3        41     1
         3        43     1
         4        24     1
         4        25     1
         4        30     1
         4        31     1
         5        16     1
         5        26     1
         5        27     1
         5        37     1
         5        38     1
         5        39     1
         5        40     1
         5        41     1
         5        43     1
         6        15     1
         6        17     1
         6        22     1
         6        23     1
         6        24     1
         6        25     1
         7        10     1
         7        15     1
         7        17     1
         7        19     1
         7        21     1
         7        42     1
         8        11     1
         8        14     1
         8        18     1
         8        32     1
         8        33     1
         9        12     1
         9        13     1
         9        42     1
        10        20     1
        10        33     1
        11        13     1
        11        19     1
        12        14     1
        12        18     1
        12        20     1
        12        32     1
        13        16     1
        13        20     1
        13        33     1
        13        34     1
        13        35     1
        13        36     1
        14        17     1
        14        21     1
        15        18     1
        16        21     1
        16        24     1
        16        25     1
        16        30     1
        16        31     1
        17        34     1
        17        35     1
        17        36     1
        19        20     1
        19        32     1
        22        26     1
        22        27     1
        22        28     1
        22        29     1
        22        38     1
        22        39     1
        22        40     1
        23        26     1
        23        27     1
        23        28     1
        23        29     1
        23        37     1
        23        41     1
        23        43     1
        24        26     1
        24        27     1
        25        26     1
        25        27     1
        28        30     1
        28        31     1
        29        30     1
        29        31     1
        32        42     1
        33        42     1
