; ITP file created by ByteFF-joint-25, 2026-02-17 09:36:30.352441

[ atomtypes ]
;name           bonded.type        at.num        mass        charge   ptype           sigma         epsilon
 n0bf                                   7      0.0000       0.00000       A     3.19062e-01     9.00857e-01    ;  uncertainty sigma = 0.000027, epsilon = 0.004020
 c1bf                                   6      0.0000       0.00000       A     3.39779e-01     4.50373e-01    ;  uncertainty sigma = 0.000021, epsilon = 0.001041
 c2bf                                   6      0.0000       0.00000       A     3.39768e-01     4.51100e-01    ;  uncertainty sigma = 0.000021, epsilon = 0.000603
 c3bf                                   6      0.0000       0.00000       A     3.39788e-01     4.49780e-01    ;  uncertainty sigma = 0.000038, epsilon = 0.001520
 c4bf                                   6      0.0000       0.00000       A     3.39768e-01     4.51100e-01    ;  uncertainty sigma = 0.000021, epsilon = 0.000603
 c5bf                                   6      0.0000       0.00000       A     3.39779e-01     4.50373e-01    ;  uncertainty sigma = 0.000021, epsilon = 0.001041
 c6bf                                   6      0.0000       0.00000       A     3.31516e-01     4.13129e-01    ;  uncertainty sigma = 0.000014, epsilon = 0.000764
 c7bf                                   6      0.0000       0.00000       A     3.31527e-01     4.13351e-01    ;  uncertainty sigma = 0.000011, epsilon = 0.000975
 c8bf                                   6      0.0000       0.00000       A     3.39791e-01     4.50628e-01    ;  uncertainty sigma = 0.000015, epsilon = 0.000831
 c9bf                                   6      0.0000       0.00000       A     3.39769e-01     4.50906e-01    ;  uncertainty sigma = 0.000007, epsilon = 0.000571
 c10bf                                  6      0.0000       0.00000       A     3.39772e-01     4.50898e-01    ;  uncertainty sigma = 0.000004, epsilon = 0.000603
 c11bf                                  6      0.0000       0.00000       A     3.39783e-01     4.50848e-01    ;  uncertainty sigma = 0.000004, epsilon = 0.001562
 c12bf                                  6      0.0000       0.00000       A     3.31512e-01     4.13231e-01    ;  uncertainty sigma = 0.000014, epsilon = 0.001012
 n13bf                                  7      0.0000       0.00000       A     3.38429e-01     3.93732e-01    ;  uncertainty sigma = 0.000017, epsilon = 0.000360
 c14bf                                  6      0.0000       0.00000       A     3.31522e-01     4.13268e-01    ;  uncertainty sigma = 0.000013, epsilon = 0.001611
 c15bf                                  6      0.0000       0.00000       A     3.31484e-01     4.13405e-01    ;  uncertainty sigma = 0.000017, epsilon = 0.000785
 n16bf                                  7      0.0000       0.00000       A     3.38422e-01     3.93553e-01    ;  uncertainty sigma = 0.000035, epsilon = 0.000671
 c17bf                                  6      0.0000       0.00000       A     3.31451e-01     4.12044e-01    ;  uncertainty sigma = 0.000024, epsilon = 0.001735
 n18bf                                  7      0.0000       0.00000       A     3.36853e-01     4.67683e-01    ;  uncertainty sigma = 0.000054, epsilon = 0.002539
 n19bf                                  7      0.0000       0.00000       A     2.77101e-01     4.77733e+00    ;  uncertainty sigma = 0.000102, epsilon = 0.025603
 c20bf                                  6      0.0000       0.00000       A     3.39744e-01     4.51058e-01    ;  uncertainty sigma = 0.000018, epsilon = 0.000674
 h21bf                                  1      0.0000       0.00000       A     2.42223e-01     8.69234e-02    ;  uncertainty sigma = 0.000017, epsilon = 0.000659
 h22bf                                  1      0.0000       0.00000       A     2.42223e-01     8.69234e-02    ;  uncertainty sigma = 0.000017, epsilon = 0.000659
 h23bf                                  1      0.0000       0.00000       A     2.60047e-01     8.66236e-02    ;  uncertainty sigma = 0.000026, epsilon = 0.001019
 h24bf                                  1      0.0000       0.00000       A     2.60047e-01     8.66235e-02    ;  uncertainty sigma = 0.000026, epsilon = 0.001019
 h25bf                                  1      0.0000       0.00000       A     2.60047e-01     8.66235e-02    ;  uncertainty sigma = 0.000026, epsilon = 0.001019
 h26bf                                  1      0.0000       0.00000       A     2.60047e-01     8.66235e-02    ;  uncertainty sigma = 0.000026, epsilon = 0.001019
 h27bf                                  1      0.0000       0.00000       A     2.42223e-01     8.69235e-02    ;  uncertainty sigma = 0.000017, epsilon = 0.000659
 h28bf                                  1      0.0000       0.00000       A     2.42223e-01     8.69235e-02    ;  uncertainty sigma = 0.000017, epsilon = 0.000659
 h29bf                                  1      0.0000       0.00000       A     2.62616e-01     6.68549e-02    ;  uncertainty sigma = 0.000038, epsilon = 0.000824
 h30bf                                  1      0.0000       0.00000       A     2.60038e-01     8.70630e-02    ;  uncertainty sigma = 0.000005, epsilon = 0.000501
 h31bf                                  1      0.0000       0.00000       A     2.60038e-01     8.70630e-02    ;  uncertainty sigma = 0.000005, epsilon = 0.000501
 h32bf                                  1      0.0000       0.00000       A     2.60033e-01     8.66905e-02    ;  uncertainty sigma = 0.000012, epsilon = 0.000669
 h33bf                                  1      0.0000       0.00000       A     2.60033e-01     8.66905e-02    ;  uncertainty sigma = 0.000012, epsilon = 0.000669
 h34bf                                  1      0.0000       0.00000       A     2.60034e-01     8.66603e-02    ;  uncertainty sigma = 0.000014, epsilon = 0.000621
 h35bf                                  1      0.0000       0.00000       A     2.60034e-01     8.66603e-02    ;  uncertainty sigma = 0.000014, epsilon = 0.000621
 h36bf                                  1      0.0000       0.00000       A     2.60025e-01     8.67752e-02    ;  uncertainty sigma = 0.000008, epsilon = 0.000777
 h37bf                                  1      0.0000       0.00000       A     2.60025e-01     8.67752e-02    ;  uncertainty sigma = 0.000008, epsilon = 0.000777
 h38bf                                  1      0.0000       0.00000       A     2.53617e-01     6.68290e-02    ;  uncertainty sigma = 0.000021, epsilon = 0.000902
 h39bf                                  1      0.0000       0.00000       A     1.10722e-01     4.12462e-02    ;  uncertainty sigma = 0.000082, epsilon = 0.000527
 h40bf                                  1      0.0000       0.00000       A     1.10722e-01     4.12462e-02    ;  uncertainty sigma = 0.000082, epsilon = 0.000527
 h41bf                                  1      0.0000       0.00000       A     1.10744e-01     4.05584e-02    ;  uncertainty sigma = 0.000197, epsilon = 0.001139
 h42bf                                  1      0.0000       0.00000       A     1.10744e-01     4.05584e-02    ;  uncertainty sigma = 0.000197, epsilon = 0.001139
 h43bf                                  1      0.0000       0.00000       A     2.60029e-01     8.68919e-02    ;  uncertainty sigma = 0.000018, epsilon = 0.000792
 h44bf                                  1      0.0000       0.00000       A     2.60029e-01     8.68919e-02    ;  uncertainty sigma = 0.000018, epsilon = 0.000792
 h45bf                                  1      0.0000       0.00000       A     2.60029e-01     8.68919e-02    ;  uncertainty sigma = 0.000018, epsilon = 0.000792
 h46bf                                  1      0.0000       0.00000       A     1.10744e-01     4.05584e-02    ;  uncertainty sigma = 0.000197, epsilon = 0.001139

[ moleculetype ]
;name             nrexcl
 MOL                   3

[ atoms ]
;       nr            type      resi   res      atom      cgnr      charge          mass ; qtot
         1            n0bf         1   UNL        n0         1    -0.77950       14.0070 ; qtot   -0.779
         2            c1bf         1   UNL        c1         2     0.22038       12.0110 ; qtot   -0.559
         3            c2bf         1   UNL        c2         3    -0.11719       12.0110 ; qtot   -0.676
         4            c3bf         1   UNL        c3         4     0.18791       12.0110 ; qtot   -0.488
         5            c4bf         1   UNL        c4         5    -0.11719       12.0110 ; qtot   -0.606
         6            c5bf         1   UNL        c5         6     0.22038       12.0110 ; qtot   -0.385
         7            c6bf         1   UNL        c6         7    -0.18739       12.0110 ; qtot   -0.573
         8            c7bf         1   UNL        c7         8    -0.13821       12.0110 ; qtot   -0.711
         9            c8bf         1   UNL        c8         9    -0.04553       12.0110 ; qtot   -0.756
        10            c9bf         1   UNL        c9        10    -0.07512       12.0110 ; qtot   -0.831
        11           c10bf         1   UNL       c10        11    -0.07544       12.0110 ; qtot   -0.907
        12           c11bf         1   UNL       c11        12    -0.03588       12.0110 ; qtot   -0.943
        13           c12bf         1   UNL       c12        13     0.27576       12.0110 ; qtot   -0.667
        14           n13bf         1   UNL       n13        14    -0.59609       14.0070 ; qtot   -1.263
        15           c14bf         1   UNL       c14        15     0.18974       12.0110 ; qtot   -1.073
        16           c15bf         1   UNL       c15        16     0.60668       12.0110 ; qtot   -0.467
        17           n16bf         1   UNL       n16        17    -0.80490       14.0070 ; qtot   -1.272
        18           c17bf         1   UNL       c17        18     0.56341       12.0110 ; qtot   -0.708
        19           n18bf         1   UNL       n18        19    -0.91347       14.0070 ; qtot   -1.622
        20           n19bf         1   UNL       n19        20    -0.86673       14.0070 ; qtot   -2.488
        21           c20bf         1   UNL       c20        21    -0.13034       12.0110 ; qtot   -2.619
        22           h21bf         1   UNL       h21        22     0.07413        1.0080 ; qtot   -2.545
        23           h22bf         1   UNL       h22        23     0.07413        1.0080 ; qtot   -2.470
        24           h23bf         1   UNL       h23        24     0.08278        1.0080 ; qtot   -2.388
        25           h24bf         1   UNL       h24        25     0.08278        1.0080 ; qtot   -2.305
        26           h25bf         1   UNL       h25        26     0.08278        1.0080 ; qtot   -2.222
        27           h26bf         1   UNL       h26        27     0.08278        1.0080 ; qtot   -2.139
        28           h27bf         1   UNL       h27        28     0.07413        1.0080 ; qtot   -2.065
        29           h28bf         1   UNL       h28        29     0.07413        1.0080 ; qtot   -1.991
        30           h29bf         1   UNL       h29        30     0.13116        1.0080 ; qtot   -1.860
        31           h30bf         1   UNL       h30        31     0.04876        1.0080 ; qtot   -1.811
        32           h31bf         1   UNL       h31        32     0.04876        1.0080 ; qtot   -1.762
        33           h32bf         1   UNL       h32        33     0.04163        1.0080 ; qtot   -1.721
        34           h33bf         1   UNL       h33        34     0.04163        1.0080 ; qtot   -1.679
        35           h34bf         1   UNL       h34        35     0.04226        1.0080 ; qtot   -1.637
        36           h35bf         1   UNL       h35        36     0.04226        1.0080 ; qtot   -1.595
        37           h36bf         1   UNL       h36        37     0.05306        1.0080 ; qtot   -1.542
        38           h37bf         1   UNL       h37        38     0.05306        1.0080 ; qtot   -1.488
        39           h38bf         1   UNL       h38        39     0.02955        1.0080 ; qtot   -1.459
        40           h39bf         1   UNL       h39        40     0.41651        1.0080 ; qtot   -1.042
        41           h40bf         1   UNL       h40        41     0.41651        1.0080 ; qtot   -0.626
        42           h41bf         1   UNL       h41        42     0.46464        1.0080 ; qtot   -0.161
        43           h42bf         1   UNL       h42        43     0.46464        1.0080 ; qtot    0.303
        44           h43bf         1   UNL       h43        44     0.07734        1.0080 ; qtot    0.381
        45           h44bf         1   UNL       h44        45     0.07734        1.0080 ; qtot    0.458
        46           h45bf         1   UNL       h45        46     0.07734        1.0080 ; qtot    0.535
        47           h46bf         1   UNL       h46        47     0.46463        1.0080 ; qtot    1.000

[ bonds ]
;       ai        aj funct               r               k
         1         2     1        0.145116   246038.889111    ;  uncertainty r = 0.000148, k = 11.317806
         1         6     1        0.145116   246038.889111    ;  uncertainty r = 0.000148, k = 11.317806
         1        16     1        0.138743   307034.504688    ;  uncertainty r = 0.000383, k = 20.107871
         2         3     1        0.153941   208852.159033    ;  uncertainty r = 0.000214, k = 12.207009
         2        22     1        0.109563   306873.365527    ;  uncertainty r = 0.000048, k = 2.016888
         2        23     1        0.109563   306873.365527    ;  uncertainty r = 0.000048, k = 2.016888
         3         4     1        0.153676   203189.241187    ;  uncertainty r = 0.000166, k = 7.265986
         3        24     1        0.109591   310533.497266    ;  uncertainty r = 0.000042, k = 1.839160
         3        25     1        0.109591   310533.497266    ;  uncertainty r = 0.000042, k = 1.839138
         4         5     1        0.153676   203189.241187    ;  uncertainty r = 0.000166, k = 7.265986
         4        20     1        0.155122   197292.186353    ;  uncertainty r = 0.000211, k = 49.108522
         4        21     1        0.152893   210290.434570    ;  uncertainty r = 0.000125, k = 13.841188
         5         6     1        0.153941   208852.159033    ;  uncertainty r = 0.000214, k = 12.207009
         5        26     1        0.109591   310533.497266    ;  uncertainty r = 0.000042, k = 1.839138
         5        27     1        0.109591   310533.497266    ;  uncertainty r = 0.000042, k = 1.839138
         6        28     1        0.109563   306873.391064    ;  uncertainty r = 0.000048, k = 2.016873
         6        29     1        0.109563   306873.391064    ;  uncertainty r = 0.000048, k = 2.016873
         7         8     1        0.134337   450802.454785    ;  uncertainty r = 0.000080, k = 7.628619
         7        12     1        0.151314   225440.758838    ;  uncertainty r = 0.000108, k = 3.968025
         7        13     1        0.147918   271424.435742    ;  uncertainty r = 0.000115, k = 14.751264
         8         9     1        0.150534   237195.566895    ;  uncertainty r = 0.000054, k = 3.973190
         8        30     1        0.108918   334797.019922    ;  uncertainty r = 0.000034, k = 4.209813
         9        10     1        0.153382   216583.901953    ;  uncertainty r = 0.000056, k = 0.761808
         9        31     1        0.109966   305517.447168    ;  uncertainty r = 0.000030, k = 2.428593
         9        32     1        0.109966   305517.447168    ;  uncertainty r = 0.000030, k = 2.428593
        10        11     1        0.153226   215698.504834    ;  uncertainty r = 0.000041, k = 3.809925
        10        33     1        0.109731   306553.640918    ;  uncertainty r = 0.000009, k = 1.726845
        10        34     1        0.109731   306553.640918    ;  uncertainty r = 0.000009, k = 1.726845
        11        12     1        0.153426   214462.789648    ;  uncertainty r = 0.000029, k = 2.116846
        11        35     1        0.109725   306452.820410    ;  uncertainty r = 0.000017, k = 1.931887
        11        36     1        0.109725   306452.820410    ;  uncertainty r = 0.000017, k = 1.931887
        12        37     1        0.109794   307228.484570    ;  uncertainty r = 0.000032, k = 1.708951
        12        38     1        0.109794   307228.510107    ;  uncertainty r = 0.000032, k = 1.708951
        13        14     1        0.133501   375403.960596    ;  uncertainty r = 0.000105, k = 16.618065
        13        18     1        0.140257   417240.947217    ;  uncertainty r = 0.000409, k = 24.272694
        14        15     1        0.132208   412767.279785    ;  uncertainty r = 0.000201, k = 16.028397
        15        16     1        0.139967   406889.965137    ;  uncertainty r = 0.000093, k = 16.446583
        15        39     1        0.109060   342880.485449    ;  uncertainty r = 0.000053, k = 1.865874
        16        17     1        0.135019   372246.016113    ;  uncertainty r = 0.000110, k = 22.193389
        17        18     1        0.135664   502293.796680    ;  uncertainty r = 0.000153, k = 17.857860
        18        19     1        0.140911   496794.124805    ;  uncertainty r = 0.000322, k = 36.588378
        19        40     1        0.101785   426691.592969    ;  uncertainty r = 0.000056, k = 2.632575
        19        41     1        0.101785   426691.592969    ;  uncertainty r = 0.000056, k = 2.632575
        20        42     1        0.102893   408930.686621    ;  uncertainty r = 0.000060, k = 6.495046
        20        43     1        0.102893   408930.686621    ;  uncertainty r = 0.000060, k = 6.495046
        20        47     1        0.102893   408930.686621    ;  uncertainty r = 0.000060, k = 6.495046
        21        44     1        0.109485   313302.332813    ;  uncertainty r = 0.000023, k = 3.037343
        21        45     1        0.109485   313302.332813    ;  uncertainty r = 0.000023, k = 3.037343
        21        46     1        0.109485   313302.332813    ;  uncertainty r = 0.000023, k = 3.037343

[ angles ]
;       ai        aj        ak funct           theta             cth
         1         2         3     1      109.827858      689.645408    ;  uncertainty theta = 0.002463, k = 0.163217
         1         2        22     1      107.087479      464.005702    ;  uncertainty theta = 0.001580, k = 0.039925
         1         2        23     1      107.087479      464.005702    ;  uncertainty theta = 0.001580, k = 0.039925
         1         6         5     1      109.827858      689.645408    ;  uncertainty theta = 0.002463, k = 0.163217
         1         6        28     1      107.087479      464.005702    ;  uncertainty theta = 0.001580, k = 0.039925
         1         6        29     1      107.087479      464.005702    ;  uncertainty theta = 0.001580, k = 0.039925
         1        16        15     1      120.608902      388.531733    ;  uncertainty theta = 0.007996, k = 0.237326
         1        16        17     1      121.867432      657.791822    ;  uncertainty theta = 0.004825, k = 0.079122
         2         1         6     1      106.583206      418.801252    ;  uncertainty theta = 0.017994, k = 0.197354
         2         1        16     1      110.612793      417.719181    ;  uncertainty theta = 0.002200, k = 0.093417
         2         3         4     1      110.151321      546.312444    ;  uncertainty theta = 0.003375, k = 0.086590
         2         3        24     1      108.267578      400.403584    ;  uncertainty theta = 0.001419, k = 0.109509
         2         3        25     1      108.267578      400.403552    ;  uncertainty theta = 0.001419, k = 0.109509
         3         2        22     1      108.654381      413.910512    ;  uncertainty theta = 0.003621, k = 0.120922
         3         2        23     1      108.654381      413.910512    ;  uncertainty theta = 0.003621, k = 0.120922
         3         4         5     1      110.679581      579.870504    ;  uncertainty theta = 0.006768, k = 0.197925
         3         4        20     1      107.283340      684.092874    ;  uncertainty theta = 0.005196, k = 0.323363
         3         4        21     1      111.976845      573.046350    ;  uncertainty theta = 0.003349, k = 0.044873
         4         3        24     1      107.183029      390.978284    ;  uncertainty theta = 0.002183, k = 0.173231
         4         3        25     1      107.183029      390.978284    ;  uncertainty theta = 0.002183, k = 0.173231
         4         5         6     1      110.151321      546.312444    ;  uncertainty theta = 0.003375, k = 0.086590
         4         5        26     1      107.183029      390.978284    ;  uncertainty theta = 0.002183, k = 0.173231
         4         5        27     1      107.183029      390.978284    ;  uncertainty theta = 0.002183, k = 0.173231
         4        20        42     1      110.464333      409.034616    ;  uncertainty theta = 0.003988, k = 0.162351
         4        20        43     1      110.464333      409.034616    ;  uncertainty theta = 0.003988, k = 0.162351
         4        20        47     1      110.464333      409.034616    ;  uncertainty theta = 0.003988, k = 0.162351
         4        21        44     1      107.456223      389.152764    ;  uncertainty theta = 0.000505, k = 0.034813
         4        21        45     1      107.456223      389.152764    ;  uncertainty theta = 0.000505, k = 0.034813
         4        21        46     1      107.456223      389.152764    ;  uncertainty theta = 0.000505, k = 0.034813
         5         4        20     1      107.283340      684.092874    ;  uncertainty theta = 0.005196, k = 0.323363
         5         4        21     1      111.976845      573.046350    ;  uncertainty theta = 0.003349, k = 0.044873
         5         6        28     1      108.654381      413.910512    ;  uncertainty theta = 0.003621, k = 0.120921
         5         6        29     1      108.654381      413.910512    ;  uncertainty theta = 0.003621, k = 0.120921
         6         1        16     1      110.612793      417.719181    ;  uncertainty theta = 0.002200, k = 0.093417
         6         5        26     1      108.267578      400.403552    ;  uncertainty theta = 0.001419, k = 0.109509
         6         5        27     1      108.267578      400.403552    ;  uncertainty theta = 0.001419, k = 0.109509
         7         8         9     1      123.888474      448.081112    ;  uncertainty theta = 0.001428, k = 0.085455
         7         8        30     1      117.825882      274.626010    ;  uncertainty theta = 0.004192, k = 0.166181
         7        12        11     1      109.866173      576.076647    ;  uncertainty theta = 0.002887, k = 0.113661
         7        12        37     1      108.233871      386.594009    ;  uncertainty theta = 0.000498, k = 0.057092
         7        12        38     1      108.233871      386.594009    ;  uncertainty theta = 0.000498, k = 0.057092
         7        13        14     1      119.747337      475.615830    ;  uncertainty theta = 0.004682, k = 0.206291
         7        13        18     1      121.149338      335.279231    ;  uncertainty theta = 0.007270, k = 0.402122
         8         7        12     1      123.083580      387.692456    ;  uncertainty theta = 0.002518, k = 0.247037
         8         7        13     1      119.787277      397.601748    ;  uncertainty theta = 0.001808, k = 0.332188
         8         9        10     1      109.737839      567.693964    ;  uncertainty theta = 0.001731, k = 0.175543
         8         9        31     1      108.240005      388.042059    ;  uncertainty theta = 0.002028, k = 0.050098
         8         9        32     1      108.240005      388.042059    ;  uncertainty theta = 0.002028, k = 0.050098
         9         8        30     1      118.662636      274.431545    ;  uncertainty theta = 0.002256, k = 0.176428
         9        10        11     1      109.055649      629.789871    ;  uncertainty theta = 0.002482, k = 0.078849
         9        10        33     1      108.407104      405.897446    ;  uncertainty theta = 0.001868, k = 0.074621
         9        10        34     1      108.407104      405.897446    ;  uncertainty theta = 0.001868, k = 0.074621
        10         9        31     1      108.665733      401.512469    ;  uncertainty theta = 0.001486, k = 0.060857
        10         9        32     1      108.665733      401.512469    ;  uncertainty theta = 0.001486, k = 0.060857
        10        11        12     1      109.752914      627.050569    ;  uncertainty theta = 0.002212, k = 0.059050
        10        11        35     1      108.686096      400.194882    ;  uncertainty theta = 0.000734, k = 0.035001
        10        11        36     1      108.686096      400.194882    ;  uncertainty theta = 0.000734, k = 0.035001
        11        10        33     1      108.654556      398.708941    ;  uncertainty theta = 0.001386, k = 0.025468
        11        10        34     1      108.654556      398.708941    ;  uncertainty theta = 0.001386, k = 0.025468
        11        12        37     1      108.435837      402.989759    ;  uncertainty theta = 0.000403, k = 0.057646
        11        12        38     1      108.435837      402.989759    ;  uncertainty theta = 0.000403, k = 0.057646
        12         7        13     1      118.430252      364.866111    ;  uncertainty theta = 0.003531, k = 0.171038
        12        11        35     1      108.261086      402.093247    ;  uncertainty theta = 0.001044, k = 0.044663
        12        11        36     1      108.261086      402.093247    ;  uncertainty theta = 0.001044, k = 0.044663
        13        14        15     1      123.619522      487.225255    ;  uncertainty theta = 0.006918, k = 0.152410
        13        18        17     1      121.232445      462.927110    ;  uncertainty theta = 0.007039, k = 0.358286
        13        18        19     1      122.258926      456.868335    ;  uncertainty theta = 0.006750, k = 0.276877
        14        13        18     1      118.500626      465.801919    ;  uncertainty theta = 0.006925, k = 0.377248
        14        15        16     1      120.116379      598.584736    ;  uncertainty theta = 0.004115, k = 0.168873
        14        15        39     1      117.301590      344.311291    ;  uncertainty theta = 0.004676, k = 0.093458
        15        16        17     1      118.922668      456.276034    ;  uncertainty theta = 0.004368, k = 0.123888
        16        15        39     1      122.316696      249.581991    ;  uncertainty theta = 0.003918, k = 0.198292
        16        17        18     1      118.729965      457.876604    ;  uncertainty theta = 0.005509, k = 0.240972
        17        18        19     1      126.301193      923.002556    ;  uncertainty theta = 0.004334, k = 0.113104
        18        19        40     1      117.409950      384.627588    ;  uncertainty theta = 0.002326, k = 0.162488
        18        19        41     1      117.409950      384.627588    ;  uncertainty theta = 0.002326, k = 0.162488
        20         4        21     1      107.732376      711.715791    ;  uncertainty theta = 0.003143, k = 0.202828
        22         2        23     1      105.594933      323.601813    ;  uncertainty theta = 0.003166, k = 0.045080
        24         3        25     1      106.069984      314.890850    ;  uncertainty theta = 0.002539, k = 0.094492
        26         5        27     1      106.069984      314.890850    ;  uncertainty theta = 0.002539, k = 0.094492
        28         6        29     1      105.594933      323.601813    ;  uncertainty theta = 0.003166, k = 0.045080
        31         9        32     1      104.229370      305.178736    ;  uncertainty theta = 0.003119, k = 0.021402
        33        10        34     1      104.805016      312.416080    ;  uncertainty theta = 0.002067, k = 0.025388
        35        11        36     1      104.891502      311.303492    ;  uncertainty theta = 0.001509, k = 0.027797
        37        12        38     1      104.224953      307.576160    ;  uncertainty theta = 0.002544, k = 0.065591
        40        19        41     1      108.379379      278.186298    ;  uncertainty theta = 0.002184, k = 0.111285
        42        20        43     1      108.017105      374.242252    ;  uncertainty theta = 0.003302, k = 0.129446
        42        20        47     1      108.017105      374.242252    ;  uncertainty theta = 0.003302, k = 0.129446
        43        20        47     1      108.017105      374.242252    ;  uncertainty theta = 0.003302, k = 0.129446
        44        21        45     1      105.936523      319.817118    ;  uncertainty theta = 0.000605, k = 0.051303
        44        21        46     1      105.936523      319.817118    ;  uncertainty theta = 0.000605, k = 0.051303
        45        21        46     1      105.936523      319.817118    ;  uncertainty theta = 0.000605, k = 0.051303

[ dihedrals ] ; propers for gromacs 4.5 or higher, use funct 9
;       ai        aj        ak        al funct           phase               k        pn
         1         2         3         4     9        0.000000        3.979946         1    ;  uncertainty k = 2.632185
         1         2         3         4     9      180.000000       -4.496693         2    ;  uncertainty k = 0.888467
         1         2         3         4     9        0.000000        1.984991         3    ;  uncertainty k = 0.266416
         1         2         3         4     9      180.000000       -0.392018         4    ;  uncertainty k = 0.253112
         1         2         3        24     9        0.000000       -2.064441         1    ;  uncertainty k = 0.843870
         1         2         3        24     9      180.000000        0.347541         2    ;  uncertainty k = 0.463905
         1         2         3        24     9        0.000000        1.311394         3    ;  uncertainty k = 0.326854
         1         2         3        24     9      180.000000       -0.253627         4    ;  uncertainty k = 0.071114
         1         2         3        25     9        0.000000       -2.064442         1    ;  uncertainty k = 0.843869
         1         2         3        25     9      180.000000        0.347541         2    ;  uncertainty k = 0.463906
         1         2         3        25     9        0.000000        1.311394         3    ;  uncertainty k = 0.326854
         1         2         3        25     9      180.000000       -0.253627         4    ;  uncertainty k = 0.071114
         1         6         5         4     9        0.000000        3.979946         1    ;  uncertainty k = 2.632185
         1         6         5         4     9      180.000000       -4.496693         2    ;  uncertainty k = 0.888467
         1         6         5         4     9        0.000000        1.984991         3    ;  uncertainty k = 0.266416
         1         6         5         4     9      180.000000       -0.392018         4    ;  uncertainty k = 0.253112
         1         6         5        26     9        0.000000       -2.064442         1    ;  uncertainty k = 0.843869
         1         6         5        26     9      180.000000        0.347541         2    ;  uncertainty k = 0.463906
         1         6         5        26     9        0.000000        1.311394         3    ;  uncertainty k = 0.326854
         1         6         5        26     9      180.000000       -0.253627         4    ;  uncertainty k = 0.071114
         1         6         5        27     9        0.000000       -2.064442         1    ;  uncertainty k = 0.843869
         1         6         5        27     9      180.000000        0.347541         2    ;  uncertainty k = 0.463906
         1         6         5        27     9        0.000000        1.311394         3    ;  uncertainty k = 0.326854
         1         6         5        27     9      180.000000       -0.253627         4    ;  uncertainty k = 0.071114
         1        16        15        14     9        0.000000        0.044332         1    ;  uncertainty k = 1.038802
         1        16        15        14     9      180.000000        5.158974         2    ;  uncertainty k = 1.181184
         1        16        15        14     9        0.000000        0.504826         3    ;  uncertainty k = 0.226942
         1        16        15        14     9      180.000000        0.945848         4    ;  uncertainty k = 0.399294
         1        16        15        39     9        0.000000        0.354037         1    ;  uncertainty k = 1.699161
         1        16        15        39     9      180.000000        3.581951         2    ;  uncertainty k = 0.681906
         1        16        15        39     9        0.000000        0.668400         3    ;  uncertainty k = 0.319348
         1        16        15        39     9      180.000000        0.625251         4    ;  uncertainty k = 0.272012
         1        16        17        18     9        0.000000        0.678536         1    ;  uncertainty k = 0.938773
         1        16        17        18     9      180.000000       13.386864         2    ;  uncertainty k = 0.448594
         1        16        17        18     9        0.000000        2.220999         3    ;  uncertainty k = 0.514720
         1        16        17        18     9      180.000000        1.331606         4    ;  uncertainty k = 0.472041
         2         1         6         5     9        0.000000       -6.239786         1    ;  uncertainty k = 2.361389
         2         1         6         5     9      180.000000        1.153427         2    ;  uncertainty k = 0.800282
         2         1         6         5     9        0.000000        1.096550         3    ;  uncertainty k = 0.417360
         2         1         6         5     9      180.000000       -0.421896         4    ;  uncertainty k = 0.152184
         2         1         6        28     9        0.000000       -6.143799         1    ;  uncertainty k = 1.877208
         2         1         6        28     9      180.000000        0.664612         2    ;  uncertainty k = 0.347378
         2         1         6        28     9        0.000000        0.733570         3    ;  uncertainty k = 0.044332
         2         1         6        28     9      180.000000       -0.093537         4    ;  uncertainty k = 0.072432
         2         1         6        29     9        0.000000       -6.143799         1    ;  uncertainty k = 1.877208
         2         1         6        29     9      180.000000        0.664612         2    ;  uncertainty k = 0.347378
         2         1         6        29     9        0.000000        0.733570         3    ;  uncertainty k = 0.044332
         2         1         6        29     9      180.000000       -0.093537         4    ;  uncertainty k = 0.072432
         2         1        16        15     9        0.000000        3.212634         1    ;  uncertainty k = 0.857003
         2         1        16        15     9      180.000000        6.773837         2    ;  uncertainty k = 0.283472
         2         1        16        15     9        0.000000        0.559173         3    ;  uncertainty k = 0.125279
         2         1        16        15     9      180.000000        0.086790         4    ;  uncertainty k = 0.184205
         2         1        16        17     9        0.000000        6.728891         1    ;  uncertainty k = 1.188428
         2         1        16        17     9      180.000000       10.341731         2    ;  uncertainty k = 0.169148
         2         1        16        17     9        0.000000        0.531365         3    ;  uncertainty k = 0.341684
         2         1        16        17     9      180.000000        0.023198         4    ;  uncertainty k = 0.116351
         2         3         4         5     9        0.000000       -2.025889         1    ;  uncertainty k = 2.008267
         2         3         4         5     9      180.000000        0.410334         2    ;  uncertainty k = 0.633526
         2         3         4         5     9        0.000000        0.616803         3    ;  uncertainty k = 0.450713
         2         3         4         5     9      180.000000       -1.017199         4    ;  uncertainty k = 0.208372
         2         3         4        20     9        0.000000       -5.245439         1    ;  uncertainty k = 1.390791
         2         3         4        20     9      180.000000       -1.241889         2    ;  uncertainty k = 1.510062
         2         3         4        20     9        0.000000        1.020300         3    ;  uncertainty k = 0.387143
         2         3         4        20     9      180.000000        0.214101         4    ;  uncertainty k = 0.146557
         2         3         4        21     9        0.000000       -4.849412         1    ;  uncertainty k = 0.866163
         2         3         4        21     9      180.000000        1.297477         2    ;  uncertainty k = 0.417124
         2         3         4        21     9        0.000000        0.498652         3    ;  uncertainty k = 0.311761
         2         3         4        21     9      180.000000       -0.189701         4    ;  uncertainty k = 0.108915
         3         2         1         6     9        0.000000       -6.239786         1    ;  uncertainty k = 2.361389
         3         2         1         6     9      180.000000        1.153427         2    ;  uncertainty k = 0.800282
         3         2         1         6     9        0.000000        1.096550         3    ;  uncertainty k = 0.417360
         3         2         1         6     9      180.000000       -0.421896         4    ;  uncertainty k = 0.152184
         3         2         1        16     9        0.000000       -2.822343         1    ;  uncertainty k = 0.638838
         3         2         1        16     9      180.000000        0.616608         2    ;  uncertainty k = 0.478045
         3         2         1        16     9        0.000000        0.114310         3    ;  uncertainty k = 0.176119
         3         2         1        16     9      180.000000        0.216396         4    ;  uncertainty k = 0.087398
         3         4         5         6     9        0.000000       -2.025889         1    ;  uncertainty k = 2.008267
         3         4         5         6     9      180.000000        0.410334         2    ;  uncertainty k = 0.633526
         3         4         5         6     9        0.000000        0.616803         3    ;  uncertainty k = 0.450713
         3         4         5         6     9      180.000000       -1.017199         4    ;  uncertainty k = 0.208372
         3         4         5        26     9        0.000000       -1.032719         1    ;  uncertainty k = 0.277220
         3         4         5        26     9      180.000000       -0.372391         2    ;  uncertainty k = 0.195211
         3         4         5        26     9        0.000000       -0.016948         3    ;  uncertainty k = 0.088967
         3         4         5        26     9      180.000000       -0.099463         4    ;  uncertainty k = 0.056988
         3         4         5        27     9        0.000000       -1.032719         1    ;  uncertainty k = 0.277220
         3         4         5        27     9      180.000000       -0.372391         2    ;  uncertainty k = 0.195211
         3         4         5        27     9        0.000000       -0.016948         3    ;  uncertainty k = 0.088967
         3         4         5        27     9      180.000000       -0.099463         4    ;  uncertainty k = 0.056988
         3         4        20        42     9        0.000000       -0.347105         1    ;  uncertainty k = 1.193618
         3         4        20        42     9      180.000000       -0.225842         2    ;  uncertainty k = 0.264572
         3         4        20        42     9        0.000000        0.751154         3    ;  uncertainty k = 0.137669
         3         4        20        42     9      180.000000       -0.116187         4    ;  uncertainty k = 0.103302
         3         4        20        43     9        0.000000       -0.347105         1    ;  uncertainty k = 1.193618
         3         4        20        43     9      180.000000       -0.225842         2    ;  uncertainty k = 0.264572
         3         4        20        43     9        0.000000        0.751154         3    ;  uncertainty k = 0.137669
         3         4        20        43     9      180.000000       -0.116187         4    ;  uncertainty k = 0.103302
         3         4        20        47     9        0.000000       -0.347105         1    ;  uncertainty k = 1.193618
         3         4        20        47     9      180.000000       -0.225842         2    ;  uncertainty k = 0.264572
         3         4        20        47     9        0.000000        0.751154         3    ;  uncertainty k = 0.137669
         3         4        20        47     9      180.000000       -0.116187         4    ;  uncertainty k = 0.103302
         3         4        21        44     9        0.000000       -0.895310         1    ;  uncertainty k = 0.339459
         3         4        21        44     9      180.000000       -0.491983         2    ;  uncertainty k = 0.208211
         3         4        21        44     9        0.000000        0.541904         3    ;  uncertainty k = 0.078615
         3         4        21        44     9      180.000000       -0.143850         4    ;  uncertainty k = 0.057472
         3         4        21        45     9        0.000000       -0.895310         1    ;  uncertainty k = 0.339459
         3         4        21        45     9      180.000000       -0.491983         2    ;  uncertainty k = 0.208211
         3         4        21        45     9        0.000000        0.541904         3    ;  uncertainty k = 0.078615
         3         4        21        45     9      180.000000       -0.143850         4    ;  uncertainty k = 0.057472
         3         4        21        46     9        0.000000       -0.895310         1    ;  uncertainty k = 0.339459
         3         4        21        46     9      180.000000       -0.491983         2    ;  uncertainty k = 0.208211
         3         4        21        46     9        0.000000        0.541904         3    ;  uncertainty k = 0.078615
         3         4        21        46     9      180.000000       -0.143850         4    ;  uncertainty k = 0.057472
         4         3         2        22     9        0.000000        3.022279         1    ;  uncertainty k = 1.203655
         4         3         2        22     9      180.000000       -2.768743         2    ;  uncertainty k = 0.230514
         4         3         2        22     9        0.000000       -0.000296         3    ;  uncertainty k = 0.140060
         4         3         2        22     9      180.000000        0.278748         4    ;  uncertainty k = 0.073391
         4         3         2        23     9        0.000000        3.022279         1    ;  uncertainty k = 1.203655
         4         3         2        23     9      180.000000       -2.768743         2    ;  uncertainty k = 0.230514
         4         3         2        23     9        0.000000       -0.000296         3    ;  uncertainty k = 0.140060
         4         3         2        23     9      180.000000        0.278748         4    ;  uncertainty k = 0.073391
         4         5         6        28     9        0.000000        3.022278         1    ;  uncertainty k = 1.203655
         4         5         6        28     9      180.000000       -2.768745         2    ;  uncertainty k = 0.230514
         4         5         6        28     9        0.000000       -0.000297         3    ;  uncertainty k = 0.140060
         4         5         6        28     9      180.000000        0.278749         4    ;  uncertainty k = 0.073392
         4         5         6        29     9        0.000000        3.022278         1    ;  uncertainty k = 1.203655
         4         5         6        29     9      180.000000       -2.768745         2    ;  uncertainty k = 0.230514
         4         5         6        29     9        0.000000       -0.000297         3    ;  uncertainty k = 0.140060
         4         5         6        29     9      180.000000        0.278749         4    ;  uncertainty k = 0.073392
         5         4         3        24     9        0.000000       -1.032718         1    ;  uncertainty k = 0.277221
         5         4         3        24     9      180.000000       -0.372392         2    ;  uncertainty k = 0.195211
         5         4         3        24     9        0.000000       -0.016948         3    ;  uncertainty k = 0.088966
         5         4         3        24     9      180.000000       -0.099463         4    ;  uncertainty k = 0.056988
         5         4         3        25     9        0.000000       -1.032719         1    ;  uncertainty k = 0.277220
         5         4         3        25     9      180.000000       -0.372391         2    ;  uncertainty k = 0.195211
         5         4         3        25     9        0.000000       -0.016948         3    ;  uncertainty k = 0.088967
         5         4         3        25     9      180.000000       -0.099463         4    ;  uncertainty k = 0.056988
         5         4        20        42     9        0.000000       -0.347105         1    ;  uncertainty k = 1.193618
         5         4        20        42     9      180.000000       -0.225842         2    ;  uncertainty k = 0.264572
         5         4        20        42     9        0.000000        0.751154         3    ;  uncertainty k = 0.137669
         5         4        20        42     9      180.000000       -0.116187         4    ;  uncertainty k = 0.103302
         5         4        20        43     9        0.000000       -0.347105         1    ;  uncertainty k = 1.193618
         5         4        20        43     9      180.000000       -0.225842         2    ;  uncertainty k = 0.264572
         5         4        20        43     9        0.000000        0.751154         3    ;  uncertainty k = 0.137669
         5         4        20        43     9      180.000000       -0.116187         4    ;  uncertainty k = 0.103302
         5         4        20        47     9        0.000000       -0.347105         1    ;  uncertainty k = 1.193618
         5         4        20        47     9      180.000000       -0.225842         2    ;  uncertainty k = 0.264572
         5         4        20        47     9        0.000000        0.751154         3    ;  uncertainty k = 0.137669
         5         4        20        47     9      180.000000       -0.116187         4    ;  uncertainty k = 0.103302
         5         4        21        44     9        0.000000       -0.895310         1    ;  uncertainty k = 0.339459
         5         4        21        44     9      180.000000       -0.491983         2    ;  uncertainty k = 0.208211
         5         4        21        44     9        0.000000        0.541904         3    ;  uncertainty k = 0.078615
         5         4        21        44     9      180.000000       -0.143850         4    ;  uncertainty k = 0.057472
         5         4        21        45     9        0.000000       -0.895310         1    ;  uncertainty k = 0.339459
         5         4        21        45     9      180.000000       -0.491983         2    ;  uncertainty k = 0.208211
         5         4        21        45     9        0.000000        0.541904         3    ;  uncertainty k = 0.078615
         5         4        21        45     9      180.000000       -0.143850         4    ;  uncertainty k = 0.057472
         5         4        21        46     9        0.000000       -0.895310         1    ;  uncertainty k = 0.339459
         5         4        21        46     9      180.000000       -0.491983         2    ;  uncertainty k = 0.208211
         5         4        21        46     9        0.000000        0.541904         3    ;  uncertainty k = 0.078615
         5         4        21        46     9      180.000000       -0.143850         4    ;  uncertainty k = 0.057472
         5         6         1        16     9        0.000000       -2.822343         1    ;  uncertainty k = 0.638838
         5         6         1        16     9      180.000000        0.616608         2    ;  uncertainty k = 0.478045
         5         6         1        16     9        0.000000        0.114310         3    ;  uncertainty k = 0.176119
         5         6         1        16     9      180.000000        0.216396         4    ;  uncertainty k = 0.087398
         6         1         2        22     9        0.000000       -6.143799         1    ;  uncertainty k = 1.877209
         6         1         2        22     9      180.000000        0.664613         2    ;  uncertainty k = 0.347377
         6         1         2        22     9        0.000000        0.733570         3    ;  uncertainty k = 0.044332
         6         1         2        22     9      180.000000       -0.093537         4    ;  uncertainty k = 0.072432
         6         1         2        23     9        0.000000       -6.143799         1    ;  uncertainty k = 1.877209
         6         1         2        23     9      180.000000        0.664613         2    ;  uncertainty k = 0.347377
         6         1         2        23     9        0.000000        0.733570         3    ;  uncertainty k = 0.044332
         6         1         2        23     9      180.000000       -0.093537         4    ;  uncertainty k = 0.072432
         6         1        16        15     9        0.000000        3.212634         1    ;  uncertainty k = 0.857003
         6         1        16        15     9      180.000000        6.773837         2    ;  uncertainty k = 0.283472
         6         1        16        15     9        0.000000        0.559173         3    ;  uncertainty k = 0.125279
         6         1        16        15     9      180.000000        0.086790         4    ;  uncertainty k = 0.184205
         6         1        16        17     9        0.000000        6.728891         1    ;  uncertainty k = 1.188428
         6         1        16        17     9      180.000000       10.341731         2    ;  uncertainty k = 0.169148
         6         1        16        17     9        0.000000        0.531365         3    ;  uncertainty k = 0.341684
         6         1        16        17     9      180.000000        0.023198         4    ;  uncertainty k = 0.116351
         6         5         4        20     9        0.000000       -5.245439         1    ;  uncertainty k = 1.390791
         6         5         4        20     9      180.000000       -1.241889         2    ;  uncertainty k = 1.510062
         6         5         4        20     9        0.000000        1.020300         3    ;  uncertainty k = 0.387143
         6         5         4        20     9      180.000000        0.214101         4    ;  uncertainty k = 0.146557
         6         5         4        21     9        0.000000       -4.849412         1    ;  uncertainty k = 0.866163
         6         5         4        21     9      180.000000        1.297477         2    ;  uncertainty k = 0.417124
         6         5         4        21     9        0.000000        0.498652         3    ;  uncertainty k = 0.311761
         6         5         4        21     9      180.000000       -0.189701         4    ;  uncertainty k = 0.108915
         7         8         9        10     9        0.000000       -1.804322         1    ;  uncertainty k = 0.846690
         7         8         9        10     9      180.000000        3.278967         2    ;  uncertainty k = 0.589725
         7         8         9        10     9        0.000000       -0.691930         3    ;  uncertainty k = 0.284418
         7         8         9        10     9      180.000000        0.424867         4    ;  uncertainty k = 0.219084
         7         8         9        31     9        0.000000        0.695552         1    ;  uncertainty k = 0.661109
         7         8         9        31     9      180.000000        2.982930         2    ;  uncertainty k = 0.615756
         7         8         9        31     9        0.000000        0.026405         3    ;  uncertainty k = 0.148596
         7         8         9        31     9      180.000000       -0.080033         4    ;  uncertainty k = 0.076245
         7         8         9        32     9        0.000000        0.695552         1    ;  uncertainty k = 0.661109
         7         8         9        32     9      180.000000        2.982930         2    ;  uncertainty k = 0.615756
         7         8         9        32     9        0.000000        0.026405         3    ;  uncertainty k = 0.148596
         7         8         9        32     9      180.000000       -0.080033         4    ;  uncertainty k = 0.076245
         7        12        11        10     9        0.000000       -4.458143         1    ;  uncertainty k = 0.714377
         7        12        11        10     9      180.000000       -0.295596         2    ;  uncertainty k = 0.246425
         7        12        11        10     9        0.000000        1.564013         3    ;  uncertainty k = 0.345195
         7        12        11        10     9      180.000000       -0.811888         4    ;  uncertainty k = 0.176054
         7        12        11        35     9        0.000000       -0.532802         1    ;  uncertainty k = 0.506124
         7        12        11        35     9      180.000000       -0.127823         2    ;  uncertainty k = 0.170039
         7        12        11        35     9        0.000000        1.029357         3    ;  uncertainty k = 0.165120
         7        12        11        35     9      180.000000       -0.001270         4    ;  uncertainty k = 0.100891
         7        12        11        36     9        0.000000       -0.532802         1    ;  uncertainty k = 0.506124
         7        12        11        36     9      180.000000       -0.127823         2    ;  uncertainty k = 0.170039
         7        12        11        36     9        0.000000        1.029357         3    ;  uncertainty k = 0.165120
         7        12        11        36     9      180.000000       -0.001270         4    ;  uncertainty k = 0.100891
         7        13        14        15     9        0.000000        0.465319         1    ;  uncertainty k = 0.507021
         7        13        14        15     9      180.000000       15.778728         2    ;  uncertainty k = 0.166603
         7        13        14        15     9        0.000000        2.664804         3    ;  uncertainty k = 0.511419
         7        13        14        15     9      180.000000        1.661492         4    ;  uncertainty k = 0.073537
         7        13        18        17     9        0.000000       -0.143417         1    ;  uncertainty k = 0.816867
         7        13        18        17     9      180.000000        3.421662         2    ;  uncertainty k = 0.947568
         7        13        18        17     9        0.000000        0.305522         3    ;  uncertainty k = 0.273123
         7        13        18        17     9      180.000000        0.882428         4    ;  uncertainty k = 0.459722
         7        13        18        19     9        0.000000        0.337941         1    ;  uncertainty k = 1.446113
         7        13        18        19     9      180.000000        4.209665         2    ;  uncertainty k = 1.129561
         7        13        18        19     9        0.000000        0.634634         3    ;  uncertainty k = 0.652297
         7        13        18        19     9      180.000000        0.552966         4    ;  uncertainty k = 0.262965
         8         7        12        11     9        0.000000       -1.089177         1    ;  uncertainty k = 1.441050
         8         7        12        11     9      180.000000        2.120497         2    ;  uncertainty k = 0.500040
         8         7        12        11     9        0.000000       -0.574430         3    ;  uncertainty k = 0.546428
         8         7        12        11     9      180.000000        0.342062         4    ;  uncertainty k = 0.177460
         8         7        12        37     9        0.000000        0.536952         1    ;  uncertainty k = 0.539015
         8         7        12        37     9      180.000000        1.827185         2    ;  uncertainty k = 0.677917
         8         7        12        37     9        0.000000       -0.059735         3    ;  uncertainty k = 0.183245
         8         7        12        37     9      180.000000       -0.125489         4    ;  uncertainty k = 0.156492
         8         7        12        38     9        0.000000        0.536952         1    ;  uncertainty k = 0.539015
         8         7        12        38     9      180.000000        1.827185         2    ;  uncertainty k = 0.677917
         8         7        12        38     9        0.000000       -0.059735         3    ;  uncertainty k = 0.183245
         8         7        12        38     9      180.000000       -0.125489         4    ;  uncertainty k = 0.156492
         8         7        13        14     9        0.000000        1.498764         1    ;  uncertainty k = 0.641605
         8         7        13        14     9      180.000000        4.963893         2    ;  uncertainty k = 0.255802
         8         7        13        14     9        0.000000        0.871053         3    ;  uncertainty k = 0.375980
         8         7        13        14     9      180.000000        0.187791         4    ;  uncertainty k = 0.184550
         8         7        13        18     9        0.000000        1.031787         1    ;  uncertainty k = 0.888444
         8         7        13        18     9      180.000000        3.580717         2    ;  uncertainty k = 0.268284
         8         7        13        18     9        0.000000       -0.021256         3    ;  uncertainty k = 0.304899
         8         7        13        18     9      180.000000        0.138720         4    ;  uncertainty k = 0.129015
         8         9        10        11     9        0.000000       -5.676716         1    ;  uncertainty k = 0.696836
         8         9        10        11     9      180.000000        0.756189         2    ;  uncertainty k = 0.550221
         8         9        10        11     9        0.000000        1.373388         3    ;  uncertainty k = 0.231981
         8         9        10        11     9      180.000000       -0.824895         4    ;  uncertainty k = 0.227062
         8         9        10        33     9        0.000000       -0.715589         1    ;  uncertainty k = 0.399868
         8         9        10        33     9      180.000000       -0.169924         2    ;  uncertainty k = 0.135204
         8         9        10        33     9        0.000000        1.081443         3    ;  uncertainty k = 0.100544
         8         9        10        33     9      180.000000       -0.025137         4    ;  uncertainty k = 0.088620
         8         9        10        34     9        0.000000       -0.715589         1    ;  uncertainty k = 0.399868
         8         9        10        34     9      180.000000       -0.169924         2    ;  uncertainty k = 0.135204
         8         9        10        34     9        0.000000        1.081443         3    ;  uncertainty k = 0.100544
         8         9        10        34     9      180.000000       -0.025137         4    ;  uncertainty k = 0.088620
         9         8         7        12     9        0.000000        1.285467         1    ;  uncertainty k = 0.844867
         9         8         7        12     9      180.000000       19.832732         2    ;  uncertainty k = 0.554492
         9         8         7        12     9        0.000000        2.586621         3    ;  uncertainty k = 0.344465
         9         8         7        12     9      180.000000        0.503422         4    ;  uncertainty k = 0.560209
         9         8         7        13     9        0.000000        0.610632         1    ;  uncertainty k = 0.789163
         9         8         7        13     9      180.000000       20.354954         2    ;  uncertainty k = 0.391008
         9         8         7        13     9        0.000000        2.557461         3    ;  uncertainty k = 0.250998
         9         8         7        13     9      180.000000        0.709124         4    ;  uncertainty k = 0.361405
         9        10        11        12     9        0.000000       -7.765132         1    ;  uncertainty k = 1.301780
         9        10        11        12     9      180.000000        0.541753         2    ;  uncertainty k = 0.948677
         9        10        11        12     9        0.000000        1.533056         3    ;  uncertainty k = 0.176596
         9        10        11        12     9      180.000000       -1.144902         4    ;  uncertainty k = 0.205875
         9        10        11        35     9        0.000000       -1.024148         1    ;  uncertainty k = 0.321870
         9        10        11        35     9      180.000000       -0.793090         2    ;  uncertainty k = 0.299715
         9        10        11        35     9        0.000000        0.386711         3    ;  uncertainty k = 0.170137
         9        10        11        35     9      180.000000        0.061261         4    ;  uncertainty k = 0.059967
         9        10        11        36     9        0.000000       -1.024148         1    ;  uncertainty k = 0.321870
         9        10        11        36     9      180.000000       -0.793090         2    ;  uncertainty k = 0.299715
         9        10        11        36     9        0.000000        0.386711         3    ;  uncertainty k = 0.170137
         9        10        11        36     9      180.000000        0.061261         4    ;  uncertainty k = 0.059967
        10         9         8        30     9        0.000000       -2.181619         1    ;  uncertainty k = 0.890157
        10         9         8        30     9      180.000000       -0.015292         2    ;  uncertainty k = 0.778836
        10         9         8        30     9        0.000000        0.652183         3    ;  uncertainty k = 0.216536
        10         9         8        30     9      180.000000        0.556439         4    ;  uncertainty k = 0.166929
        10        11        12        37     9        0.000000       -0.287096         1    ;  uncertainty k = 0.190168
        10        11        12        37     9      180.000000       -0.775981         2    ;  uncertainty k = 0.074501
        10        11        12        37     9        0.000000        0.537305         3    ;  uncertainty k = 0.103949
        10        11        12        37     9      180.000000        0.154886         4    ;  uncertainty k = 0.086340
        10        11        12        38     9        0.000000       -0.287096         1    ;  uncertainty k = 0.190168
        10        11        12        38     9      180.000000       -0.775981         2    ;  uncertainty k = 0.074501
        10        11        12        38     9        0.000000        0.537305         3    ;  uncertainty k = 0.103949
        10        11        12        38     9      180.000000        0.154886         4    ;  uncertainty k = 0.086340
        11        10         9        31     9        0.000000       -0.441205         1    ;  uncertainty k = 0.151531
        11        10         9        31     9      180.000000       -0.816809         2    ;  uncertainty k = 0.086872
        11        10         9        31     9        0.000000        0.491018         3    ;  uncertainty k = 0.103689
        11        10         9        31     9      180.000000        0.158107         4    ;  uncertainty k = 0.057919
        11        10         9        32     9        0.000000       -0.441205         1    ;  uncertainty k = 0.151531
        11        10         9        32     9      180.000000       -0.816809         2    ;  uncertainty k = 0.086872
        11        10         9        32     9        0.000000        0.491018         3    ;  uncertainty k = 0.103689
        11        10         9        32     9      180.000000        0.158107         4    ;  uncertainty k = 0.057919
        11        12         7        13     9        0.000000       -3.717735         1    ;  uncertainty k = 1.664716
        11        12         7        13     9      180.000000        0.567087         2    ;  uncertainty k = 0.571274
        11        12         7        13     9        0.000000        0.638621         3    ;  uncertainty k = 0.206504
        11        12         7        13     9      180.000000        0.371834         4    ;  uncertainty k = 0.149627
        12         7         8        30     9        0.000000        0.199454         1    ;  uncertainty k = 0.798005
        12         7         8        30     9      180.000000       19.310332         2    ;  uncertainty k = 0.198827
        12         7         8        30     9        0.000000        2.665159         3    ;  uncertainty k = 0.406969
        12         7         8        30     9      180.000000        0.581057         4    ;  uncertainty k = 0.452503
        12         7        13        14     9        0.000000       -4.263517         1    ;  uncertainty k = 1.854267
        12         7        13        14     9      180.000000        5.467079         2    ;  uncertainty k = 0.550053
        12         7        13        14     9        0.000000        0.366099         3    ;  uncertainty k = 0.469290
        12         7        13        14     9      180.000000        0.259077         4    ;  uncertainty k = 0.299539
        12         7        13        18     9        0.000000        1.797590         1    ;  uncertainty k = 1.254967
        12         7        13        18     9      180.000000        2.867804         2    ;  uncertainty k = 0.468212
        12         7        13        18     9        0.000000        1.096454         3    ;  uncertainty k = 0.322515
        12         7        13        18     9      180.000000        0.159592         4    ;  uncertainty k = 0.221533
        12        11        10        33     9        0.000000       -1.197880         1    ;  uncertainty k = 0.402265
        12        11        10        33     9      180.000000       -0.669381         2    ;  uncertainty k = 0.309100
        12        11        10        33     9        0.000000        0.428581         3    ;  uncertainty k = 0.163308
        12        11        10        33     9      180.000000        0.047197         4    ;  uncertainty k = 0.039853
        12        11        10        34     9        0.000000       -1.197880         1    ;  uncertainty k = 0.402265
        12        11        10        34     9      180.000000       -0.669381         2    ;  uncertainty k = 0.309100
        12        11        10        34     9        0.000000        0.428581         3    ;  uncertainty k = 0.163308
        12        11        10        34     9      180.000000        0.047197         4    ;  uncertainty k = 0.039853
        13         7         8        30     9        0.000000        0.113640         1    ;  uncertainty k = 0.759712
        13         7         8        30     9      180.000000       17.357206         2    ;  uncertainty k = 0.410297
        13         7         8        30     9        0.000000        2.498987         3    ;  uncertainty k = 0.108845
        13         7         8        30     9      180.000000        0.864653         4    ;  uncertainty k = 0.368817
        13         7        12        37     9        0.000000        0.366747         1    ;  uncertainty k = 0.582167
        13         7        12        37     9      180.000000        1.457817         2    ;  uncertainty k = 0.435489
        13         7        12        37     9        0.000000        0.496459         3    ;  uncertainty k = 0.236393
        13         7        12        37     9      180.000000        0.089809         4    ;  uncertainty k = 0.110913
        13         7        12        38     9        0.000000        0.366747         1    ;  uncertainty k = 0.582167
        13         7        12        38     9      180.000000        1.457817         2    ;  uncertainty k = 0.435489
        13         7        12        38     9        0.000000        0.496459         3    ;  uncertainty k = 0.236393
        13         7        12        38     9      180.000000        0.089809         4    ;  uncertainty k = 0.110913
        13        14        15        16     9        0.000000        0.248297         1    ;  uncertainty k = 1.129925
        13        14        15        16     9      180.000000       15.505890         2    ;  uncertainty k = 0.289170
        13        14        15        16     9        0.000000        1.107945         3    ;  uncertainty k = 0.503775
        13        14        15        16     9      180.000000        1.521778         4    ;  uncertainty k = 0.219001
        13        14        15        39     9        0.000000        0.471322         1    ;  uncertainty k = 0.349977
        13        14        15        39     9      180.000000       15.415958         2    ;  uncertainty k = 0.398111
        13        14        15        39     9        0.000000        2.229149         3    ;  uncertainty k = 0.479874
        13        14        15        39     9      180.000000        1.685277         4    ;  uncertainty k = 0.268243
        13        18        17        16     9        0.000000        1.682477         1    ;  uncertainty k = 1.284851
        13        18        17        16     9      180.000000        8.395801         2    ;  uncertainty k = 0.556588
        13        18        17        16     9        0.000000        1.351933         3    ;  uncertainty k = 0.414851
        13        18        17        16     9      180.000000        0.971573         4    ;  uncertainty k = 0.395948
        13        18        19        40     9        0.000000       10.302943         1    ;  uncertainty k = 0.279438
        13        18        19        40     9      180.000000        5.418957         2    ;  uncertainty k = 0.446784
        13        18        19        40     9        0.000000        0.993871         3    ;  uncertainty k = 0.121230
        13        18        19        40     9      180.000000        0.083838         4    ;  uncertainty k = 0.069176
        13        18        19        41     9        0.000000       10.302943         1    ;  uncertainty k = 0.279438
        13        18        19        41     9      180.000000        5.418957         2    ;  uncertainty k = 0.446784
        13        18        19        41     9        0.000000        0.993871         3    ;  uncertainty k = 0.121230
        13        18        19        41     9      180.000000        0.083838         4    ;  uncertainty k = 0.069176
        14        13        18        17     9        0.000000       -1.012115         1    ;  uncertainty k = 0.810873
        14        13        18        17     9      180.000000        4.194622         2    ;  uncertainty k = 1.630301
        14        13        18        17     9        0.000000       -0.634162         3    ;  uncertainty k = 0.594398
        14        13        18        17     9      180.000000        0.837520         4    ;  uncertainty k = 0.531133
        14        13        18        19     9        0.000000        0.505636         1    ;  uncertainty k = 0.901890
        14        13        18        19     9      180.000000        3.887217         2    ;  uncertainty k = 1.296194
        14        13        18        19     9        0.000000        0.483136         3    ;  uncertainty k = 0.257748
        14        13        18        19     9      180.000000        0.729848         4    ;  uncertainty k = 0.361406
        14        15        16        17     9        0.000000       -0.722441         1    ;  uncertainty k = 0.221534
        14        15        16        17     9      180.000000        6.130484         2    ;  uncertainty k = 1.132927
        14        15        16        17     9        0.000000       -0.636401         3    ;  uncertainty k = 0.508554
        14        15        16        17     9      180.000000        0.962673         4    ;  uncertainty k = 0.499076
        15        14        13        18     9        0.000000        0.513989         1    ;  uncertainty k = 1.066501
        15        14        13        18     9      180.000000       14.036059         2    ;  uncertainty k = 0.285554
        15        14        13        18     9        0.000000        1.733416         3    ;  uncertainty k = 0.300718
        15        14        13        18     9      180.000000        1.348677         4    ;  uncertainty k = 0.266854
        15        16        17        18     9        0.000000        1.008948         1    ;  uncertainty k = 0.936866
        15        16        17        18     9      180.000000        7.648553         2    ;  uncertainty k = 0.662286
        15        16        17        18     9        0.000000        1.191153         3    ;  uncertainty k = 0.458735
        15        16        17        18     9      180.000000        0.841761         4    ;  uncertainty k = 0.174685
        16         1         2        22     9        0.000000        0.234241         1    ;  uncertainty k = 0.506970
        16         1         2        22     9      180.000000       -0.772551         2    ;  uncertainty k = 0.174804
        16         1         2        22     9        0.000000        0.176841         3    ;  uncertainty k = 0.144443
        16         1         2        22     9      180.000000        0.227897         4    ;  uncertainty k = 0.066921
        16         1         2        23     9        0.000000        0.234241         1    ;  uncertainty k = 0.506970
        16         1         2        23     9      180.000000       -0.772551         2    ;  uncertainty k = 0.174804
        16         1         2        23     9        0.000000        0.176841         3    ;  uncertainty k = 0.144443
        16         1         2        23     9      180.000000        0.227897         4    ;  uncertainty k = 0.066921
        16         1         6        28     9        0.000000        0.234242         1    ;  uncertainty k = 0.506972
        16         1         6        28     9      180.000000       -0.772552         2    ;  uncertainty k = 0.174804
        16         1         6        28     9        0.000000        0.176841         3    ;  uncertainty k = 0.144443
        16         1         6        28     9      180.000000        0.227897         4    ;  uncertainty k = 0.066921
        16         1         6        29     9        0.000000        0.234242         1    ;  uncertainty k = 0.506972
        16         1         6        29     9      180.000000       -0.772552         2    ;  uncertainty k = 0.174804
        16         1         6        29     9        0.000000        0.176841         3    ;  uncertainty k = 0.144443
        16         1         6        29     9      180.000000        0.227897         4    ;  uncertainty k = 0.066921
        16        17        18        19     9        0.000000        0.608112         1    ;  uncertainty k = 1.003940
        16        17        18        19     9      180.000000       14.395106         2    ;  uncertainty k = 0.428668
        16        17        18        19     9        0.000000        2.521705         3    ;  uncertainty k = 0.428068
        16        17        18        19     9      180.000000        1.738202         4    ;  uncertainty k = 0.103810
        17        16        15        39     9        0.000000        0.394479         1    ;  uncertainty k = 1.172108
        17        16        15        39     9      180.000000        4.236013         2    ;  uncertainty k = 0.863412
        17        16        15        39     9        0.000000        0.907204         3    ;  uncertainty k = 0.475359
        17        16        15        39     9      180.000000        0.946795         4    ;  uncertainty k = 0.124273
        17        18        19        40     9        0.000000       19.993234         1    ;  uncertainty k = 0.176172
        17        18        19        40     9      180.000000       11.446015         2    ;  uncertainty k = 0.199980
        17        18        19        40     9        0.000000        0.514303         3    ;  uncertainty k = 0.117471
        17        18        19        40     9      180.000000       -0.307264         4    ;  uncertainty k = 0.201519
        17        18        19        41     9        0.000000       19.993234         1    ;  uncertainty k = 0.176172
        17        18        19        41     9      180.000000       11.446015         2    ;  uncertainty k = 0.199980
        17        18        19        41     9        0.000000        0.514303         3    ;  uncertainty k = 0.117471
        17        18        19        41     9      180.000000       -0.307264         4    ;  uncertainty k = 0.201519
        20         4         3        24     9        0.000000       -0.953769         1    ;  uncertainty k = 0.757467
        20         4         3        24     9      180.000000       -1.816828         2    ;  uncertainty k = 0.442932
        20         4         3        24     9        0.000000        0.532727         3    ;  uncertainty k = 0.157901
        20         4         3        24     9      180.000000       -0.244066         4    ;  uncertainty k = 0.144685
        20         4         3        25     9        0.000000       -0.953768         1    ;  uncertainty k = 0.757469
        20         4         3        25     9      180.000000       -1.816826         2    ;  uncertainty k = 0.442932
        20         4         3        25     9        0.000000        0.532727         3    ;  uncertainty k = 0.157901
        20         4         3        25     9      180.000000       -0.244066         4    ;  uncertainty k = 0.144685
        20         4         5        26     9        0.000000       -0.953768         1    ;  uncertainty k = 0.757469
        20         4         5        26     9      180.000000       -1.816826         2    ;  uncertainty k = 0.442932
        20         4         5        26     9        0.000000        0.532727         3    ;  uncertainty k = 0.157901
        20         4         5        26     9      180.000000       -0.244066         4    ;  uncertainty k = 0.144685
        20         4         5        27     9        0.000000       -0.953768         1    ;  uncertainty k = 0.757469
        20         4         5        27     9      180.000000       -1.816826         2    ;  uncertainty k = 0.442932
        20         4         5        27     9        0.000000        0.532727         3    ;  uncertainty k = 0.157901
        20         4         5        27     9      180.000000       -0.244066         4    ;  uncertainty k = 0.144685
        20         4        21        44     9        0.000000       -1.658331         1    ;  uncertainty k = 1.431247
        20         4        21        44     9      180.000000       -2.618283         2    ;  uncertainty k = 0.451254
        20         4        21        44     9        0.000000        0.778238         3    ;  uncertainty k = 0.254190
        20         4        21        44     9      180.000000       -0.194334         4    ;  uncertainty k = 0.172569
        20         4        21        45     9        0.000000       -1.658331         1    ;  uncertainty k = 1.431247
        20         4        21        45     9      180.000000       -2.618283         2    ;  uncertainty k = 0.451254
        20         4        21        45     9        0.000000        0.778238         3    ;  uncertainty k = 0.254190
        20         4        21        45     9      180.000000       -0.194334         4    ;  uncertainty k = 0.172569
        20         4        21        46     9        0.000000       -1.658331         1    ;  uncertainty k = 1.431247
        20         4        21        46     9      180.000000       -2.618283         2    ;  uncertainty k = 0.451254
        20         4        21        46     9        0.000000        0.778238         3    ;  uncertainty k = 0.254190
        20         4        21        46     9      180.000000       -0.194334         4    ;  uncertainty k = 0.172569
        21         4         3        24     9        0.000000       -0.343027         1    ;  uncertainty k = 0.403495
        21         4         3        24     9      180.000000       -0.061670         2    ;  uncertainty k = 0.389275
        21         4         3        24     9        0.000000        0.274791         3    ;  uncertainty k = 0.213692
        21         4         3        24     9      180.000000       -0.053928         4    ;  uncertainty k = 0.077784
        21         4         3        25     9        0.000000       -0.343027         1    ;  uncertainty k = 0.403495
        21         4         3        25     9      180.000000       -0.061672         2    ;  uncertainty k = 0.389274
        21         4         3        25     9        0.000000        0.274791         3    ;  uncertainty k = 0.213692
        21         4         3        25     9      180.000000       -0.053928         4    ;  uncertainty k = 0.077785
        21         4         5        26     9        0.000000       -0.343027         1    ;  uncertainty k = 0.403495
        21         4         5        26     9      180.000000       -0.061672         2    ;  uncertainty k = 0.389274
        21         4         5        26     9        0.000000        0.274791         3    ;  uncertainty k = 0.213692
        21         4         5        26     9      180.000000       -0.053928         4    ;  uncertainty k = 0.077785
        21         4         5        27     9        0.000000       -0.343027         1    ;  uncertainty k = 0.403495
        21         4         5        27     9      180.000000       -0.061672         2    ;  uncertainty k = 0.389274
        21         4         5        27     9        0.000000        0.274791         3    ;  uncertainty k = 0.213692
        21         4         5        27     9      180.000000       -0.053928         4    ;  uncertainty k = 0.077785
        21         4        20        42     9        0.000000        0.214190         1    ;  uncertainty k = 1.165374
        21         4        20        42     9      180.000000       -0.101716         2    ;  uncertainty k = 0.387076
        21         4        20        42     9        0.000000        0.750310         3    ;  uncertainty k = 0.221539
        21         4        20        42     9      180.000000       -0.027140         4    ;  uncertainty k = 0.139764
        21         4        20        43     9        0.000000        0.214190         1    ;  uncertainty k = 1.165374
        21         4        20        43     9      180.000000       -0.101716         2    ;  uncertainty k = 0.387076
        21         4        20        43     9        0.000000        0.750310         3    ;  uncertainty k = 0.221539
        21         4        20        43     9      180.000000       -0.027140         4    ;  uncertainty k = 0.139764
        21         4        20        47     9        0.000000        0.214190         1    ;  uncertainty k = 1.165374
        21         4        20        47     9      180.000000       -0.101716         2    ;  uncertainty k = 0.387076
        21         4        20        47     9        0.000000        0.750310         3    ;  uncertainty k = 0.221539
        21         4        20        47     9      180.000000       -0.027140         4    ;  uncertainty k = 0.139764
        22         2         3        24     9        0.000000        0.135397         1    ;  uncertainty k = 0.251782
        22         2         3        24     9      180.000000        0.391241         2    ;  uncertainty k = 0.363555
        22         2         3        24     9        0.000000        0.145808         3    ;  uncertainty k = 0.091162
        22         2         3        24     9      180.000000       -0.141138         4    ;  uncertainty k = 0.140090
        22         2         3        25     9        0.000000        0.135397         1    ;  uncertainty k = 0.251783
        22         2         3        25     9      180.000000        0.391241         2    ;  uncertainty k = 0.363552
        22         2         3        25     9        0.000000        0.145808         3    ;  uncertainty k = 0.091162
        22         2         3        25     9      180.000000       -0.141138         4    ;  uncertainty k = 0.140090
        23         2         3        24     9        0.000000        0.135397         1    ;  uncertainty k = 0.251782
        23         2         3        24     9      180.000000        0.391241         2    ;  uncertainty k = 0.363555
        23         2         3        24     9        0.000000        0.145808         3    ;  uncertainty k = 0.091162
        23         2         3        24     9      180.000000       -0.141138         4    ;  uncertainty k = 0.140090
        23         2         3        25     9        0.000000        0.135397         1    ;  uncertainty k = 0.251783
        23         2         3        25     9      180.000000        0.391241         2    ;  uncertainty k = 0.363552
        23         2         3        25     9        0.000000        0.145808         3    ;  uncertainty k = 0.091162
        23         2         3        25     9      180.000000       -0.141138         4    ;  uncertainty k = 0.140090
        26         5         6        28     9        0.000000        0.135397         1    ;  uncertainty k = 0.251784
        26         5         6        28     9      180.000000        0.391241         2    ;  uncertainty k = 0.363553
        26         5         6        28     9        0.000000        0.145808         3    ;  uncertainty k = 0.091162
        26         5         6        28     9      180.000000       -0.141138         4    ;  uncertainty k = 0.140090
        26         5         6        29     9        0.000000        0.135397         1    ;  uncertainty k = 0.251784
        26         5         6        29     9      180.000000        0.391241         2    ;  uncertainty k = 0.363553
        26         5         6        29     9        0.000000        0.145808         3    ;  uncertainty k = 0.091162
        26         5         6        29     9      180.000000       -0.141138         4    ;  uncertainty k = 0.140090
        27         5         6        28     9        0.000000        0.135397         1    ;  uncertainty k = 0.251784
        27         5         6        28     9      180.000000        0.391241         2    ;  uncertainty k = 0.363553
        27         5         6        28     9        0.000000        0.145808         3    ;  uncertainty k = 0.091162
        27         5         6        28     9      180.000000       -0.141138         4    ;  uncertainty k = 0.140090
        27         5         6        29     9        0.000000        0.135397         1    ;  uncertainty k = 0.251784
        27         5         6        29     9      180.000000        0.391241         2    ;  uncertainty k = 0.363553
        27         5         6        29     9        0.000000        0.145808         3    ;  uncertainty k = 0.091162
        27         5         6        29     9      180.000000       -0.141138         4    ;  uncertainty k = 0.140090
        30         8         9        31     9        0.000000        0.512059         1    ;  uncertainty k = 0.334015
        30         8         9        31     9      180.000000        1.295534         2    ;  uncertainty k = 0.397082
        30         8         9        31     9        0.000000        0.248394         3    ;  uncertainty k = 0.131003
        30         8         9        31     9      180.000000       -0.050609         4    ;  uncertainty k = 0.042076
        30         8         9        32     9        0.000000        0.512059         1    ;  uncertainty k = 0.334015
        30         8         9        32     9      180.000000        1.295534         2    ;  uncertainty k = 0.397082
        30         8         9        32     9        0.000000        0.248394         3    ;  uncertainty k = 0.131003
        30         8         9        32     9      180.000000       -0.050609         4    ;  uncertainty k = 0.042076
        31         9        10        33     9        0.000000        1.583833         1    ;  uncertainty k = 0.387187
        31         9        10        33     9      180.000000        0.050853         2    ;  uncertainty k = 0.148146
        31         9        10        33     9        0.000000        0.514774         3    ;  uncertainty k = 0.081495
        31         9        10        33     9      180.000000        0.096884         4    ;  uncertainty k = 0.046587
        31         9        10        34     9        0.000000        1.583833         1    ;  uncertainty k = 0.387187
        31         9        10        34     9      180.000000        0.050853         2    ;  uncertainty k = 0.148146
        31         9        10        34     9        0.000000        0.514774         3    ;  uncertainty k = 0.081495
        31         9        10        34     9      180.000000        0.096884         4    ;  uncertainty k = 0.046587
        32         9        10        33     9        0.000000        1.583833         1    ;  uncertainty k = 0.387187
        32         9        10        33     9      180.000000        0.050853         2    ;  uncertainty k = 0.148146
        32         9        10        33     9        0.000000        0.514774         3    ;  uncertainty k = 0.081495
        32         9        10        33     9      180.000000        0.096884         4    ;  uncertainty k = 0.046587
        32         9        10        34     9        0.000000        1.583833         1    ;  uncertainty k = 0.387187
        32         9        10        34     9      180.000000        0.050853         2    ;  uncertainty k = 0.148146
        32         9        10        34     9        0.000000        0.514774         3    ;  uncertainty k = 0.081495
        32         9        10        34     9      180.000000        0.096884         4    ;  uncertainty k = 0.046587
        33        10        11        35     9        0.000000        2.395028         1    ;  uncertainty k = 0.413200
        33        10        11        35     9      180.000000       -0.028766         2    ;  uncertainty k = 0.244744
        33        10        11        35     9        0.000000        0.239468         3    ;  uncertainty k = 0.070997
        33        10        11        35     9      180.000000        0.065270         4    ;  uncertainty k = 0.070687
        33        10        11        36     9        0.000000        2.395028         1    ;  uncertainty k = 0.413200
        33        10        11        36     9      180.000000       -0.028766         2    ;  uncertainty k = 0.244744
        33        10        11        36     9        0.000000        0.239468         3    ;  uncertainty k = 0.070997
        33        10        11        36     9      180.000000        0.065270         4    ;  uncertainty k = 0.070687
        34        10        11        35     9        0.000000        2.395028         1    ;  uncertainty k = 0.413200
        34        10        11        35     9      180.000000       -0.028766         2    ;  uncertainty k = 0.244744
        34        10        11        35     9        0.000000        0.239468         3    ;  uncertainty k = 0.070997
        34        10        11        35     9      180.000000        0.065270         4    ;  uncertainty k = 0.070687
        34        10        11        36     9        0.000000        2.395028         1    ;  uncertainty k = 0.413200
        34        10        11        36     9      180.000000       -0.028766         2    ;  uncertainty k = 0.244744
        34        10        11        36     9        0.000000        0.239468         3    ;  uncertainty k = 0.070997
        34        10        11        36     9      180.000000        0.065270         4    ;  uncertainty k = 0.070687
        35        11        12        37     9        0.000000        1.470162         1    ;  uncertainty k = 0.262996
        35        11        12        37     9      180.000000       -0.022638         2    ;  uncertainty k = 0.214569
        35        11        12        37     9        0.000000        0.514644         3    ;  uncertainty k = 0.058275
        35        11        12        37     9      180.000000        0.112522         4    ;  uncertainty k = 0.036664
        35        11        12        38     9        0.000000        1.470162         1    ;  uncertainty k = 0.262996
        35        11        12        38     9      180.000000       -0.022638         2    ;  uncertainty k = 0.214569
        35        11        12        38     9        0.000000        0.514644         3    ;  uncertainty k = 0.058275
        35        11        12        38     9      180.000000        0.112522         4    ;  uncertainty k = 0.036664
        36        11        12        37     9        0.000000        1.470162         1    ;  uncertainty k = 0.262996
        36        11        12        37     9      180.000000       -0.022638         2    ;  uncertainty k = 0.214569
        36        11        12        37     9        0.000000        0.514644         3    ;  uncertainty k = 0.058275
        36        11        12        37     9      180.000000        0.112522         4    ;  uncertainty k = 0.036664
        36        11        12        38     9        0.000000        1.470162         1    ;  uncertainty k = 0.262996
        36        11        12        38     9      180.000000       -0.022638         2    ;  uncertainty k = 0.214569
        36        11        12        38     9        0.000000        0.514644         3    ;  uncertainty k = 0.058275
        36        11        12        38     9      180.000000        0.112522         4    ;  uncertainty k = 0.036664

[ dihedrals ] ; impropers
;       ai        aj        ak        al funct           phase               k        pn
         7         8        12        13     4      180.000000       16.343939         2    ;  uncertainty k = 0.085407
         7        12        13         8     4      180.000000       16.343939         2    ;  uncertainty k = 0.085407
         7        13         8        12     4      180.000000       16.343939         2    ;  uncertainty k = 0.085407
         8         7         9        30     4      180.000000        9.433018         2    ;  uncertainty k = 0.067378
         8         9        30         7     4      180.000000        9.433018         2    ;  uncertainty k = 0.067378
         8        30         7         9     4      180.000000        9.433018         2    ;  uncertainty k = 0.067378
        13         7        14        18     4      180.000000       17.770855         2    ;  uncertainty k = 0.116322
        13        14        18         7     4      180.000000       17.770855         2    ;  uncertainty k = 0.116322
        13        18         7        14     4      180.000000       17.770855         2    ;  uncertainty k = 0.116322
        15        14        16        39     4      180.000000        7.985330         2    ;  uncertainty k = 0.277564
        15        16        39        14     4      180.000000        7.985330         2    ;  uncertainty k = 0.277564
        15        39        14        16     4      180.000000        7.985330         2    ;  uncertainty k = 0.277564
        16         1        15        17     4      180.000000       31.775328         2    ;  uncertainty k = 0.063631
        16        15        17         1     4      180.000000       31.775328         2    ;  uncertainty k = 0.063631
        16        17         1        15     4      180.000000       31.775328         2    ;  uncertainty k = 0.063631
        18        13        17        19     4      180.000000       30.955132         2    ;  uncertainty k = 0.087578
        18        17        19        13     4      180.000000       30.955132         2    ;  uncertainty k = 0.087578
        18        19        13        17     4      180.000000       30.955132         2    ;  uncertainty k = 0.087578

[ pairs ]
;       ai        aj funct
         1         4     1
         1        14     1
         1        18     1
         1        24     1
         1        25     1
         1        26     1
         1        27     1
         1        39     1
         2         5     1
         2        15     1
         2        17     1
         2        20     1
         2        21     1
         2        28     1
         2        29     1
         3         6     1
         3        16     1
         3        26     1
         3        27     1
         3        42     1
         3        43     1
         3        44     1
         3        45     1
         3        46     1
         3        47     1
         4        22     1
         4        23     1
         4        28     1
         4        29     1
         5        16     1
         5        24     1
         5        25     1
         5        42     1
         5        43     1
         5        44     1
         5        45     1
         5        46     1
         5        47     1
         6        15     1
         6        17     1
         6        20     1
         6        21     1
         6        22     1
         6        23     1
         7        10     1
         7        15     1
         7        17     1
         7        19     1
         7        31     1
         7        32     1
         7        35     1
         7        36     1
         8        11     1
         8        14     1
         8        18     1
         8        33     1
         8        34     1
         8        37     1
         8        38     1
         9        12     1
         9        13     1
         9        35     1
         9        36     1
        10        30     1
        10        37     1
        10        38     1
        11        13     1
        11        31     1
        11        32     1
        12        14     1
        12        18     1
        12        30     1
        12        33     1
        12        34     1
        13        16     1
        13        30     1
        13        37     1
        13        38     1
        13        39     1
        13        40     1
        13        41     1
        14        17     1
        14        19     1
        15        18     1
        16        19     1
        16        22     1
        16        23     1
        16        28     1
        16        29     1
        17        39     1
        17        40     1
        17        41     1
        20        24     1
        20        25     1
        20        26     1
        20        27     1
        20        44     1
        20        45     1
        20        46     1
        21        24     1
        21        25     1
        21        26     1
        21        27     1
        21        42     1
        21        43     1
        21        47     1
        22        24     1
        22        25     1
        23        24     1
        23        25     1
        26        28     1
        26        29     1
        27        28     1
        27        29     1
        30        31     1
        30        32     1
        31        33     1
        31        34     1
        32        33     1
        32        34     1
        33        35     1
        33        36     1
        34        35     1
        34        36     1
        35        37     1
        35        38     1
        36        37     1
        36        38     1
