; ITP file created by ByteFF-joint-25, 2026-02-17 09:35:29.241844

[ atomtypes ]
;name           bonded.type        at.num        mass        charge   ptype           sigma         epsilon
 n0bf                                   7      0.0000       0.00000       A     3.18998e-01     8.99142e-01    ;  uncertainty sigma = 0.000029, epsilon = 0.002716
 c1bf                                   6      0.0000       0.00000       A     3.39780e-01     4.50260e-01    ;  uncertainty sigma = 0.000020, epsilon = 0.001089
 c2bf                                   6      0.0000       0.00000       A     3.39771e-01     4.51072e-01    ;  uncertainty sigma = 0.000022, epsilon = 0.000654
 c3bf                                   6      0.0000       0.00000       A     3.39788e-01     4.49780e-01    ;  uncertainty sigma = 0.000038, epsilon = 0.001520
 c4bf                                   6      0.0000       0.00000       A     3.39771e-01     4.51072e-01    ;  uncertainty sigma = 0.000022, epsilon = 0.000654
 c5bf                                   6      0.0000       0.00000       A     3.39780e-01     4.50260e-01    ;  uncertainty sigma = 0.000020, epsilon = 0.001089
 c6bf                                   6      0.0000       0.00000       A     3.31544e-01     4.12884e-01    ;  uncertainty sigma = 0.000006, epsilon = 0.000919
 c7bf                                   6      0.0000       0.00000       A     3.31516e-01     4.13405e-01    ;  uncertainty sigma = 0.000011, epsilon = 0.000748
 c8bf                                   6      0.0000       0.00000       A     3.31517e-01     4.13352e-01    ;  uncertainty sigma = 0.000005, epsilon = 0.000514
 c9bf                                   6      0.0000       0.00000       A     3.31517e-01     4.13339e-01    ;  uncertainty sigma = 0.000004, epsilon = 0.000628
 c10bf                                  6      0.0000       0.00000       A     3.31517e-01     4.13337e-01    ;  uncertainty sigma = 0.000004, epsilon = 0.000623
 c11bf                                  6      0.0000       0.00000       A     3.31509e-01     4.13079e-01    ;  uncertainty sigma = 0.000005, epsilon = 0.000621
 c12bf                                  6      0.0000       0.00000       A     3.31562e-01     4.12750e-01    ;  uncertainty sigma = 0.000015, epsilon = 0.001859
 c13bf                                  6      0.0000       0.00000       A     3.31510e-01     4.13299e-01    ;  uncertainty sigma = 0.000009, epsilon = 0.000627
 n14bf                                  7      0.0000       0.00000       A     3.38405e-01     3.93997e-01    ;  uncertainty sigma = 0.000020, epsilon = 0.001343
 c15bf                                  6      0.0000       0.00000       A     3.31540e-01     4.14244e-01    ;  uncertainty sigma = 0.000012, epsilon = 0.001149
 n16bf                                  7      0.0000       0.00000       A     3.38461e-01     3.93887e-01    ;  uncertainty sigma = 0.000038, epsilon = 0.001240
 c17bf                                  6      0.0000       0.00000       A     3.31536e-01     4.12147e-01    ;  uncertainty sigma = 0.000013, epsilon = 0.001746
 cl18bf                                17      0.0000       0.00000       A     3.46639e-01     1.10469e+00    ;  uncertainty sigma = 0.000020, epsilon = 0.001458
 cl19bf                                17      0.0000       0.00000       A     3.46608e-01     1.10488e+00    ;  uncertainty sigma = 0.000013, epsilon = 0.002160
 n20bf                                  7      0.0000       0.00000       A     3.36871e-01     4.68770e-01    ;  uncertainty sigma = 0.000036, epsilon = 0.004307
 n21bf                                  7      0.0000       0.00000       A     2.77101e-01     4.77733e+00    ;  uncertainty sigma = 0.000102, epsilon = 0.025603
 c22bf                                  6      0.0000       0.00000       A     3.39744e-01     4.51058e-01    ;  uncertainty sigma = 0.000018, epsilon = 0.000674
 h23bf                                  1      0.0000       0.00000       A     2.42224e-01     8.69291e-02    ;  uncertainty sigma = 0.000024, epsilon = 0.000777
 h24bf                                  1      0.0000       0.00000       A     2.42224e-01     8.69291e-02    ;  uncertainty sigma = 0.000024, epsilon = 0.000777
 h25bf                                  1      0.0000       0.00000       A     2.60047e-01     8.66235e-02    ;  uncertainty sigma = 0.000026, epsilon = 0.001019
 h26bf                                  1      0.0000       0.00000       A     2.60047e-01     8.66235e-02    ;  uncertainty sigma = 0.000026, epsilon = 0.001019
 h27bf                                  1      0.0000       0.00000       A     2.60047e-01     8.66235e-02    ;  uncertainty sigma = 0.000026, epsilon = 0.001019
 h28bf                                  1      0.0000       0.00000       A     2.60047e-01     8.66235e-02    ;  uncertainty sigma = 0.000026, epsilon = 0.001019
 h29bf                                  1      0.0000       0.00000       A     2.42224e-01     8.69291e-02    ;  uncertainty sigma = 0.000024, epsilon = 0.000777
 h30bf                                  1      0.0000       0.00000       A     2.42224e-01     8.69291e-02    ;  uncertainty sigma = 0.000024, epsilon = 0.000777
 h31bf                                  1      0.0000       0.00000       A     2.62556e-01     6.70339e-02    ;  uncertainty sigma = 0.000007, epsilon = 0.000600
 h32bf                                  1      0.0000       0.00000       A     2.62568e-01     6.69666e-02    ;  uncertainty sigma = 0.000007, epsilon = 0.000468
 h33bf                                  1      0.0000       0.00000       A     2.62564e-01     6.70394e-02    ;  uncertainty sigma = 0.000010, epsilon = 0.000469
 h34bf                                  1      0.0000       0.00000       A     1.10744e-01     4.05584e-02    ;  uncertainty sigma = 0.000197, epsilon = 0.001139
 h35bf                                  1      0.0000       0.00000       A     2.60029e-01     8.68919e-02    ;  uncertainty sigma = 0.000018, epsilon = 0.000792
 h36bf                                  1      0.0000       0.00000       A     2.60029e-01     8.68919e-02    ;  uncertainty sigma = 0.000018, epsilon = 0.000792
 h37bf                                  1      0.0000       0.00000       A     2.60029e-01     8.68919e-02    ;  uncertainty sigma = 0.000018, epsilon = 0.000792
 h38bf                                  1      0.0000       0.00000       A     1.10744e-01     4.05584e-02    ;  uncertainty sigma = 0.000197, epsilon = 0.001139
 h39bf                                  1      0.0000       0.00000       A     1.10718e-01     4.12967e-02    ;  uncertainty sigma = 0.000085, epsilon = 0.000435
 h40bf                                  1      0.0000       0.00000       A     2.53681e-01     6.68790e-02    ;  uncertainty sigma = 0.000034, epsilon = 0.000846
 h41bf                                  1      0.0000       0.00000       A     1.10718e-01     4.12966e-02    ;  uncertainty sigma = 0.000085, epsilon = 0.000435
 h42bf                                  1      0.0000       0.00000       A     1.10744e-01     4.05584e-02    ;  uncertainty sigma = 0.000197, epsilon = 0.001139

[ moleculetype ]
;name             nrexcl
 MOL                   3

[ atoms ]
;       nr            type      resi   res      atom      cgnr      charge          mass ; qtot
         1            n0bf         1   UNL        n0         1    -0.78098       14.0070 ; qtot   -0.781
         2            c1bf         1   UNL        c1         2     0.23266       12.0110 ; qtot   -0.548
         3            c2bf         1   UNL        c2         3    -0.11952       12.0110 ; qtot   -0.668
         4            c3bf         1   UNL        c3         4     0.18766       12.0110 ; qtot   -0.480
         5            c4bf         1   UNL        c4         5    -0.11952       12.0110 ; qtot   -0.600
         6            c5bf         1   UNL        c5         6     0.23266       12.0110 ; qtot   -0.367
         7            c6bf         1   UNL        c6         7    -0.00236       12.0110 ; qtot   -0.369
         8            c7bf         1   UNL        c7         8     0.03905       12.0110 ; qtot   -0.330
         9            c8bf         1   UNL        c8         9     0.02984       12.0110 ; qtot   -0.301
        10            c9bf         1   UNL        c9        10    -0.10811       12.0110 ; qtot   -0.409
        11           c10bf         1   UNL       c10        11    -0.11758       12.0110 ; qtot   -0.526
        12           c11bf         1   UNL       c11        12    -0.11056       12.0110 ; qtot   -0.637
        13           c12bf         1   UNL       c12        13    -0.38191       12.0110 ; qtot   -1.019
        14           c13bf         1   UNL       c13        14     0.50957       12.0110 ; qtot   -0.509
        15           n14bf         1   UNL       n14        15    -0.79558       14.0070 ; qtot   -1.305
        16           c15bf         1   UNL       c15        16     0.93520       12.0110 ; qtot   -0.369
        17           n16bf         1   UNL       n16        17    -0.85387       14.0070 ; qtot   -1.223
        18           c17bf         1   UNL       c17        18     0.72606       12.0110 ; qtot   -0.497
        19          cl18bf         1   UNL      cl18        19    -0.08432       35.4530 ; qtot   -0.582
        20          cl19bf         1   UNL      cl19        20    -0.08434       35.4530 ; qtot   -0.666
        21           n20bf         1   UNL       n20        21    -0.92216       14.0070 ; qtot   -1.588
        22           n21bf         1   UNL       n21        22    -0.86673       14.0070 ; qtot   -2.455
        23           c22bf         1   UNL       c22        23    -0.13034       12.0110 ; qtot   -2.585
        24           h23bf         1   UNL       h23        24     0.07772        1.0080 ; qtot   -2.507
        25           h24bf         1   UNL       h24        25     0.07772        1.0080 ; qtot   -2.430
        26           h25bf         1   UNL       h25        26     0.08339        1.0080 ; qtot   -2.346
        27           h26bf         1   UNL       h26        27     0.08339        1.0080 ; qtot   -2.263
        28           h27bf         1   UNL       h27        28     0.08339        1.0080 ; qtot   -2.180
        29           h28bf         1   UNL       h28        29     0.08339        1.0080 ; qtot   -2.096
        30           h29bf         1   UNL       h29        30     0.07772        1.0080 ; qtot   -2.018
        31           h30bf         1   UNL       h30        31     0.07772        1.0080 ; qtot   -1.941
        32           h31bf         1   UNL       h31        32     0.15499        1.0080 ; qtot   -1.786
        33           h32bf         1   UNL       h32        33     0.14427        1.0080 ; qtot   -1.641
        34           h33bf         1   UNL       h33        34     0.14475        1.0080 ; qtot   -1.497
        35           h34bf         1   UNL       h34        35     0.46464        1.0080 ; qtot   -1.032
        36           h35bf         1   UNL       h35        36     0.07734        1.0080 ; qtot   -0.955
        37           h36bf         1   UNL       h36        37     0.07734        1.0080 ; qtot   -0.877
        38           h37bf         1   UNL       h37        38     0.07734        1.0080 ; qtot   -0.800
        39           h38bf         1   UNL       h38        39     0.46464        1.0080 ; qtot   -0.335
        40           h39bf         1   UNL       h39        40     0.42318        1.0080 ; qtot    0.088
        41           h40bf         1   UNL       h40        41     0.02442        1.0080 ; qtot    0.112
        42           h41bf         1   UNL       h41        42     0.42318        1.0080 ; qtot    0.535
        43           h42bf         1   UNL       h42        43     0.46465        1.0080 ; qtot    1.000

[ bonds ]
;       ai        aj funct               r               k
         1         2     1        0.144968   251114.134229    ;  uncertainty r = 0.000170, k = 12.476836
         1         6     1        0.144968   251114.134229    ;  uncertainty r = 0.000170, k = 12.476836
         1        16     1        0.138274   305702.974268    ;  uncertainty r = 0.000340, k = 19.136977
         2         3     1        0.154006   208103.206689    ;  uncertainty r = 0.000229, k = 14.884648
         2        24     1        0.109449   306948.623389    ;  uncertainty r = 0.000047, k = 1.171879
         2        25     1        0.109449   306948.623389    ;  uncertainty r = 0.000047, k = 1.171879
         3         4     1        0.153723   202820.651318    ;  uncertainty r = 0.000184, k = 7.066036
         3        26     1        0.109581   310499.532910    ;  uncertainty r = 0.000037, k = 1.905368
         3        27     1        0.109581   310499.532910    ;  uncertainty r = 0.000037, k = 1.905368
         4         5     1        0.153723   202820.651318    ;  uncertainty r = 0.000184, k = 7.066036
         4        22     1        0.155122   197292.186353    ;  uncertainty r = 0.000211, k = 49.108522
         4        23     1        0.152893   210290.460107    ;  uncertainty r = 0.000125, k = 13.841219
         5         6     1        0.154006   208103.206689    ;  uncertainty r = 0.000229, k = 14.884648
         5        28     1        0.109581   310499.532910    ;  uncertainty r = 0.000037, k = 1.905368
         5        29     1        0.109581   310499.532910    ;  uncertainty r = 0.000037, k = 1.905368
         6        30     1        0.109449   306948.623389    ;  uncertainty r = 0.000047, k = 1.171879
         6        31     1        0.109449   306948.623389    ;  uncertainty r = 0.000047, k = 1.171879
         7         8     1        0.140429   333897.985986    ;  uncertainty r = 0.000054, k = 5.714440
         7        12     1        0.140308   347052.508545    ;  uncertainty r = 0.000078, k = 3.464620
         7        13     1        0.148039   290467.100684    ;  uncertainty r = 0.000178, k = 8.335935
         8         9     1        0.140128   340452.493701    ;  uncertainty r = 0.000048, k = 1.609083
         8        20     1        0.174433   187283.580298    ;  uncertainty r = 0.000095, k = 4.003621
         9        10     1        0.139452   364547.190527    ;  uncertainty r = 0.000024, k = 3.123765
         9        19     1        0.174657   190992.449609    ;  uncertainty r = 0.000061, k = 2.464953
        10        11     1        0.139288   379463.467187    ;  uncertainty r = 0.000019, k = 0.532740
        10        32     1        0.108658   335617.322949    ;  uncertainty r = 0.000011, k = 0.544911
        11        12     1        0.139326   372187.280762    ;  uncertainty r = 0.000011, k = 0.917764
        11        33     1        0.108742   332867.155029    ;  uncertainty r = 0.000010, k = 1.148089
        12        34     1        0.108740   333988.489502    ;  uncertainty r = 0.000014, k = 1.635846
        13        14     1        0.140148   415850.630371    ;  uncertainty r = 0.000058, k = 21.561237
        13        18     1        0.142468   435436.827148    ;  uncertainty r = 0.000146, k = 25.675877
        14        15     1        0.134349   424378.135156    ;  uncertainty r = 0.000314, k = 14.939532
        14        41     1        0.108839   326187.643164    ;  uncertainty r = 0.000016, k = 4.409353
        15        16     1        0.136231   473058.811719    ;  uncertainty r = 0.000131, k = 8.961163
        16        17     1        0.137045   459532.162402    ;  uncertainty r = 0.000097, k = 20.238256
        17        18     1        0.137136   553885.550488    ;  uncertainty r = 0.000345, k = 18.138846
        18        21     1        0.141147   543861.928613    ;  uncertainty r = 0.000306, k = 32.823397
        21        40     1        0.101885   428718.371191    ;  uncertainty r = 0.000039, k = 2.239531
        21        42     1        0.101885   428718.371191    ;  uncertainty r = 0.000039, k = 2.239531
        22        35     1        0.102893   408930.686621    ;  uncertainty r = 0.000060, k = 6.495046
        22        39     1        0.102893   408930.686621    ;  uncertainty r = 0.000060, k = 6.495046
        22        43     1        0.102893   408930.686621    ;  uncertainty r = 0.000060, k = 6.495046
        23        36     1        0.109485   313302.332813    ;  uncertainty r = 0.000023, k = 3.037366
        23        37     1        0.109485   313302.332813    ;  uncertainty r = 0.000023, k = 3.037366
        23        38     1        0.109485   313302.383887    ;  uncertainty r = 0.000023, k = 3.037347

[ angles ]
;       ai        aj        ak funct           theta             cth
         1         2         3     1      109.321327      693.713214    ;  uncertainty theta = 0.000907, k = 0.187356
         1         2        24     1      106.440819      457.938851    ;  uncertainty theta = 0.002047, k = 0.076265
         1         2        25     1      106.440819      457.938851    ;  uncertainty theta = 0.002047, k = 0.076265
         1         6         5     1      109.321327      693.713214    ;  uncertainty theta = 0.000907, k = 0.187356
         1         6        30     1      106.440819      457.938851    ;  uncertainty theta = 0.002047, k = 0.076265
         1         6        31     1      106.440819      457.938851    ;  uncertainty theta = 0.002047, k = 0.076265
         1        16        15     1      119.855728      554.739499    ;  uncertainty theta = 0.007013, k = 0.163857
         1        16        17     1      120.020409      594.592328    ;  uncertainty theta = 0.005578, k = 0.163936
         2         1         6     1      107.733925      419.581315    ;  uncertainty theta = 0.015928, k = 0.113518
         2         1        16     1      110.313477      436.064849    ;  uncertainty theta = 0.005991, k = 0.091291
         2         3         4     1      110.246338      546.471476    ;  uncertainty theta = 0.002854, k = 0.106854
         2         3        26     1      108.185547      399.606060    ;  uncertainty theta = 0.001628, k = 0.129027
         2         3        27     1      108.185547      399.606060    ;  uncertainty theta = 0.001628, k = 0.129027
         3         2        24     1      108.883324      414.526276    ;  uncertainty theta = 0.003534, k = 0.109424
         3         2        25     1      108.883324      414.526276    ;  uncertainty theta = 0.003534, k = 0.109424
         3         4         5     1      110.758156      579.433309    ;  uncertainty theta = 0.006554, k = 0.204301
         3         4        22     1      107.278976      685.372092    ;  uncertainty theta = 0.005309, k = 0.324780
         3         4        23     1      111.951096      573.556198    ;  uncertainty theta = 0.003615, k = 0.042900
         4         3        26     1      107.188622      391.727607    ;  uncertainty theta = 0.002259, k = 0.172799
         4         3        27     1      107.188622      391.727607    ;  uncertainty theta = 0.002259, k = 0.172799
         4         5         6     1      110.246338      546.471476    ;  uncertainty theta = 0.002854, k = 0.106854
         4         5        28     1      107.188622      391.727607    ;  uncertainty theta = 0.002259, k = 0.172799
         4         5        29     1      107.188622      391.727607    ;  uncertainty theta = 0.002259, k = 0.172799
         4        22        35     1      110.464333      409.034616    ;  uncertainty theta = 0.003988, k = 0.162351
         4        22        39     1      110.464333      409.034616    ;  uncertainty theta = 0.003988, k = 0.162351
         4        22        43     1      110.464333      409.034616    ;  uncertainty theta = 0.003988, k = 0.162351
         4        23        36     1      107.456223      389.152764    ;  uncertainty theta = 0.000505, k = 0.034812
         4        23        37     1      107.456223      389.152764    ;  uncertainty theta = 0.000505, k = 0.034812
         4        23        38     1      107.456223      389.152796    ;  uncertainty theta = 0.000505, k = 0.034812
         5         4        22     1      107.278976      685.372092    ;  uncertainty theta = 0.005309, k = 0.324780
         5         4        23     1      111.951096      573.556198    ;  uncertainty theta = 0.003615, k = 0.042900
         5         6        30     1      108.883324      414.526276    ;  uncertainty theta = 0.003534, k = 0.109424
         5         6        31     1      108.883324      414.526276    ;  uncertainty theta = 0.003534, k = 0.109424
         6         1        16     1      110.313477      436.064849    ;  uncertainty theta = 0.005991, k = 0.091291
         6         5        28     1      108.185547      399.606060    ;  uncertainty theta = 0.001628, k = 0.129027
         6         5        29     1      108.185547      399.606060    ;  uncertainty theta = 0.001628, k = 0.129027
         7         8         9     1      123.806595      370.654575    ;  uncertainty theta = 0.003909, k = 0.241726
         7         8        20     1      117.947044      417.111557    ;  uncertainty theta = 0.003602, k = 0.105794
         7        12        11     1      121.123550      523.746609    ;  uncertainty theta = 0.001876, k = 0.071020
         7        12        34     1      118.550636      276.208641    ;  uncertainty theta = 0.002834, k = 0.073302
         7        13        14     1      123.380577      402.723215    ;  uncertainty theta = 0.004881, k = 0.230221
         7        13        18     1      121.296646      351.690239    ;  uncertainty theta = 0.004020, k = 0.355657
         8         7        12     1      121.064842      395.754841    ;  uncertainty theta = 0.002834, k = 0.243733
         8         7        13     1      120.830795      383.388591    ;  uncertainty theta = 0.006479, k = 0.176899
         8         9        10     1      121.616013      353.425103    ;  uncertainty theta = 0.003641, k = 0.137799
         8         9        19     1      120.540298      453.094142    ;  uncertainty theta = 0.001524, k = 0.111136
         9         8        20     1      120.212685      454.993050    ;  uncertainty theta = 0.002574, k = 0.111788
         9        10        11     1      118.528542      504.617048    ;  uncertainty theta = 0.003207, k = 0.070711
         9        10        32     1      119.966553      282.454411    ;  uncertainty theta = 0.002324, k = 0.079692
        10         9        19     1      120.286354      456.044413    ;  uncertainty theta = 0.002060, k = 0.119008
        10        11        12     1      119.409912      508.564574    ;  uncertainty theta = 0.002263, k = 0.038897
        10        11        33     1      120.063889      285.082084    ;  uncertainty theta = 0.000495, k = 0.022586
        11        10        32     1      121.400040      282.032570    ;  uncertainty theta = 0.001563, k = 0.013158
        11        12        34     1      120.689560      293.587538    ;  uncertainty theta = 0.000920, k = 0.056040
        12         7        13     1      122.426003      429.947019    ;  uncertainty theta = 0.006004, k = 0.145382
        12        11        33     1      120.405472      283.929530    ;  uncertainty theta = 0.000709, k = 0.032108
        13        14        15     1      124.068359      718.335776    ;  uncertainty theta = 0.002673, k = 0.164754
        13        14        41     1      119.538536      262.864017    ;  uncertainty theta = 0.003737, k = 0.141356
        13        18        17     1      122.303299      540.857143    ;  uncertainty theta = 0.008002, k = 0.155119
        13        18        21     1      125.345169      512.932058    ;  uncertainty theta = 0.003371, k = 0.195410
        14        13        18     1      117.095749      438.004775    ;  uncertainty theta = 0.015230, k = 0.894267
        14        15        16     1      115.553734      414.220246    ;  uncertainty theta = 0.006755, k = 0.240495
        15        14        41     1      116.537865      323.396782    ;  uncertainty theta = 0.004078, k = 0.146978
        15        16        17     1      128.528290      730.251199    ;  uncertainty theta = 0.003716, k = 0.077391
        16        17        18     1      122.433716      478.394938    ;  uncertainty theta = 0.005735, k = 0.203370
        17        18        21     1      125.528793      903.169543    ;  uncertainty theta = 0.004935, k = 0.070068
        18        21        40     1      118.192444      415.370341    ;  uncertainty theta = 0.001830, k = 0.144658
        18        21        42     1      118.192444      415.370341    ;  uncertainty theta = 0.001830, k = 0.144658
        22         4        23     1      107.732376      711.715791    ;  uncertainty theta = 0.003143, k = 0.202828
        24         2        25     1      105.643227      323.899224    ;  uncertainty theta = 0.003009, k = 0.029639
        26         3        27     1      106.079811      314.629541    ;  uncertainty theta = 0.002798, k = 0.097750
        28         5        29     1      106.079811      314.629541    ;  uncertainty theta = 0.002798, k = 0.097750
        30         6        31     1      105.643227      323.899224    ;  uncertainty theta = 0.003009, k = 0.029639
        35        22        39     1      108.017105      374.242252    ;  uncertainty theta = 0.003302, k = 0.129446
        35        22        43     1      108.017105      374.242252    ;  uncertainty theta = 0.003302, k = 0.129446
        36        23        37     1      105.936523      319.817118    ;  uncertainty theta = 0.000605, k = 0.051303
        36        23        38     1      105.936523      319.817118    ;  uncertainty theta = 0.000605, k = 0.051303
        37        23        38     1      105.936523      319.817118    ;  uncertainty theta = 0.000605, k = 0.051303
        39        22        43     1      108.017105      374.242252    ;  uncertainty theta = 0.003302, k = 0.129446
        40        21        42     1      107.953087      275.511637    ;  uncertainty theta = 0.001193, k = 0.067996

[ dihedrals ] ; propers for gromacs 4.5 or higher, use funct 9
;       ai        aj        ak        al funct           phase               k        pn
         1         2         3         4     9        0.000000        3.479794         1    ;  uncertainty k = 2.631245
         1         2         3         4     9      180.000000       -4.414620         2    ;  uncertainty k = 0.895315
         1         2         3         4     9        0.000000        1.951912         3    ;  uncertainty k = 0.250640
         1         2         3         4     9      180.000000       -0.432234         4    ;  uncertainty k = 0.279775
         1         2         3        26     9        0.000000       -1.904475         1    ;  uncertainty k = 1.110761
         1         2         3        26     9      180.000000        0.320118         2    ;  uncertainty k = 0.432128
         1         2         3        26     9        0.000000        1.283059         3    ;  uncertainty k = 0.346519
         1         2         3        26     9      180.000000       -0.248889         4    ;  uncertainty k = 0.091362
         1         2         3        27     9        0.000000       -1.904475         1    ;  uncertainty k = 1.110761
         1         2         3        27     9      180.000000        0.320118         2    ;  uncertainty k = 0.432128
         1         2         3        27     9        0.000000        1.283059         3    ;  uncertainty k = 0.346519
         1         2         3        27     9      180.000000       -0.248889         4    ;  uncertainty k = 0.091362
         1         6         5         4     9        0.000000        3.479794         1    ;  uncertainty k = 2.631245
         1         6         5         4     9      180.000000       -4.414620         2    ;  uncertainty k = 0.895315
         1         6         5         4     9        0.000000        1.951912         3    ;  uncertainty k = 0.250640
         1         6         5         4     9      180.000000       -0.432234         4    ;  uncertainty k = 0.279775
         1         6         5        28     9        0.000000       -1.904475         1    ;  uncertainty k = 1.110761
         1         6         5        28     9      180.000000        0.320118         2    ;  uncertainty k = 0.432128
         1         6         5        28     9        0.000000        1.283059         3    ;  uncertainty k = 0.346519
         1         6         5        28     9      180.000000       -0.248889         4    ;  uncertainty k = 0.091362
         1         6         5        29     9        0.000000       -1.904475         1    ;  uncertainty k = 1.110761
         1         6         5        29     9      180.000000        0.320118         2    ;  uncertainty k = 0.432128
         1         6         5        29     9        0.000000        1.283059         3    ;  uncertainty k = 0.346519
         1         6         5        29     9      180.000000       -0.248889         4    ;  uncertainty k = 0.091362
         1        16        15        14     9        0.000000        0.817908         1    ;  uncertainty k = 1.768173
         1        16        15        14     9      180.000000        9.917844         2    ;  uncertainty k = 0.165988
         1        16        15        14     9        0.000000        1.510591         3    ;  uncertainty k = 0.582878
         1        16        15        14     9      180.000000        0.782227         4    ;  uncertainty k = 0.175612
         1        16        17        18     9        0.000000        0.748192         1    ;  uncertainty k = 1.163722
         1        16        17        18     9      180.000000        9.986481         2    ;  uncertainty k = 0.538236
         1        16        17        18     9        0.000000        1.552615         3    ;  uncertainty k = 0.309373
         1        16        17        18     9      180.000000        0.788152         4    ;  uncertainty k = 0.256848
         2         1         6         5     9        0.000000       -6.396973         1    ;  uncertainty k = 2.175872
         2         1         6         5     9      180.000000        1.538835         2    ;  uncertainty k = 0.773480
         2         1         6         5     9        0.000000        1.176906         3    ;  uncertainty k = 0.288771
         2         1         6         5     9      180.000000       -0.468910         4    ;  uncertainty k = 0.183517
         2         1         6        30     9        0.000000       -6.047318         1    ;  uncertainty k = 1.982148
         2         1         6        30     9      180.000000        0.993137         2    ;  uncertainty k = 0.489808
         2         1         6        30     9        0.000000        0.822683         3    ;  uncertainty k = 0.044513
         2         1         6        30     9      180.000000       -0.076732         4    ;  uncertainty k = 0.063310
         2         1         6        31     9        0.000000       -6.047318         1    ;  uncertainty k = 1.982148
         2         1         6        31     9      180.000000        0.993137         2    ;  uncertainty k = 0.489808
         2         1         6        31     9        0.000000        0.822683         3    ;  uncertainty k = 0.044513
         2         1         6        31     9      180.000000       -0.076732         4    ;  uncertainty k = 0.063310
         2         1        16        15     9        0.000000        4.882808         1    ;  uncertainty k = 1.131647
         2         1        16        15     9      180.000000       11.319773         2    ;  uncertainty k = 0.167099
         2         1        16        15     9        0.000000        0.481285         3    ;  uncertainty k = 0.234023
         2         1        16        15     9      180.000000       -0.188826         4    ;  uncertainty k = 0.100452
         2         1        16        17     9        0.000000        6.565185         1    ;  uncertainty k = 0.899569
         2         1        16        17     9      180.000000       11.421565         2    ;  uncertainty k = 0.120462
         2         1        16        17     9        0.000000        0.503067         3    ;  uncertainty k = 0.148506
         2         1        16        17     9      180.000000       -0.224790         4    ;  uncertainty k = 0.103442
         2         3         4         5     9        0.000000       -1.995785         1    ;  uncertainty k = 1.854286
         2         3         4         5     9      180.000000        0.461226         2    ;  uncertainty k = 0.623979
         2         3         4         5     9        0.000000        0.633424         3    ;  uncertainty k = 0.430864
         2         3         4         5     9      180.000000       -1.000696         4    ;  uncertainty k = 0.199219
         2         3         4        22     9        0.000000       -4.922189         1    ;  uncertainty k = 1.419897
         2         3         4        22     9      180.000000       -1.288662         2    ;  uncertainty k = 1.614288
         2         3         4        22     9        0.000000        1.032740         3    ;  uncertainty k = 0.323245
         2         3         4        22     9      180.000000        0.204775         4    ;  uncertainty k = 0.137621
         2         3         4        23     9        0.000000       -4.846863         1    ;  uncertainty k = 0.953611
         2         3         4        23     9      180.000000        1.255316         2    ;  uncertainty k = 0.483533
         2         3         4        23     9        0.000000        0.497225         3    ;  uncertainty k = 0.328814
         2         3         4        23     9      180.000000       -0.186222         4    ;  uncertainty k = 0.107604
         3         2         1         6     9        0.000000       -6.396973         1    ;  uncertainty k = 2.175872
         3         2         1         6     9      180.000000        1.538835         2    ;  uncertainty k = 0.773480
         3         2         1         6     9        0.000000        1.176906         3    ;  uncertainty k = 0.288771
         3         2         1         6     9      180.000000       -0.468910         4    ;  uncertainty k = 0.183517
         3         2         1        16     9        0.000000       -3.658726         1    ;  uncertainty k = 0.848563
         3         2         1        16     9      180.000000        0.873176         2    ;  uncertainty k = 0.535365
         3         2         1        16     9        0.000000        0.040815         3    ;  uncertainty k = 0.264460
         3         2         1        16     9      180.000000        0.238036         4    ;  uncertainty k = 0.151405
         3         4         5         6     9        0.000000       -1.995785         1    ;  uncertainty k = 1.854286
         3         4         5         6     9      180.000000        0.461226         2    ;  uncertainty k = 0.623979
         3         4         5         6     9        0.000000        0.633424         3    ;  uncertainty k = 0.430864
         3         4         5         6     9      180.000000       -1.000696         4    ;  uncertainty k = 0.199219
         3         4         5        28     9        0.000000       -1.041765         1    ;  uncertainty k = 0.265447
         3         4         5        28     9      180.000000       -0.356594         2    ;  uncertainty k = 0.191548
         3         4         5        28     9        0.000000       -0.007680         3    ;  uncertainty k = 0.093809
         3         4         5        28     9      180.000000       -0.100570         4    ;  uncertainty k = 0.058705
         3         4         5        29     9        0.000000       -1.041765         1    ;  uncertainty k = 0.265447
         3         4         5        29     9      180.000000       -0.356594         2    ;  uncertainty k = 0.191548
         3         4         5        29     9        0.000000       -0.007680         3    ;  uncertainty k = 0.093809
         3         4         5        29     9      180.000000       -0.100570         4    ;  uncertainty k = 0.058705
         3         4        22        35     9        0.000000       -0.378618         1    ;  uncertainty k = 1.202868
         3         4        22        35     9      180.000000       -0.218968         2    ;  uncertainty k = 0.263352
         3         4        22        35     9        0.000000        0.752335         3    ;  uncertainty k = 0.133799
         3         4        22        35     9      180.000000       -0.117476         4    ;  uncertainty k = 0.099713
         3         4        22        39     9        0.000000       -0.378618         1    ;  uncertainty k = 1.202868
         3         4        22        39     9      180.000000       -0.218968         2    ;  uncertainty k = 0.263352
         3         4        22        39     9        0.000000        0.752335         3    ;  uncertainty k = 0.133799
         3         4        22        39     9      180.000000       -0.117476         4    ;  uncertainty k = 0.099713
         3         4        22        43     9        0.000000       -0.378618         1    ;  uncertainty k = 1.202868
         3         4        22        43     9      180.000000       -0.218968         2    ;  uncertainty k = 0.263352
         3         4        22        43     9        0.000000        0.752335         3    ;  uncertainty k = 0.133799
         3         4        22        43     9      180.000000       -0.117476         4    ;  uncertainty k = 0.099713
         3         4        23        36     9        0.000000       -0.914078         1    ;  uncertainty k = 0.356128
         3         4        23        36     9      180.000000       -0.481015         2    ;  uncertainty k = 0.207164
         3         4        23        36     9        0.000000        0.542170         3    ;  uncertainty k = 0.077000
         3         4        23        36     9      180.000000       -0.146042         4    ;  uncertainty k = 0.059767
         3         4        23        37     9        0.000000       -0.914078         1    ;  uncertainty k = 0.356128
         3         4        23        37     9      180.000000       -0.481015         2    ;  uncertainty k = 0.207164
         3         4        23        37     9        0.000000        0.542170         3    ;  uncertainty k = 0.077000
         3         4        23        37     9      180.000000       -0.146042         4    ;  uncertainty k = 0.059767
         3         4        23        38     9        0.000000       -0.914078         1    ;  uncertainty k = 0.356128
         3         4        23        38     9      180.000000       -0.481015         2    ;  uncertainty k = 0.207164
         3         4        23        38     9        0.000000        0.542170         3    ;  uncertainty k = 0.077000
         3         4        23        38     9      180.000000       -0.146042         4    ;  uncertainty k = 0.059767
         4         3         2        24     9        0.000000        2.805144         1    ;  uncertainty k = 1.342924
         4         3         2        24     9      180.000000       -2.640033         2    ;  uncertainty k = 0.200971
         4         3         2        24     9        0.000000        0.068377         3    ;  uncertainty k = 0.137352
         4         3         2        24     9      180.000000        0.232543         4    ;  uncertainty k = 0.063819
         4         3         2        25     9        0.000000        2.805144         1    ;  uncertainty k = 1.342924
         4         3         2        25     9      180.000000       -2.640033         2    ;  uncertainty k = 0.200971
         4         3         2        25     9        0.000000        0.068377         3    ;  uncertainty k = 0.137352
         4         3         2        25     9      180.000000        0.232543         4    ;  uncertainty k = 0.063819
         4         5         6        30     9        0.000000        2.805144         1    ;  uncertainty k = 1.342924
         4         5         6        30     9      180.000000       -2.640033         2    ;  uncertainty k = 0.200971
         4         5         6        30     9        0.000000        0.068377         3    ;  uncertainty k = 0.137352
         4         5         6        30     9      180.000000        0.232543         4    ;  uncertainty k = 0.063819
         4         5         6        31     9        0.000000        2.805144         1    ;  uncertainty k = 1.342924
         4         5         6        31     9      180.000000       -2.640033         2    ;  uncertainty k = 0.200971
         4         5         6        31     9        0.000000        0.068377         3    ;  uncertainty k = 0.137352
         4         5         6        31     9      180.000000        0.232543         4    ;  uncertainty k = 0.063819
         5         4         3        26     9        0.000000       -1.041765         1    ;  uncertainty k = 0.265447
         5         4         3        26     9      180.000000       -0.356594         2    ;  uncertainty k = 0.191548
         5         4         3        26     9        0.000000       -0.007680         3    ;  uncertainty k = 0.093809
         5         4         3        26     9      180.000000       -0.100570         4    ;  uncertainty k = 0.058705
         5         4         3        27     9        0.000000       -1.041765         1    ;  uncertainty k = 0.265447
         5         4         3        27     9      180.000000       -0.356594         2    ;  uncertainty k = 0.191548
         5         4         3        27     9        0.000000       -0.007680         3    ;  uncertainty k = 0.093809
         5         4         3        27     9      180.000000       -0.100570         4    ;  uncertainty k = 0.058705
         5         4        22        35     9        0.000000       -0.378618         1    ;  uncertainty k = 1.202868
         5         4        22        35     9      180.000000       -0.218968         2    ;  uncertainty k = 0.263352
         5         4        22        35     9        0.000000        0.752335         3    ;  uncertainty k = 0.133799
         5         4        22        35     9      180.000000       -0.117476         4    ;  uncertainty k = 0.099713
         5         4        22        39     9        0.000000       -0.378618         1    ;  uncertainty k = 1.202868
         5         4        22        39     9      180.000000       -0.218968         2    ;  uncertainty k = 0.263352
         5         4        22        39     9        0.000000        0.752335         3    ;  uncertainty k = 0.133799
         5         4        22        39     9      180.000000       -0.117476         4    ;  uncertainty k = 0.099713
         5         4        22        43     9        0.000000       -0.378618         1    ;  uncertainty k = 1.202868
         5         4        22        43     9      180.000000       -0.218968         2    ;  uncertainty k = 0.263352
         5         4        22        43     9        0.000000        0.752335         3    ;  uncertainty k = 0.133799
         5         4        22        43     9      180.000000       -0.117476         4    ;  uncertainty k = 0.099713
         5         4        23        36     9        0.000000       -0.914078         1    ;  uncertainty k = 0.356128
         5         4        23        36     9      180.000000       -0.481015         2    ;  uncertainty k = 0.207164
         5         4        23        36     9        0.000000        0.542170         3    ;  uncertainty k = 0.077000
         5         4        23        36     9      180.000000       -0.146042         4    ;  uncertainty k = 0.059767
         5         4        23        37     9        0.000000       -0.914078         1    ;  uncertainty k = 0.356128
         5         4        23        37     9      180.000000       -0.481015         2    ;  uncertainty k = 0.207164
         5         4        23        37     9        0.000000        0.542170         3    ;  uncertainty k = 0.077000
         5         4        23        37     9      180.000000       -0.146042         4    ;  uncertainty k = 0.059767
         5         4        23        38     9        0.000000       -0.914078         1    ;  uncertainty k = 0.356128
         5         4        23        38     9      180.000000       -0.481015         2    ;  uncertainty k = 0.207164
         5         4        23        38     9        0.000000        0.542170         3    ;  uncertainty k = 0.077000
         5         4        23        38     9      180.000000       -0.146042         4    ;  uncertainty k = 0.059767
         5         6         1        16     9        0.000000       -3.658726         1    ;  uncertainty k = 0.848563
         5         6         1        16     9      180.000000        0.873176         2    ;  uncertainty k = 0.535365
         5         6         1        16     9        0.000000        0.040815         3    ;  uncertainty k = 0.264460
         5         6         1        16     9      180.000000        0.238036         4    ;  uncertainty k = 0.151405
         6         1         2        24     9        0.000000       -6.047318         1    ;  uncertainty k = 1.982148
         6         1         2        24     9      180.000000        0.993137         2    ;  uncertainty k = 0.489808
         6         1         2        24     9        0.000000        0.822683         3    ;  uncertainty k = 0.044513
         6         1         2        24     9      180.000000       -0.076732         4    ;  uncertainty k = 0.063310
         6         1         2        25     9        0.000000       -6.047318         1    ;  uncertainty k = 1.982148
         6         1         2        25     9      180.000000        0.993137         2    ;  uncertainty k = 0.489808
         6         1         2        25     9        0.000000        0.822683         3    ;  uncertainty k = 0.044513
         6         1         2        25     9      180.000000       -0.076732         4    ;  uncertainty k = 0.063310
         6         1        16        15     9        0.000000        4.882808         1    ;  uncertainty k = 1.131647
         6         1        16        15     9      180.000000       11.319773         2    ;  uncertainty k = 0.167099
         6         1        16        15     9        0.000000        0.481285         3    ;  uncertainty k = 0.234023
         6         1        16        15     9      180.000000       -0.188826         4    ;  uncertainty k = 0.100452
         6         1        16        17     9        0.000000        6.565185         1    ;  uncertainty k = 0.899569
         6         1        16        17     9      180.000000       11.421565         2    ;  uncertainty k = 0.120462
         6         1        16        17     9        0.000000        0.503067         3    ;  uncertainty k = 0.148506
         6         1        16        17     9      180.000000       -0.224790         4    ;  uncertainty k = 0.103442
         6         5         4        22     9        0.000000       -4.922189         1    ;  uncertainty k = 1.419897
         6         5         4        22     9      180.000000       -1.288662         2    ;  uncertainty k = 1.614288
         6         5         4        22     9        0.000000        1.032740         3    ;  uncertainty k = 0.323245
         6         5         4        22     9      180.000000        0.204775         4    ;  uncertainty k = 0.137621
         6         5         4        23     9        0.000000       -4.846863         1    ;  uncertainty k = 0.953611
         6         5         4        23     9      180.000000        1.255316         2    ;  uncertainty k = 0.483533
         6         5         4        23     9        0.000000        0.497225         3    ;  uncertainty k = 0.328814
         6         5         4        23     9      180.000000       -0.186222         4    ;  uncertainty k = 0.107604
         7         8         9        10     9        0.000000       -0.280569         1    ;  uncertainty k = 0.284044
         7         8         9        10     9      180.000000        5.850053         2    ;  uncertainty k = 0.879436
         7         8         9        10     9        0.000000        0.565188         3    ;  uncertainty k = 0.156899
         7         8         9        10     9      180.000000        1.337050         4    ;  uncertainty k = 0.379094
         7         8         9        19     9        0.000000        0.100581         1    ;  uncertainty k = 0.174765
         7         8         9        19     9      180.000000        6.825309         2    ;  uncertainty k = 0.560726
         7         8         9        19     9        0.000000        1.450533         3    ;  uncertainty k = 0.273302
         7         8         9        19     9      180.000000        1.763537         4    ;  uncertainty k = 0.144408
         7        12        11        10     9        0.000000        0.010412         1    ;  uncertainty k = 0.163455
         7        12        11        10     9      180.000000       14.013986         2    ;  uncertainty k = 0.303637
         7        12        11        10     9        0.000000       -0.950179         3    ;  uncertainty k = 0.533633
         7        12        11        10     9      180.000000        0.721825         4    ;  uncertainty k = 0.233739
         7        12        11        33     9        0.000000        0.073262         1    ;  uncertainty k = 0.152053
         7        12        11        33     9      180.000000        7.235131         2    ;  uncertainty k = 0.306289
         7        12        11        33     9        0.000000        1.368173         3    ;  uncertainty k = 0.187514
         7        12        11        33     9      180.000000        1.804347         4    ;  uncertainty k = 0.097338
         7        13        14        15     9        0.000000        0.315909         1    ;  uncertainty k = 0.448325
         7        13        14        15     9      180.000000       12.719448         2    ;  uncertainty k = 0.433578
         7        13        14        15     9        0.000000        0.978741         3    ;  uncertainty k = 0.324248
         7        13        14        15     9      180.000000        1.417456         4    ;  uncertainty k = 0.268773
         7        13        14        41     9        0.000000       -0.577190         1    ;  uncertainty k = 0.710967
         7        13        14        41     9      180.000000        6.650512         2    ;  uncertainty k = 0.494976
         7        13        14        41     9        0.000000        0.929785         3    ;  uncertainty k = 0.166415
         7        13        14        41     9      180.000000        1.166653         4    ;  uncertainty k = 0.145120
         7        13        18        17     9        0.000000        0.668608         1    ;  uncertainty k = 0.525003
         7        13        18        17     9      180.000000        6.658736         2    ;  uncertainty k = 1.082533
         7        13        18        17     9        0.000000        0.707985         3    ;  uncertainty k = 0.134292
         7        13        18        17     9      180.000000        1.355618         4    ;  uncertainty k = 0.387676
         7        13        18        21     9        0.000000        0.295524         1    ;  uncertainty k = 1.171999
         7        13        18        21     9      180.000000        7.024442         2    ;  uncertainty k = 0.842105
         7        13        18        21     9        0.000000        0.613671         3    ;  uncertainty k = 0.331043
         7        13        18        21     9      180.000000        0.895696         4    ;  uncertainty k = 0.239282
         8         7        12        11     9        0.000000       -0.073176         1    ;  uncertainty k = 0.197895
         8         7        12        11     9      180.000000       10.663239         2    ;  uncertainty k = 0.403406
         8         7        12        11     9        0.000000       -0.041978         3    ;  uncertainty k = 0.352798
         8         7        12        11     9      180.000000        1.200769         4    ;  uncertainty k = 0.389049
         8         7        12        34     9        0.000000        0.220628         1    ;  uncertainty k = 0.353754
         8         7        12        34     9      180.000000        6.850098         2    ;  uncertainty k = 0.538023
         8         7        12        34     9        0.000000        1.432346         3    ;  uncertainty k = 0.275738
         8         7        12        34     9      180.000000        1.690820         4    ;  uncertainty k = 0.177763
         8         7        13        14     9        0.000000        1.468118         1    ;  uncertainty k = 1.151726
         8         7        13        14     9      180.000000        3.566773         2    ;  uncertainty k = 0.530926
         8         7        13        14     9        0.000000        0.495938         3    ;  uncertainty k = 0.158850
         8         7        13        14     9      180.000000        0.295165         4    ;  uncertainty k = 0.088394
         8         7        13        18     9        0.000000        3.756972         1    ;  uncertainty k = 1.409195
         8         7        13        18     9      180.000000        3.183553         2    ;  uncertainty k = 0.553995
         8         7        13        18     9        0.000000        1.323651         3    ;  uncertainty k = 0.557743
         8         7        13        18     9      180.000000        0.406532         4    ;  uncertainty k = 0.082164
         8         9        10        11     9        0.000000       -0.007919         1    ;  uncertainty k = 0.101402
         8         9        10        11     9      180.000000        9.712615         2    ;  uncertainty k = 0.314012
         8         9        10        11     9        0.000000        0.069000         3    ;  uncertainty k = 0.581226
         8         9        10        11     9      180.000000        1.231449         4    ;  uncertainty k = 0.309867
         8         9        10        32     9        0.000000        0.157987         1    ;  uncertainty k = 0.145761
         8         9        10        32     9      180.000000        6.152356         2    ;  uncertainty k = 0.598785
         8         9        10        32     9        0.000000        1.431827         3    ;  uncertainty k = 0.392371
         8         9        10        32     9      180.000000        1.578410         4    ;  uncertainty k = 0.163313
         9         8         7        12     9        0.000000       -0.062754         1    ;  uncertainty k = 0.462640
         9         8         7        12     9      180.000000        6.739815         2    ;  uncertainty k = 0.748070
         9         8         7        12     9        0.000000        0.478089         3    ;  uncertainty k = 0.442219
         9         8         7        12     9      180.000000        1.252093         4    ;  uncertainty k = 0.302421
         9         8         7        13     9        0.000000       -0.022926         1    ;  uncertainty k = 0.505694
         9         8         7        13     9      180.000000        6.635923         2    ;  uncertainty k = 0.467376
         9         8         7        13     9        0.000000        1.371761         3    ;  uncertainty k = 0.322618
         9         8         7        13     9      180.000000        1.584553         4    ;  uncertainty k = 0.230148
         9        10        11        12     9        0.000000        0.036870         1    ;  uncertainty k = 0.143830
         9        10        11        12     9      180.000000       14.533530         2    ;  uncertainty k = 0.198005
         9        10        11        12     9        0.000000       -1.107434         3    ;  uncertainty k = 0.627555
         9        10        11        12     9      180.000000        0.736085         4    ;  uncertainty k = 0.247741
         9        10        11        33     9        0.000000        0.056766         1    ;  uncertainty k = 0.136806
         9        10        11        33     9      180.000000        7.557542         2    ;  uncertainty k = 0.336708
         9        10        11        33     9        0.000000        1.504417         3    ;  uncertainty k = 0.260588
         9        10        11        33     9      180.000000        1.858726         4    ;  uncertainty k = 0.152812
        10         9         8        20     9        0.000000        0.175573         1    ;  uncertainty k = 0.276364
        10         9         8        20     9      180.000000        7.141747         2    ;  uncertainty k = 0.291729
        10         9         8        20     9        0.000000        1.466319         3    ;  uncertainty k = 0.198526
        10         9         8        20     9      180.000000        1.670546         4    ;  uncertainty k = 0.147824
        10        11        12        34     9        0.000000        0.059443         1    ;  uncertainty k = 0.033865
        10        11        12        34     9      180.000000        7.893909         2    ;  uncertainty k = 0.258541
        10        11        12        34     9        0.000000        1.416665         3    ;  uncertainty k = 0.297324
        10        11        12        34     9      180.000000        1.832546         4    ;  uncertainty k = 0.143070
        11        10         9        19     9        0.000000        0.112138         1    ;  uncertainty k = 0.255913
        11        10         9        19     9      180.000000        9.595874         2    ;  uncertainty k = 0.644413
        11        10         9        19     9        0.000000        1.484418         3    ;  uncertainty k = 0.456305
        11        10         9        19     9      180.000000        1.723615         4    ;  uncertainty k = 0.176687
        11        12         7        13     9        0.000000        0.040948         1    ;  uncertainty k = 0.260842
        11        12         7        13     9      180.000000        9.330551         2    ;  uncertainty k = 0.668764
        11        12         7        13     9        0.000000        1.182360         3    ;  uncertainty k = 0.390899
        11        12         7        13     9      180.000000        1.815241         4    ;  uncertainty k = 0.290947
        12         7         8        20     9        0.000000       -0.029773         1    ;  uncertainty k = 0.432232
        12         7         8        20     9      180.000000        7.817202         2    ;  uncertainty k = 0.470372
        12         7         8        20     9        0.000000        1.389665         3    ;  uncertainty k = 0.375474
        12         7         8        20     9      180.000000        1.556393         4    ;  uncertainty k = 0.203657
        12         7        13        14     9        0.000000       -1.386575         1    ;  uncertainty k = 0.402661
        12         7        13        14     9      180.000000        4.841232         2    ;  uncertainty k = 0.328898
        12         7        13        14     9        0.000000        0.641222         3    ;  uncertainty k = 0.404795
        12         7        13        14     9      180.000000        0.306785         4    ;  uncertainty k = 0.116357
        12         7        13        18     9        0.000000        0.573461         1    ;  uncertainty k = 1.208132
        12         7        13        18     9      180.000000        4.736720         2    ;  uncertainty k = 0.759791
        12         7        13        18     9        0.000000        0.577579         3    ;  uncertainty k = 0.359790
        12         7        13        18     9      180.000000        0.575871         4    ;  uncertainty k = 0.114507
        12        11        10        32     9        0.000000        0.150757         1    ;  uncertainty k = 0.084195
        12        11        10        32     9      180.000000        7.633825         2    ;  uncertainty k = 0.300647
        12        11        10        32     9        0.000000        1.487748         3    ;  uncertainty k = 0.262044
        12        11        10        32     9      180.000000        1.795402         4    ;  uncertainty k = 0.174621
        13         7         8        20     9        0.000000       -0.244119         1    ;  uncertainty k = 0.784849
        13         7         8        20     9      180.000000        7.877014         2    ;  uncertainty k = 0.296015
        13         7         8        20     9        0.000000        1.142733         3    ;  uncertainty k = 0.321214
        13         7         8        20     9      180.000000        1.433384         4    ;  uncertainty k = 0.226892
        13         7        12        34     9        0.000000       -0.140187         1    ;  uncertainty k = 0.171301
        13         7        12        34     9      180.000000        7.391450         2    ;  uncertainty k = 0.371156
        13         7        12        34     9        0.000000        0.885470         3    ;  uncertainty k = 0.330741
        13         7        12        34     9      180.000000        1.244079         4    ;  uncertainty k = 0.287884
        13        14        15        16     9        0.000000       -0.715201         1    ;  uncertainty k = 0.541139
        13        14        15        16     9      180.000000       16.381671         2    ;  uncertainty k = 0.667289
        13        14        15        16     9        0.000000       -0.396293         3    ;  uncertainty k = 0.702092
        13        14        15        16     9      180.000000        1.433484         4    ;  uncertainty k = 0.582094
        13        18        17        16     9        0.000000        0.621440         1    ;  uncertainty k = 1.532199
        13        18        17        16     9      180.000000       11.169730         2    ;  uncertainty k = 0.684414
        13        18        17        16     9        0.000000        0.589545         3    ;  uncertainty k = 0.777490
        13        18        17        16     9      180.000000        1.125451         4    ;  uncertainty k = 0.441653
        13        18        21        40     9        0.000000       14.472282         1    ;  uncertainty k = 0.305889
        13        18        21        40     9      180.000000        7.549963         2    ;  uncertainty k = 0.430901
        13        18        21        40     9        0.000000        0.805637         3    ;  uncertainty k = 0.186732
        13        18        21        40     9      180.000000       -0.139579         4    ;  uncertainty k = 0.064882
        13        18        21        42     9        0.000000       14.472282         1    ;  uncertainty k = 0.305889
        13        18        21        42     9      180.000000        7.549963         2    ;  uncertainty k = 0.430901
        13        18        21        42     9        0.000000        0.805637         3    ;  uncertainty k = 0.186732
        13        18        21        42     9      180.000000       -0.139579         4    ;  uncertainty k = 0.064882
        14        13        18        17     9        0.000000       -0.225485         1    ;  uncertainty k = 0.761861
        14        13        18        17     9      180.000000        6.440228         2    ;  uncertainty k = 1.055427
        14        13        18        17     9        0.000000       -0.760896         3    ;  uncertainty k = 0.348735
        14        13        18        17     9      180.000000        0.895782         4    ;  uncertainty k = 0.406785
        14        13        18        21     9        0.000000       -0.906508         1    ;  uncertainty k = 0.747777
        14        13        18        21     9      180.000000        5.668632         2    ;  uncertainty k = 0.438999
        14        13        18        21     9        0.000000        0.491269         3    ;  uncertainty k = 0.380307
        14        13        18        21     9      180.000000        0.760113         4    ;  uncertainty k = 0.208335
        14        15        16        17     9        0.000000        0.001312         1    ;  uncertainty k = 1.334869
        14        15        16        17     9      180.000000        8.804750         2    ;  uncertainty k = 0.576227
        14        15        16        17     9        0.000000        0.726444         3    ;  uncertainty k = 0.520700
        14        15        16        17     9      180.000000        0.693231         4    ;  uncertainty k = 0.161402
        15        14        13        18     9        0.000000        0.158699         1    ;  uncertainty k = 0.668692
        15        14        13        18     9      180.000000       15.597120         2    ;  uncertainty k = 0.542510
        15        14        13        18     9        0.000000       -0.888981         3    ;  uncertainty k = 0.554465
        15        14        13        18     9      180.000000        0.853044         4    ;  uncertainty k = 0.183317
        15        16        17        18     9        0.000000       -0.443868         1    ;  uncertainty k = 0.933777
        15        16        17        18     9      180.000000        8.439826         2    ;  uncertainty k = 0.475905
        15        16        17        18     9        0.000000        1.077033         3    ;  uncertainty k = 0.357989
        15        16        17        18     9      180.000000        0.617525         4    ;  uncertainty k = 0.233967
        16         1         2        24     9        0.000000       -0.423284         1    ;  uncertainty k = 0.572899
        16         1         2        24     9      180.000000        0.236076         2    ;  uncertainty k = 0.260960
        16         1         2        24     9        0.000000       -0.029170         3    ;  uncertainty k = 0.096187
        16         1         2        24     9      180.000000        0.276275         4    ;  uncertainty k = 0.037777
        16         1         2        25     9        0.000000       -0.423284         1    ;  uncertainty k = 0.572899
        16         1         2        25     9      180.000000        0.236076         2    ;  uncertainty k = 0.260960
        16         1         2        25     9        0.000000       -0.029170         3    ;  uncertainty k = 0.096187
        16         1         2        25     9      180.000000        0.276275         4    ;  uncertainty k = 0.037777
        16         1         6        30     9        0.000000       -0.423284         1    ;  uncertainty k = 0.572899
        16         1         6        30     9      180.000000        0.236076         2    ;  uncertainty k = 0.260960
        16         1         6        30     9        0.000000       -0.029170         3    ;  uncertainty k = 0.096187
        16         1         6        30     9      180.000000        0.276275         4    ;  uncertainty k = 0.037777
        16         1         6        31     9        0.000000       -0.423284         1    ;  uncertainty k = 0.572899
        16         1         6        31     9      180.000000        0.236076         2    ;  uncertainty k = 0.260960
        16         1         6        31     9        0.000000       -0.029170         3    ;  uncertainty k = 0.096187
        16         1         6        31     9      180.000000        0.276275         4    ;  uncertainty k = 0.037777
        16        15        14        41     9        0.000000       -0.595825         1    ;  uncertainty k = 0.846289
        16        15        14        41     9      180.000000       15.847665         2    ;  uncertainty k = 0.601484
        16        15        14        41     9        0.000000        1.531909         3    ;  uncertainty k = 0.703194
        16        15        14        41     9      180.000000        1.181239         4    ;  uncertainty k = 0.617173
        16        17        18        21     9        0.000000        0.394473         1    ;  uncertainty k = 1.266258
        16        17        18        21     9      180.000000       15.313969         2    ;  uncertainty k = 0.318246
        16        17        18        21     9        0.000000        2.561161         3    ;  uncertainty k = 0.516633
        16        17        18        21     9      180.000000        1.861309         4    ;  uncertainty k = 0.375488
        17        18        21        40     9        0.000000       20.733106         1    ;  uncertainty k = 0.257632
        17        18        21        40     9      180.000000       12.720319         2    ;  uncertainty k = 0.157223
        17        18        21        40     9        0.000000        0.630492         3    ;  uncertainty k = 0.132648
        17        18        21        40     9      180.000000       -0.490804         4    ;  uncertainty k = 0.222648
        17        18        21        42     9        0.000000       20.733106         1    ;  uncertainty k = 0.257632
        17        18        21        42     9      180.000000       12.720319         2    ;  uncertainty k = 0.157223
        17        18        21        42     9        0.000000        0.630492         3    ;  uncertainty k = 0.132648
        17        18        21        42     9      180.000000       -0.490804         4    ;  uncertainty k = 0.222648
        18        13        14        41     9        0.000000       -0.532993         1    ;  uncertainty k = 0.536963
        18        13        14        41     9      180.000000        6.727941         2    ;  uncertainty k = 0.710433
        18        13        14        41     9        0.000000        0.791683         3    ;  uncertainty k = 0.344149
        18        13        14        41     9      180.000000        1.205376         4    ;  uncertainty k = 0.171017
        19         9         8        20     9        0.000000        0.125521         1    ;  uncertainty k = 0.513571
        19         9         8        20     9      180.000000        7.537906         2    ;  uncertainty k = 0.335303
        19         9         8        20     9        0.000000        1.191624         3    ;  uncertainty k = 0.260834
        19         9         8        20     9      180.000000        1.411209         4    ;  uncertainty k = 0.256626
        19         9        10        32     9        0.000000       -0.186330         1    ;  uncertainty k = 0.303115
        19         9        10        32     9      180.000000        7.595779         2    ;  uncertainty k = 0.393566
        19         9        10        32     9        0.000000        0.545351         3    ;  uncertainty k = 0.282548
        19         9        10        32     9      180.000000        1.006467         4    ;  uncertainty k = 0.166699
        22         4         3        26     9        0.000000       -0.957015         1    ;  uncertainty k = 0.777479
        22         4         3        26     9      180.000000       -1.810504         2    ;  uncertainty k = 0.431986
        22         4         3        26     9        0.000000        0.536111         3    ;  uncertainty k = 0.153239
        22         4         3        26     9      180.000000       -0.242448         4    ;  uncertainty k = 0.143920
        22         4         3        27     9        0.000000       -0.957015         1    ;  uncertainty k = 0.777479
        22         4         3        27     9      180.000000       -1.810504         2    ;  uncertainty k = 0.431986
        22         4         3        27     9        0.000000        0.536111         3    ;  uncertainty k = 0.153239
        22         4         3        27     9      180.000000       -0.242448         4    ;  uncertainty k = 0.143920
        22         4         5        28     9        0.000000       -0.957015         1    ;  uncertainty k = 0.777479
        22         4         5        28     9      180.000000       -1.810504         2    ;  uncertainty k = 0.431986
        22         4         5        28     9        0.000000        0.536111         3    ;  uncertainty k = 0.153239
        22         4         5        28     9      180.000000       -0.242448         4    ;  uncertainty k = 0.143920
        22         4         5        29     9        0.000000       -0.957015         1    ;  uncertainty k = 0.777479
        22         4         5        29     9      180.000000       -1.810504         2    ;  uncertainty k = 0.431986
        22         4         5        29     9        0.000000        0.536111         3    ;  uncertainty k = 0.153239
        22         4         5        29     9      180.000000       -0.242448         4    ;  uncertainty k = 0.143920
        22         4        23        36     9        0.000000       -1.658331         1    ;  uncertainty k = 1.431247
        22         4        23        36     9      180.000000       -2.618283         2    ;  uncertainty k = 0.451254
        22         4        23        36     9        0.000000        0.778238         3    ;  uncertainty k = 0.254191
        22         4        23        36     9      180.000000       -0.194334         4    ;  uncertainty k = 0.172568
        22         4        23        37     9        0.000000       -1.658331         1    ;  uncertainty k = 1.431247
        22         4        23        37     9      180.000000       -2.618283         2    ;  uncertainty k = 0.451254
        22         4        23        37     9        0.000000        0.778238         3    ;  uncertainty k = 0.254191
        22         4        23        37     9      180.000000       -0.194334         4    ;  uncertainty k = 0.172568
        22         4        23        38     9        0.000000       -1.658331         1    ;  uncertainty k = 1.431247
        22         4        23        38     9      180.000000       -2.618283         2    ;  uncertainty k = 0.451254
        22         4        23        38     9        0.000000        0.778238         3    ;  uncertainty k = 0.254191
        22         4        23        38     9      180.000000       -0.194334         4    ;  uncertainty k = 0.172568
        23         4         3        26     9        0.000000       -0.345184         1    ;  uncertainty k = 0.389032
        23         4         3        26     9      180.000000       -0.057709         2    ;  uncertainty k = 0.382826
        23         4         3        26     9        0.000000        0.281401         3    ;  uncertainty k = 0.220111
        23         4         3        26     9      180.000000       -0.051810         4    ;  uncertainty k = 0.076920
        23         4         3        27     9        0.000000       -0.345184         1    ;  uncertainty k = 0.389032
        23         4         3        27     9      180.000000       -0.057709         2    ;  uncertainty k = 0.382826
        23         4         3        27     9        0.000000        0.281401         3    ;  uncertainty k = 0.220111
        23         4         3        27     9      180.000000       -0.051810         4    ;  uncertainty k = 0.076920
        23         4         5        28     9        0.000000       -0.345184         1    ;  uncertainty k = 0.389032
        23         4         5        28     9      180.000000       -0.057709         2    ;  uncertainty k = 0.382826
        23         4         5        28     9        0.000000        0.281401         3    ;  uncertainty k = 0.220111
        23         4         5        28     9      180.000000       -0.051810         4    ;  uncertainty k = 0.076920
        23         4         5        29     9        0.000000       -0.345184         1    ;  uncertainty k = 0.389032
        23         4         5        29     9      180.000000       -0.057709         2    ;  uncertainty k = 0.382826
        23         4         5        29     9        0.000000        0.281401         3    ;  uncertainty k = 0.220111
        23         4         5        29     9      180.000000       -0.051810         4    ;  uncertainty k = 0.076920
        23         4        22        35     9        0.000000        0.214189         1    ;  uncertainty k = 1.165375
        23         4        22        35     9      180.000000       -0.101715         2    ;  uncertainty k = 0.387077
        23         4        22        35     9        0.000000        0.750310         3    ;  uncertainty k = 0.221539
        23         4        22        35     9      180.000000       -0.027140         4    ;  uncertainty k = 0.139765
        23         4        22        39     9        0.000000        0.214189         1    ;  uncertainty k = 1.165375
        23         4        22        39     9      180.000000       -0.101715         2    ;  uncertainty k = 0.387077
        23         4        22        39     9        0.000000        0.750310         3    ;  uncertainty k = 0.221539
        23         4        22        39     9      180.000000       -0.027140         4    ;  uncertainty k = 0.139765
        23         4        22        43     9        0.000000        0.214189         1    ;  uncertainty k = 1.165375
        23         4        22        43     9      180.000000       -0.101715         2    ;  uncertainty k = 0.387077
        23         4        22        43     9        0.000000        0.750310         3    ;  uncertainty k = 0.221539
        23         4        22        43     9      180.000000       -0.027140         4    ;  uncertainty k = 0.139765
        24         2         3        26     9        0.000000        0.137549         1    ;  uncertainty k = 0.221543
        24         2         3        26     9      180.000000        0.343768         2    ;  uncertainty k = 0.368628
        24         2         3        26     9        0.000000        0.156579         3    ;  uncertainty k = 0.091251
        24         2         3        26     9      180.000000       -0.126978         4    ;  uncertainty k = 0.142373
        24         2         3        27     9        0.000000        0.137549         1    ;  uncertainty k = 0.221543
        24         2         3        27     9      180.000000        0.343768         2    ;  uncertainty k = 0.368628
        24         2         3        27     9        0.000000        0.156579         3    ;  uncertainty k = 0.091251
        24         2         3        27     9      180.000000       -0.126978         4    ;  uncertainty k = 0.142373
        25         2         3        26     9        0.000000        0.137549         1    ;  uncertainty k = 0.221543
        25         2         3        26     9      180.000000        0.343768         2    ;  uncertainty k = 0.368628
        25         2         3        26     9        0.000000        0.156579         3    ;  uncertainty k = 0.091251
        25         2         3        26     9      180.000000       -0.126978         4    ;  uncertainty k = 0.142373
        25         2         3        27     9        0.000000        0.137549         1    ;  uncertainty k = 0.221543
        25         2         3        27     9      180.000000        0.343768         2    ;  uncertainty k = 0.368628
        25         2         3        27     9        0.000000        0.156579         3    ;  uncertainty k = 0.091251
        25         2         3        27     9      180.000000       -0.126978         4    ;  uncertainty k = 0.142373
        28         5         6        30     9        0.000000        0.137549         1    ;  uncertainty k = 0.221543
        28         5         6        30     9      180.000000        0.343768         2    ;  uncertainty k = 0.368628
        28         5         6        30     9        0.000000        0.156579         3    ;  uncertainty k = 0.091251
        28         5         6        30     9      180.000000       -0.126978         4    ;  uncertainty k = 0.142373
        28         5         6        31     9        0.000000        0.137549         1    ;  uncertainty k = 0.221543
        28         5         6        31     9      180.000000        0.343768         2    ;  uncertainty k = 0.368628
        28         5         6        31     9        0.000000        0.156579         3    ;  uncertainty k = 0.091251
        28         5         6        31     9      180.000000       -0.126978         4    ;  uncertainty k = 0.142373
        29         5         6        30     9        0.000000        0.137549         1    ;  uncertainty k = 0.221543
        29         5         6        30     9      180.000000        0.343768         2    ;  uncertainty k = 0.368628
        29         5         6        30     9        0.000000        0.156579         3    ;  uncertainty k = 0.091251
        29         5         6        30     9      180.000000       -0.126978         4    ;  uncertainty k = 0.142373
        29         5         6        31     9        0.000000        0.137549         1    ;  uncertainty k = 0.221543
        29         5         6        31     9      180.000000        0.343768         2    ;  uncertainty k = 0.368628
        29         5         6        31     9        0.000000        0.156579         3    ;  uncertainty k = 0.091251
        29         5         6        31     9      180.000000       -0.126978         4    ;  uncertainty k = 0.142373
        32        10        11        33     9        0.000000       -0.041228         1    ;  uncertainty k = 0.137026
        32        10        11        33     9      180.000000        7.842755         2    ;  uncertainty k = 0.468640
        32        10        11        33     9        0.000000       -0.426336         3    ;  uncertainty k = 0.252784
        32        10        11        33     9      180.000000        0.042828         4    ;  uncertainty k = 0.172783
        33        11        12        34     9        0.000000       -0.001430         1    ;  uncertainty k = 0.180179
        33        11        12        34     9      180.000000        7.854342         2    ;  uncertainty k = 0.409467
        33        11        12        34     9        0.000000       -0.446760         3    ;  uncertainty k = 0.258264
        33        11        12        34     9      180.000000        0.134857         4    ;  uncertainty k = 0.128963

[ dihedrals ] ; impropers
;       ai        aj        ak        al funct           phase               k        pn
         1         2         6        16     4      180.000000        0.461073         2    ;  uncertainty k = 1.030990
         1         6        16         2     4      180.000000        0.461073         2    ;  uncertainty k = 1.030990
         1        16         2         6     4      180.000000        0.461073         2    ;  uncertainty k = 1.030990
         7         8        12        13     4      180.000000       16.957020         2    ;  uncertainty k = 0.050529
         7        12        13         8     4      180.000000       16.957020         2    ;  uncertainty k = 0.050529
         7        13         8        12     4      180.000000       16.957020         2    ;  uncertainty k = 0.050529
         8         7         9        20     4      180.000000       13.740292         2    ;  uncertainty k = 0.083690
         8         9        20         7     4      180.000000       13.740292         2    ;  uncertainty k = 0.083690
         8        20         7         9     4      180.000000       13.740292         2    ;  uncertainty k = 0.083690
         9         8        10        19     4      180.000000       13.551993         2    ;  uncertainty k = 0.084239
         9        10        19         8     4      180.000000       13.551993         2    ;  uncertainty k = 0.084239
         9        19         8        10     4      180.000000       13.551993         2    ;  uncertainty k = 0.084239
        10         9        11        32     4      180.000000        3.702853         2    ;  uncertainty k = 0.124178
        10        11        32         9     4      180.000000        3.702853         2    ;  uncertainty k = 0.124178
        10        32         9        11     4      180.000000        3.702853         2    ;  uncertainty k = 0.124178
        11        10        12        33     4      180.000000        4.247340         2    ;  uncertainty k = 0.106583
        11        12        33        10     4      180.000000        4.247340         2    ;  uncertainty k = 0.106583
        11        33        10        12     4      180.000000        4.247340         2    ;  uncertainty k = 0.106583
        12         7        11        34     4      180.000000        3.534971         2    ;  uncertainty k = 0.118429
        12        11        34         7     4      180.000000        3.534971         2    ;  uncertainty k = 0.118429
        12        34         7        11     4      180.000000        3.534971         2    ;  uncertainty k = 0.118429
        13         7        14        18     4      180.000000        4.667717         2    ;  uncertainty k = 0.384239
        13        14        18         7     4      180.000000        4.667717         2    ;  uncertainty k = 0.384239
        13        18         7        14     4      180.000000        4.667717         2    ;  uncertainty k = 0.384239
        14        13        15        41     4      180.000000       15.815960         2    ;  uncertainty k = 0.083690
        14        15        41        13     4      180.000000       15.815960         2    ;  uncertainty k = 0.083690
        14        41        13        15     4      180.000000       15.815960         2    ;  uncertainty k = 0.083690
        16         1        15        17     4      180.000000       42.357185         2    ;  uncertainty k = 0.082748
        16        15        17         1     4      180.000000       42.357185         2    ;  uncertainty k = 0.082748
        16        17         1        15     4      180.000000       42.357185         2    ;  uncertainty k = 0.082748
        18        13        17        21     4      180.000000       35.332293         2    ;  uncertainty k = 0.063540
        18        17        21        13     4      180.000000       35.332293         2    ;  uncertainty k = 0.063540
        18        21        13        17     4      180.000000       35.332293         2    ;  uncertainty k = 0.063540
        21        18        40        42     4      180.000000        0.730707         2    ;  uncertainty k = 1.124817
        21        40        42        18     4      180.000000        0.730707         2    ;  uncertainty k = 1.124817
        21        42        18        40     4      180.000000        0.730707         2    ;  uncertainty k = 1.124817

[ pairs ]
;       ai        aj funct
         1         4     1
         1        14     1
         1        18     1
         1        26     1
         1        27     1
         1        28     1
         1        29     1
         2         5     1
         2        15     1
         2        17     1
         2        22     1
         2        23     1
         2        30     1
         2        31     1
         3         6     1
         3        16     1
         3        28     1
         3        29     1
         3        35     1
         3        36     1
         3        37     1
         3        38     1
         3        39     1
         3        43     1
         4        24     1
         4        25     1
         4        30     1
         4        31     1
         5        16     1
         5        26     1
         5        27     1
         5        35     1
         5        36     1
         5        37     1
         5        38     1
         5        39     1
         5        43     1
         6        15     1
         6        17     1
         6        22     1
         6        23     1
         6        24     1
         6        25     1
         7        10     1
         7        15     1
         7        17     1
         7        19     1
         7        21     1
         7        33     1
         7        41     1
         8        11     1
         8        14     1
         8        18     1
         8        32     1
         8        34     1
         9        12     1
         9        13     1
         9        33     1
        10        20     1
        10        34     1
        11        13     1
        11        19     1
        12        14     1
        12        18     1
        12        20     1
        12        32     1
        13        16     1
        13        20     1
        13        34     1
        13        40     1
        13        42     1
        14        17     1
        14        21     1
        15        18     1
        16        21     1
        16        24     1
        16        25     1
        16        30     1
        16        31     1
        16        41     1
        17        40     1
        17        42     1
        18        41     1
        19        20     1
        19        32     1
        22        26     1
        22        27     1
        22        28     1
        22        29     1
        22        36     1
        22        37     1
        22        38     1
        23        26     1
        23        27     1
        23        28     1
        23        29     1
        23        35     1
        23        39     1
        23        43     1
        24        26     1
        24        27     1
        25        26     1
        25        27     1
        28        30     1
        28        31     1
        29        30     1
        29        31     1
        32        33     1
        33        34     1
