; ITP file created by ByteFF-joint-25, 2026-02-17 09:34:44.845476

[ atomtypes ]
;name           bonded.type        at.num        mass        charge   ptype           sigma         epsilon
 n0bf                                   7      0.0000       0.00000       A     3.18983e-01     8.98282e-01    ;  uncertainty sigma = 0.000027, epsilon = 0.003887
 c1bf                                   6      0.0000       0.00000       A     3.39774e-01     4.50510e-01    ;  uncertainty sigma = 0.000022, epsilon = 0.001113
 c2bf                                   6      0.0000       0.00000       A     3.39768e-01     4.51100e-01    ;  uncertainty sigma = 0.000021, epsilon = 0.000603
 c3bf                                   6      0.0000       0.00000       A     3.39788e-01     4.49780e-01    ;  uncertainty sigma = 0.000038, epsilon = 0.001520
 c4bf                                   6      0.0000       0.00000       A     3.39768e-01     4.51100e-01    ;  uncertainty sigma = 0.000021, epsilon = 0.000603
 c5bf                                   6      0.0000       0.00000       A     3.39774e-01     4.50510e-01    ;  uncertainty sigma = 0.000022, epsilon = 0.001113
 c6bf                                   6      0.0000       0.00000       A     3.31538e-01     4.13437e-01    ;  uncertainty sigma = 0.000013, epsilon = 0.001008
 c7bf                                   6      0.0000       0.00000       A     3.31513e-01     4.13559e-01    ;  uncertainty sigma = 0.000010, epsilon = 0.000750
 c8bf                                   6      0.0000       0.00000       A     3.31517e-01     4.13418e-01    ;  uncertainty sigma = 0.000007, epsilon = 0.000490
 c9bf                                   6      0.0000       0.00000       A     3.31517e-01     4.13339e-01    ;  uncertainty sigma = 0.000004, epsilon = 0.000628
 c10bf                                  6      0.0000       0.00000       A     3.31515e-01     4.13294e-01    ;  uncertainty sigma = 0.000004, epsilon = 0.000592
 c11bf                                  6      0.0000       0.00000       A     3.31518e-01     4.13425e-01    ;  uncertainty sigma = 0.000005, epsilon = 0.000679
 c12bf                                  6      0.0000       0.00000       A     3.31490e-01     4.12610e-01    ;  uncertainty sigma = 0.000024, epsilon = 0.001350
 n13bf                                  7      0.0000       0.00000       A     3.38409e-01     3.93574e-01    ;  uncertainty sigma = 0.000024, epsilon = 0.001775
 c14bf                                  6      0.0000       0.00000       A     3.31477e-01     4.13201e-01    ;  uncertainty sigma = 0.000041, epsilon = 0.000543
 c15bf                                  6      0.0000       0.00000       A     3.31425e-01     4.13104e-01    ;  uncertainty sigma = 0.000048, epsilon = 0.002051
 n16bf                                  7      0.0000       0.00000       A     3.38413e-01     3.93436e-01    ;  uncertainty sigma = 0.000048, epsilon = 0.000456
 c17bf                                  6      0.0000       0.00000       A     3.31496e-01     4.11902e-01    ;  uncertainty sigma = 0.000020, epsilon = 0.001429
 cl18bf                                17      0.0000       0.00000       A     3.46639e-01     1.10469e+00    ;  uncertainty sigma = 0.000020, epsilon = 0.001458
 cl19bf                                17      0.0000       0.00000       A     3.46596e-01     1.10464e+00    ;  uncertainty sigma = 0.000016, epsilon = 0.003016
 n20bf                                  7      0.0000       0.00000       A     3.36870e-01     4.67721e-01    ;  uncertainty sigma = 0.000043, epsilon = 0.002784
 n21bf                                  7      0.0000       0.00000       A     2.77101e-01     4.77733e+00    ;  uncertainty sigma = 0.000102, epsilon = 0.025603
 c22bf                                  6      0.0000       0.00000       A     3.39744e-01     4.51058e-01    ;  uncertainty sigma = 0.000018, epsilon = 0.000674
 h23bf                                  1      0.0000       0.00000       A     2.42223e-01     8.69235e-02    ;  uncertainty sigma = 0.000017, epsilon = 0.000659
 h24bf                                  1      0.0000       0.00000       A     2.42223e-01     8.69235e-02    ;  uncertainty sigma = 0.000017, epsilon = 0.000659
 h25bf                                  1      0.0000       0.00000       A     2.60047e-01     8.66235e-02    ;  uncertainty sigma = 0.000026, epsilon = 0.001019
 h26bf                                  1      0.0000       0.00000       A     2.60047e-01     8.66235e-02    ;  uncertainty sigma = 0.000026, epsilon = 0.001019
 h27bf                                  1      0.0000       0.00000       A     2.60047e-01     8.66235e-02    ;  uncertainty sigma = 0.000026, epsilon = 0.001019
 h28bf                                  1      0.0000       0.00000       A     2.60047e-01     8.66235e-02    ;  uncertainty sigma = 0.000026, epsilon = 0.001019
 h29bf                                  1      0.0000       0.00000       A     2.42223e-01     8.69235e-02    ;  uncertainty sigma = 0.000017, epsilon = 0.000659
 h30bf                                  1      0.0000       0.00000       A     2.42223e-01     8.69235e-02    ;  uncertainty sigma = 0.000017, epsilon = 0.000659
 h31bf                                  1      0.0000       0.00000       A     2.62556e-01     6.70339e-02    ;  uncertainty sigma = 0.000007, epsilon = 0.000600
 h32bf                                  1      0.0000       0.00000       A     2.62563e-01     6.70978e-02    ;  uncertainty sigma = 0.000011, epsilon = 0.000541
 br33bf                                35      0.0000       0.00000       A     3.61444e-01     1.65221e+00    ;  uncertainty sigma = 0.000065, epsilon = 0.005423
 h34bf                                  1      0.0000       0.00000       A     1.10722e-01     4.12462e-02    ;  uncertainty sigma = 0.000082, epsilon = 0.000527
 h35bf                                  1      0.0000       0.00000       A     1.10722e-01     4.12462e-02    ;  uncertainty sigma = 0.000082, epsilon = 0.000527
 h36bf                                  1      0.0000       0.00000       A     1.10744e-01     4.05584e-02    ;  uncertainty sigma = 0.000197, epsilon = 0.001139
 h37bf                                  1      0.0000       0.00000       A     2.60029e-01     8.68919e-02    ;  uncertainty sigma = 0.000018, epsilon = 0.000792
 h38bf                                  1      0.0000       0.00000       A     2.60029e-01     8.68919e-02    ;  uncertainty sigma = 0.000018, epsilon = 0.000792
 h39bf                                  1      0.0000       0.00000       A     2.60029e-01     8.68919e-02    ;  uncertainty sigma = 0.000018, epsilon = 0.000792
 h40bf                                  1      0.0000       0.00000       A     1.10744e-01     4.05584e-02    ;  uncertainty sigma = 0.000197, epsilon = 0.001139
 h41bf                                  1      0.0000       0.00000       A     2.62568e-01     6.69665e-02    ;  uncertainty sigma = 0.000007, epsilon = 0.000468
 h42bf                                  1      0.0000       0.00000       A     1.10744e-01     4.05584e-02    ;  uncertainty sigma = 0.000197, epsilon = 0.001139

[ moleculetype ]
;name             nrexcl
 MOL                   3

[ atoms ]
;       nr            type      resi   res      atom      cgnr      charge          mass ; qtot
         1            n0bf         1   UNL        n0         1    -0.76047       14.0070 ; qtot   -0.760
         2            c1bf         1   UNL        c1         2     0.21601       12.0110 ; qtot   -0.544
         3            c2bf         1   UNL        c2         3    -0.11826       12.0110 ; qtot   -0.663
         4            c3bf         1   UNL        c3         4     0.18791       12.0110 ; qtot   -0.475
         5            c4bf         1   UNL        c4         5    -0.11826       12.0110 ; qtot   -0.593
         6            c5bf         1   UNL        c5         6     0.21601       12.0110 ; qtot   -0.377
         7            c6bf         1   UNL        c6         7    -0.10979       12.0110 ; qtot   -0.487
         8            c7bf         1   UNL        c7         8     0.05334       12.0110 ; qtot   -0.434
         9            c8bf         1   UNL        c8         9     0.02451       12.0110 ; qtot   -0.409
        10            c9bf         1   UNL        c9        10    -0.10171       12.0110 ; qtot   -0.511
        11           c10bf         1   UNL       c10        11    -0.12241       12.0110 ; qtot   -0.633
        12           c11bf         1   UNL       c11        12    -0.09831       12.0110 ; qtot   -0.731
        13           c12bf         1   UNL       c12        13     0.25622       12.0110 ; qtot   -0.475
        14           n13bf         1   UNL       n13        14    -0.56973       14.0070 ; qtot   -1.045
        15           c14bf         1   UNL       c14        15     0.30266       12.0110 ; qtot   -0.742
        16           c15bf         1   UNL       c15        16     0.62619       12.0110 ; qtot   -0.116
        17           n16bf         1   UNL       n16        17    -0.80871       14.0070 ; qtot   -0.925
        18           c17bf         1   UNL       c17        18     0.59635       12.0110 ; qtot   -0.328
        19          cl18bf         1   UNL      cl18        19    -0.08348       35.4530 ; qtot   -0.412
        20          cl19bf         1   UNL      cl19        20    -0.07905       35.4530 ; qtot   -0.491
        21           n20bf         1   UNL       n20        21    -0.91316       14.0070 ; qtot   -1.404
        22           n21bf         1   UNL       n21        22    -0.86673       14.0070 ; qtot   -2.271
        23           c22bf         1   UNL       c22        23    -0.13034       12.0110 ; qtot   -2.401
        24           h23bf         1   UNL       h23        24     0.07711        1.0080 ; qtot   -2.324
        25           h24bf         1   UNL       h24        25     0.07711        1.0080 ; qtot   -2.247
        26           h25bf         1   UNL       h25        26     0.08278        1.0080 ; qtot   -2.164
        27           h26bf         1   UNL       h26        27     0.08278        1.0080 ; qtot   -2.081
        28           h27bf         1   UNL       h27        28     0.08278        1.0080 ; qtot   -1.999
        29           h28bf         1   UNL       h28        29     0.08278        1.0080 ; qtot   -1.916
        30           h29bf         1   UNL       h29        30     0.07711        1.0080 ; qtot   -1.839
        31           h30bf         1   UNL       h30        31     0.07711        1.0080 ; qtot   -1.762
        32           h31bf         1   UNL       h31        32     0.15499        1.0080 ; qtot   -1.607
        33           h32bf         1   UNL       h32        33     0.15054        1.0080 ; qtot   -1.456
        34          br33bf         1   UNL      br33        34    -0.14880       79.9040 ; qtot   -1.605
        35           h34bf         1   UNL       h34        35     0.41702        1.0080 ; qtot   -1.188
        36           h35bf         1   UNL       h35        36     0.41702        1.0080 ; qtot   -0.771
        37           h36bf         1   UNL       h36        37     0.46464        1.0080 ; qtot   -0.306
        38           h37bf         1   UNL       h37        38     0.07734        1.0080 ; qtot   -0.229
        39           h38bf         1   UNL       h38        39     0.07734        1.0080 ; qtot   -0.152
        40           h39bf         1   UNL       h39        40     0.07734        1.0080 ; qtot   -0.074
        41           h40bf         1   UNL       h40        41     0.46464        1.0080 ; qtot    0.390
        42           h41bf         1   UNL       h41        42     0.14497        1.0080 ; qtot    0.535
        43           h42bf         1   UNL       h42        43     0.46461        1.0080 ; qtot    1.000

[ bonds ]
;       ai        aj funct               r               k
         1         2     1        0.146011   249966.624219    ;  uncertainty r = 0.000057, k = 14.279512
         1         6     1        0.146011   249966.624219    ;  uncertainty r = 0.000057, k = 14.279512
         1        16     1        0.139433   311013.850293    ;  uncertainty r = 0.000674, k = 31.810899
         2         3     1        0.153950   208129.790820    ;  uncertainty r = 0.000242, k = 10.648103
         2        24     1        0.109487   307224.883838    ;  uncertainty r = 0.000051, k = 1.865285
         2        25     1        0.109487   307224.883838    ;  uncertainty r = 0.000051, k = 1.865285
         3         4     1        0.153676   203189.241187    ;  uncertainty r = 0.000166, k = 7.265986
         3        26     1        0.109591   310533.497266    ;  uncertainty r = 0.000042, k = 1.839138
         3        27     1        0.109591   310533.497266    ;  uncertainty r = 0.000042, k = 1.839138
         4         5     1        0.153676   203189.241187    ;  uncertainty r = 0.000166, k = 7.265986
         4        22     1        0.155122   197292.186353    ;  uncertainty r = 0.000211, k = 49.108522
         4        23     1        0.152893   210290.460107    ;  uncertainty r = 0.000125, k = 13.841219
         5         6     1        0.153950   208129.790820    ;  uncertainty r = 0.000242, k = 10.648103
         5        28     1        0.109591   310533.497266    ;  uncertainty r = 0.000042, k = 1.839138
         5        29     1        0.109591   310533.497266    ;  uncertainty r = 0.000042, k = 1.839138
         6        30     1        0.109487   307224.883838    ;  uncertainty r = 0.000051, k = 1.865285
         6        31     1        0.109487   307224.883838    ;  uncertainty r = 0.000051, k = 1.865285
         7         8     1        0.140178   324044.415723    ;  uncertainty r = 0.000126, k = 8.305376
         7        12     1        0.139989   347767.470996    ;  uncertainty r = 0.000037, k = 4.217104
         7        13     1        0.148486   288195.472656    ;  uncertainty r = 0.000147, k = 10.735202
         8         9     1        0.140081   338158.290869    ;  uncertainty r = 0.000066, k = 1.557491
         8        20     1        0.174228   186667.254932    ;  uncertainty r = 0.000057, k = 4.731528
         9        10     1        0.139432   364703.069043    ;  uncertainty r = 0.000027, k = 3.877522
         9        19     1        0.174626   190975.416357    ;  uncertainty r = 0.000065, k = 1.953772
        10        11     1        0.139275   380193.470996    ;  uncertainty r = 0.000019, k = 0.375568
        10        32     1        0.108658   335617.322949    ;  uncertainty r = 0.000011, k = 0.544911
        11        12     1        0.139222   371106.856738    ;  uncertainty r = 0.000025, k = 1.271468
        11        42     1        0.108744   332681.040576    ;  uncertainty r = 0.000006, k = 1.317305
        12        33     1        0.108655   332465.507373    ;  uncertainty r = 0.000021, k = 1.100526
        13        14     1        0.133025   387147.940918    ;  uncertainty r = 0.000223, k = 14.723221
        13        18     1        0.139355   422312.693750    ;  uncertainty r = 0.000449, k = 15.694148
        14        15     1        0.130846   386994.667188    ;  uncertainty r = 0.000274, k = 24.066932
        15        16     1        0.140809   412275.103076    ;  uncertainty r = 0.000278, k = 36.743259
        15        34     1        0.192758   147443.787158    ;  uncertainty r = 0.000114, k = 12.028661
        16        17     1        0.134532   368959.747656    ;  uncertainty r = 0.000106, k = 12.784808
        17        18     1        0.135712   505088.220410    ;  uncertainty r = 0.000127, k = 12.720078
        18        21     1        0.140802   490616.902344    ;  uncertainty r = 0.000338, k = 39.881945
        21        35     1        0.101788   426937.489795    ;  uncertainty r = 0.000055, k = 2.235148
        21        36     1        0.101788   426937.489795    ;  uncertainty r = 0.000055, k = 2.235148
        22        37     1        0.102893   408930.686621    ;  uncertainty r = 0.000060, k = 6.495046
        22        41     1        0.102893   408930.686621    ;  uncertainty r = 0.000060, k = 6.495046
        22        43     1        0.102893   408930.686621    ;  uncertainty r = 0.000060, k = 6.495046
        23        38     1        0.109485   313302.332813    ;  uncertainty r = 0.000023, k = 3.037366
        23        39     1        0.109485   313302.332813    ;  uncertainty r = 0.000023, k = 3.037366
        23        40     1        0.109485   313302.383887    ;  uncertainty r = 0.000023, k = 3.037347

[ angles ]
;       ai        aj        ak funct           theta             cth
         1         2         3     1      110.182472      680.632277    ;  uncertainty theta = 0.002727, k = 0.107261
         1         2        24     1      107.609756      448.269065    ;  uncertainty theta = 0.001529, k = 0.074626
         1         2        25     1      107.609756      448.269065    ;  uncertainty theta = 0.001529, k = 0.074626
         1         6         5     1      110.182472      680.632277    ;  uncertainty theta = 0.002727, k = 0.107261
         1         6        30     1      107.609756      448.269065    ;  uncertainty theta = 0.001529, k = 0.074626
         1         6        31     1      107.609756      448.269065    ;  uncertainty theta = 0.001529, k = 0.074626
         1        16        15     1      119.639450      369.093460    ;  uncertainty theta = 0.005946, k = 0.222466
         1        16        17     1      123.750656      650.155780    ;  uncertainty theta = 0.008074, k = 0.212304
         2         1         6     1      107.641014      404.092930    ;  uncertainty theta = 0.010031, k = 0.223046
         2         1        16     1      111.250900      402.010890    ;  uncertainty theta = 0.003212, k = 0.129382
         2         3         4     1      110.150719      546.683243    ;  uncertainty theta = 0.003224, k = 0.079293
         2         3        26     1      108.228355      399.863219    ;  uncertainty theta = 0.001019, k = 0.106311
         2         3        27     1      108.228355      399.863219    ;  uncertainty theta = 0.001019, k = 0.106311
         3         2        24     1      108.724380      413.353037    ;  uncertainty theta = 0.003400, k = 0.104288
         3         2        25     1      108.724380      413.353037    ;  uncertainty theta = 0.003400, k = 0.104288
         3         4         5     1      110.679581      579.870504    ;  uncertainty theta = 0.006768, k = 0.197925
         3         4        22     1      107.283340      684.092874    ;  uncertainty theta = 0.005196, k = 0.323363
         3         4        23     1      111.976845      573.046350    ;  uncertainty theta = 0.003349, k = 0.044873
         4         3        26     1      107.183029      390.978284    ;  uncertainty theta = 0.002183, k = 0.173231
         4         3        27     1      107.183029      390.978284    ;  uncertainty theta = 0.002183, k = 0.173231
         4         5         6     1      110.150719      546.683243    ;  uncertainty theta = 0.003224, k = 0.079293
         4         5        28     1      107.183029      390.978284    ;  uncertainty theta = 0.002183, k = 0.173231
         4         5        29     1      107.183029      390.978284    ;  uncertainty theta = 0.002183, k = 0.173231
         4        22        37     1      110.464333      409.034616    ;  uncertainty theta = 0.003988, k = 0.162351
         4        22        41     1      110.464333      409.034616    ;  uncertainty theta = 0.003988, k = 0.162351
         4        22        43     1      110.464333      409.034616    ;  uncertainty theta = 0.003988, k = 0.162351
         4        23        38     1      107.456223      389.152764    ;  uncertainty theta = 0.000505, k = 0.034812
         4        23        39     1      107.456223      389.152764    ;  uncertainty theta = 0.000505, k = 0.034812
         4        23        40     1      107.456223      389.152796    ;  uncertainty theta = 0.000505, k = 0.034812
         5         4        22     1      107.283340      684.092874    ;  uncertainty theta = 0.005196, k = 0.323363
         5         4        23     1      111.976845      573.046350    ;  uncertainty theta = 0.003349, k = 0.044873
         5         6        30     1      108.724380      413.353037    ;  uncertainty theta = 0.003400, k = 0.104288
         5         6        31     1      108.724380      413.353037    ;  uncertainty theta = 0.003400, k = 0.104288
         6         1        16     1      111.250900      402.010890    ;  uncertainty theta = 0.003212, k = 0.129382
         6         5        28     1      108.228355      399.863219    ;  uncertainty theta = 0.001019, k = 0.106311
         6         5        29     1      108.228355      399.863219    ;  uncertainty theta = 0.001019, k = 0.106311
         7         8         9     1      123.935036      373.497143    ;  uncertainty theta = 0.005004, k = 0.158805
         7         8        20     1      117.566452      413.834188    ;  uncertainty theta = 0.003912, k = 0.086864
         7        12        11     1      121.195236      521.675965    ;  uncertainty theta = 0.002239, k = 0.036699
         7        12        33     1      118.359146      272.710823    ;  uncertainty theta = 0.002941, k = 0.079171
         7        13        14     1      118.758896      444.563215    ;  uncertainty theta = 0.005533, k = 0.192518
         7        13        18     1      120.923805      328.806946    ;  uncertainty theta = 0.006741, k = 0.354592
         8         7        12     1      121.874283      401.786642    ;  uncertainty theta = 0.004315, k = 0.232887
         8         7        13     1      120.249611      372.301591    ;  uncertainty theta = 0.001420, k = 0.160471
         8         9        10     1      121.600662      355.472030    ;  uncertainty theta = 0.004430, k = 0.117176
         8         9        19     1      120.568947      449.474768    ;  uncertainty theta = 0.001428, k = 0.087847
         9         8        20     1      120.137085      453.066019    ;  uncertainty theta = 0.003161, k = 0.095973
         9        10        11     1      118.521408      504.243759    ;  uncertainty theta = 0.003727, k = 0.077042
         9        10        32     1      119.895508      282.330875    ;  uncertainty theta = 0.002549, k = 0.077648
        10         9        19     1      120.234840      454.908777    ;  uncertainty theta = 0.002092, k = 0.126480
        10        11        12     1      119.323929      506.342974    ;  uncertainty theta = 0.002723, k = 0.050820
        10        11        42     1      120.122826      285.662511    ;  uncertainty theta = 0.000443, k = 0.032129
        11        10        32     1      121.361893      281.867473    ;  uncertainty theta = 0.001546, k = 0.022762
        11        12        33     1      120.750648      291.201797    ;  uncertainty theta = 0.001707, k = 0.042747
        12         7        13     1      121.066727      403.188885    ;  uncertainty theta = 0.001305, k = 0.109997
        12        11        42     1      120.387840      283.633077    ;  uncertainty theta = 0.001257, k = 0.017514
        13        14        15     1      123.178017      446.844765    ;  uncertainty theta = 0.011038, k = 0.121181
        13        18        17     1      119.899475      462.351727    ;  uncertainty theta = 0.006327, k = 0.162377
        13        18        21     1      122.315102      460.066156    ;  uncertainty theta = 0.006862, k = 0.503565
        14        13        18     1      118.601402      476.393499    ;  uncertainty theta = 0.008713, k = 0.194493
        14        15        16     1      123.874893      462.656641    ;  uncertainty theta = 0.011111, k = 0.348925
        14        15        34     1      118.041550      509.807849    ;  uncertainty theta = 0.002221, k = 0.319047
        15        16        17     1      118.821671      427.516748    ;  uncertainty theta = 0.011647, k = 0.319474
        16        15        34     1      118.403275      219.760329    ;  uncertainty theta = 0.006883, k = 1.369801
        16        17        18     1      121.236832      461.424571    ;  uncertainty theta = 0.011439, k = 0.382062
        17        18        21     1      126.310242      912.626509    ;  uncertainty theta = 0.005930, k = 0.243148
        18        21        35     1      117.170731      387.521900    ;  uncertainty theta = 0.002808, k = 0.193871
        18        21        36     1      117.170731      387.521932    ;  uncertainty theta = 0.002808, k = 0.193871
        22         4        23     1      107.732376      711.715791    ;  uncertainty theta = 0.003143, k = 0.202828
        24         2        25     1      105.594582      324.977912    ;  uncertainty theta = 0.002980, k = 0.044236
        26         3        27     1      106.069984      314.890850    ;  uncertainty theta = 0.002539, k = 0.094492
        28         5        29     1      106.069984      314.890850    ;  uncertainty theta = 0.002539, k = 0.094492
        30         6        31     1      105.594582      324.977912    ;  uncertainty theta = 0.002980, k = 0.044236
        35        21        36     1      108.264320      277.112176    ;  uncertainty theta = 0.001999, k = 0.081832
        37        22        41     1      108.017105      374.242252    ;  uncertainty theta = 0.003302, k = 0.129446
        37        22        43     1      108.017105      374.242252    ;  uncertainty theta = 0.003302, k = 0.129446
        38        23        39     1      105.936523      319.817118    ;  uncertainty theta = 0.000605, k = 0.051303
        38        23        40     1      105.936523      319.817118    ;  uncertainty theta = 0.000605, k = 0.051303
        39        23        40     1      105.936523      319.817118    ;  uncertainty theta = 0.000605, k = 0.051303
        41        22        43     1      108.017105      374.242252    ;  uncertainty theta = 0.003302, k = 0.129446

[ dihedrals ] ; propers for gromacs 4.5 or higher, use funct 9
;       ai        aj        ak        al funct           phase               k        pn
         1         2         3         4     9        0.000000        3.085342         1    ;  uncertainty k = 2.225824
         1         2         3         4     9      180.000000       -4.186376         2    ;  uncertainty k = 0.840751
         1         2         3         4     9        0.000000        1.976808         3    ;  uncertainty k = 0.315583
         1         2         3         4     9      180.000000       -0.437858         4    ;  uncertainty k = 0.208984
         1         2         3        26     9        0.000000       -2.028614         1    ;  uncertainty k = 0.855313
         1         2         3        26     9      180.000000        0.179891         2    ;  uncertainty k = 0.494197
         1         2         3        26     9        0.000000        1.228108         3    ;  uncertainty k = 0.296393
         1         2         3        26     9      180.000000       -0.223118         4    ;  uncertainty k = 0.067240
         1         2         3        27     9        0.000000       -2.028614         1    ;  uncertainty k = 0.855313
         1         2         3        27     9      180.000000        0.179891         2    ;  uncertainty k = 0.494197
         1         2         3        27     9        0.000000        1.228108         3    ;  uncertainty k = 0.296393
         1         2         3        27     9      180.000000       -0.223118         4    ;  uncertainty k = 0.067240
         1         6         5         4     9        0.000000        3.085342         1    ;  uncertainty k = 2.225824
         1         6         5         4     9      180.000000       -4.186376         2    ;  uncertainty k = 0.840751
         1         6         5         4     9        0.000000        1.976808         3    ;  uncertainty k = 0.315583
         1         6         5         4     9      180.000000       -0.437858         4    ;  uncertainty k = 0.208984
         1         6         5        28     9        0.000000       -2.028614         1    ;  uncertainty k = 0.855313
         1         6         5        28     9      180.000000        0.179891         2    ;  uncertainty k = 0.494197
         1         6         5        28     9        0.000000        1.228108         3    ;  uncertainty k = 0.296393
         1         6         5        28     9      180.000000       -0.223118         4    ;  uncertainty k = 0.067240
         1         6         5        29     9        0.000000       -2.028614         1    ;  uncertainty k = 0.855313
         1         6         5        29     9      180.000000        0.179891         2    ;  uncertainty k = 0.494197
         1         6         5        29     9        0.000000        1.228108         3    ;  uncertainty k = 0.296393
         1         6         5        29     9      180.000000       -0.223118         4    ;  uncertainty k = 0.067240
         1        16        15        14     9        0.000000       -0.648958         1    ;  uncertainty k = 1.366269
         1        16        15        14     9      180.000000        2.750109         2    ;  uncertainty k = 1.188463
         1        16        15        14     9        0.000000        0.253589         3    ;  uncertainty k = 0.366178
         1        16        15        14     9      180.000000        0.804766         4    ;  uncertainty k = 0.493100
         1        16        15        34     9        0.000000        0.488930         1    ;  uncertainty k = 2.639926
         1        16        15        34     9      180.000000        1.692783         2    ;  uncertainty k = 1.442637
         1        16        15        34     9        0.000000        0.260748         3    ;  uncertainty k = 0.639328
         1        16        15        34     9      180.000000        0.547556         4    ;  uncertainty k = 0.230736
         1        16        17        18     9        0.000000        0.409976         1    ;  uncertainty k = 1.437638
         1        16        17        18     9      180.000000       14.635815         2    ;  uncertainty k = 0.679243
         1        16        17        18     9        0.000000        2.576308         3    ;  uncertainty k = 0.419053
         1        16        17        18     9      180.000000        1.622490         4    ;  uncertainty k = 0.564918
         2         1         6         5     9        0.000000       -6.763401         1    ;  uncertainty k = 2.595098
         2         1         6         5     9      180.000000        0.786867         2    ;  uncertainty k = 0.978259
         2         1         6         5     9        0.000000        1.019096         3    ;  uncertainty k = 0.472222
         2         1         6         5     9      180.000000       -0.425993         4    ;  uncertainty k = 0.213994
         2         1         6        30     9        0.000000       -5.978319         1    ;  uncertainty k = 1.611123
         2         1         6        30     9      180.000000        0.520925         2    ;  uncertainty k = 0.298108
         2         1         6        30     9        0.000000        0.746233         3    ;  uncertainty k = 0.101147
         2         1         6        30     9      180.000000       -0.086216         4    ;  uncertainty k = 0.075788
         2         1         6        31     9        0.000000       -5.978319         1    ;  uncertainty k = 1.611123
         2         1         6        31     9      180.000000        0.520925         2    ;  uncertainty k = 0.298108
         2         1         6        31     9        0.000000        0.746233         3    ;  uncertainty k = 0.101147
         2         1         6        31     9      180.000000       -0.086216         4    ;  uncertainty k = 0.075788
         2         1        16        15     9        0.000000        5.111830         1    ;  uncertainty k = 0.954658
         2         1        16        15     9      180.000000        5.880029         2    ;  uncertainty k = 0.510403
         2         1        16        15     9        0.000000        0.853177         3    ;  uncertainty k = 0.330907
         2         1        16        15     9      180.000000       -0.071205         4    ;  uncertainty k = 0.106895
         2         1        16        17     9        0.000000        5.809722         1    ;  uncertainty k = 1.288197
         2         1        16        17     9      180.000000       10.503298         2    ;  uncertainty k = 0.231744
         2         1        16        17     9        0.000000        0.089025         3    ;  uncertainty k = 0.299845
         2         1        16        17     9      180.000000        0.104196         4    ;  uncertainty k = 0.103654
         2         3         4         5     9        0.000000       -2.054577         1    ;  uncertainty k = 1.969138
         2         3         4         5     9      180.000000        0.441229         2    ;  uncertainty k = 0.600557
         2         3         4         5     9        0.000000        0.642297         3    ;  uncertainty k = 0.429117
         2         3         4         5     9      180.000000       -1.006881         4    ;  uncertainty k = 0.204964
         2         3         4        22     9        0.000000       -5.067540         1    ;  uncertainty k = 1.231276
         2         3         4        22     9      180.000000       -1.229503         2    ;  uncertainty k = 1.456652
         2         3         4        22     9        0.000000        1.027343         3    ;  uncertainty k = 0.388637
         2         3         4        22     9      180.000000        0.222993         4    ;  uncertainty k = 0.146567
         2         3         4        23     9        0.000000       -4.880859         1    ;  uncertainty k = 0.885512
         2         3         4        23     9      180.000000        1.286437         2    ;  uncertainty k = 0.397620
         2         3         4        23     9        0.000000        0.508525         3    ;  uncertainty k = 0.328046
         2         3         4        23     9      180.000000       -0.190353         4    ;  uncertainty k = 0.113004
         3         2         1         6     9        0.000000       -6.763401         1    ;  uncertainty k = 2.595098
         3         2         1         6     9      180.000000        0.786867         2    ;  uncertainty k = 0.978259
         3         2         1         6     9        0.000000        1.019096         3    ;  uncertainty k = 0.472222
         3         2         1         6     9      180.000000       -0.425993         4    ;  uncertainty k = 0.213994
         3         2         1        16     9        0.000000       -2.550539         1    ;  uncertainty k = 0.469784
         3         2         1        16     9      180.000000        0.189428         2    ;  uncertainty k = 0.236033
         3         2         1        16     9        0.000000       -0.055334         3    ;  uncertainty k = 0.147765
         3         2         1        16     9      180.000000        0.179188         4    ;  uncertainty k = 0.135698
         3         4         5         6     9        0.000000       -2.054577         1    ;  uncertainty k = 1.969138
         3         4         5         6     9      180.000000        0.441229         2    ;  uncertainty k = 0.600557
         3         4         5         6     9        0.000000        0.642297         3    ;  uncertainty k = 0.429117
         3         4         5         6     9      180.000000       -1.006881         4    ;  uncertainty k = 0.204964
         3         4         5        28     9        0.000000       -1.032719         1    ;  uncertainty k = 0.277220
         3         4         5        28     9      180.000000       -0.372391         2    ;  uncertainty k = 0.195211
         3         4         5        28     9        0.000000       -0.016948         3    ;  uncertainty k = 0.088967
         3         4         5        28     9      180.000000       -0.099463         4    ;  uncertainty k = 0.056988
         3         4         5        29     9        0.000000       -1.032719         1    ;  uncertainty k = 0.277220
         3         4         5        29     9      180.000000       -0.372391         2    ;  uncertainty k = 0.195211
         3         4         5        29     9        0.000000       -0.016948         3    ;  uncertainty k = 0.088967
         3         4         5        29     9      180.000000       -0.099463         4    ;  uncertainty k = 0.056988
         3         4        22        37     9        0.000000       -0.347105         1    ;  uncertainty k = 1.193618
         3         4        22        37     9      180.000000       -0.225842         2    ;  uncertainty k = 0.264572
         3         4        22        37     9        0.000000        0.751154         3    ;  uncertainty k = 0.137669
         3         4        22        37     9      180.000000       -0.116187         4    ;  uncertainty k = 0.103302
         3         4        22        41     9        0.000000       -0.347105         1    ;  uncertainty k = 1.193618
         3         4        22        41     9      180.000000       -0.225842         2    ;  uncertainty k = 0.264572
         3         4        22        41     9        0.000000        0.751154         3    ;  uncertainty k = 0.137669
         3         4        22        41     9      180.000000       -0.116187         4    ;  uncertainty k = 0.103302
         3         4        22        43     9        0.000000       -0.347105         1    ;  uncertainty k = 1.193618
         3         4        22        43     9      180.000000       -0.225842         2    ;  uncertainty k = 0.264572
         3         4        22        43     9        0.000000        0.751154         3    ;  uncertainty k = 0.137669
         3         4        22        43     9      180.000000       -0.116187         4    ;  uncertainty k = 0.103302
         3         4        23        38     9        0.000000       -0.895310         1    ;  uncertainty k = 0.339458
         3         4        23        38     9      180.000000       -0.491980         2    ;  uncertainty k = 0.208211
         3         4        23        38     9        0.000000        0.541904         3    ;  uncertainty k = 0.078616
         3         4        23        38     9      180.000000       -0.143850         4    ;  uncertainty k = 0.057472
         3         4        23        39     9        0.000000       -0.895310         1    ;  uncertainty k = 0.339458
         3         4        23        39     9      180.000000       -0.491980         2    ;  uncertainty k = 0.208211
         3         4        23        39     9        0.000000        0.541904         3    ;  uncertainty k = 0.078616
         3         4        23        39     9      180.000000       -0.143850         4    ;  uncertainty k = 0.057472
         3         4        23        40     9        0.000000       -0.895310         1    ;  uncertainty k = 0.339458
         3         4        23        40     9      180.000000       -0.491980         2    ;  uncertainty k = 0.208211
         3         4        23        40     9        0.000000        0.541904         3    ;  uncertainty k = 0.078616
         3         4        23        40     9      180.000000       -0.143850         4    ;  uncertainty k = 0.057472
         4         3         2        24     9        0.000000        3.022617         1    ;  uncertainty k = 1.127372
         4         3         2        24     9      180.000000       -2.711438         2    ;  uncertainty k = 0.235279
         4         3         2        24     9        0.000000        0.032266         3    ;  uncertainty k = 0.137011
         4         3         2        24     9      180.000000        0.270131         4    ;  uncertainty k = 0.075599
         4         3         2        25     9        0.000000        3.022617         1    ;  uncertainty k = 1.127372
         4         3         2        25     9      180.000000       -2.711438         2    ;  uncertainty k = 0.235279
         4         3         2        25     9        0.000000        0.032266         3    ;  uncertainty k = 0.137011
         4         3         2        25     9      180.000000        0.270131         4    ;  uncertainty k = 0.075599
         4         5         6        30     9        0.000000        3.022617         1    ;  uncertainty k = 1.127372
         4         5         6        30     9      180.000000       -2.711438         2    ;  uncertainty k = 0.235279
         4         5         6        30     9        0.000000        0.032266         3    ;  uncertainty k = 0.137011
         4         5         6        30     9      180.000000        0.270131         4    ;  uncertainty k = 0.075599
         4         5         6        31     9        0.000000        3.022617         1    ;  uncertainty k = 1.127372
         4         5         6        31     9      180.000000       -2.711438         2    ;  uncertainty k = 0.235279
         4         5         6        31     9        0.000000        0.032266         3    ;  uncertainty k = 0.137011
         4         5         6        31     9      180.000000        0.270131         4    ;  uncertainty k = 0.075599
         5         4         3        26     9        0.000000       -1.032719         1    ;  uncertainty k = 0.277220
         5         4         3        26     9      180.000000       -0.372391         2    ;  uncertainty k = 0.195211
         5         4         3        26     9        0.000000       -0.016948         3    ;  uncertainty k = 0.088967
         5         4         3        26     9      180.000000       -0.099463         4    ;  uncertainty k = 0.056988
         5         4         3        27     9        0.000000       -1.032719         1    ;  uncertainty k = 0.277220
         5         4         3        27     9      180.000000       -0.372391         2    ;  uncertainty k = 0.195211
         5         4         3        27     9        0.000000       -0.016948         3    ;  uncertainty k = 0.088967
         5         4         3        27     9      180.000000       -0.099463         4    ;  uncertainty k = 0.056988
         5         4        22        37     9        0.000000       -0.347105         1    ;  uncertainty k = 1.193618
         5         4        22        37     9      180.000000       -0.225842         2    ;  uncertainty k = 0.264572
         5         4        22        37     9        0.000000        0.751154         3    ;  uncertainty k = 0.137669
         5         4        22        37     9      180.000000       -0.116187         4    ;  uncertainty k = 0.103302
         5         4        22        41     9        0.000000       -0.347105         1    ;  uncertainty k = 1.193618
         5         4        22        41     9      180.000000       -0.225842         2    ;  uncertainty k = 0.264572
         5         4        22        41     9        0.000000        0.751154         3    ;  uncertainty k = 0.137669
         5         4        22        41     9      180.000000       -0.116187         4    ;  uncertainty k = 0.103302
         5         4        22        43     9        0.000000       -0.347105         1    ;  uncertainty k = 1.193618
         5         4        22        43     9      180.000000       -0.225842         2    ;  uncertainty k = 0.264572
         5         4        22        43     9        0.000000        0.751154         3    ;  uncertainty k = 0.137669
         5         4        22        43     9      180.000000       -0.116187         4    ;  uncertainty k = 0.103302
         5         4        23        38     9        0.000000       -0.895310         1    ;  uncertainty k = 0.339458
         5         4        23        38     9      180.000000       -0.491980         2    ;  uncertainty k = 0.208211
         5         4        23        38     9        0.000000        0.541904         3    ;  uncertainty k = 0.078616
         5         4        23        38     9      180.000000       -0.143850         4    ;  uncertainty k = 0.057472
         5         4        23        39     9        0.000000       -0.895310         1    ;  uncertainty k = 0.339458
         5         4        23        39     9      180.000000       -0.491980         2    ;  uncertainty k = 0.208211
         5         4        23        39     9        0.000000        0.541904         3    ;  uncertainty k = 0.078616
         5         4        23        39     9      180.000000       -0.143850         4    ;  uncertainty k = 0.057472
         5         4        23        40     9        0.000000       -0.895310         1    ;  uncertainty k = 0.339458
         5         4        23        40     9      180.000000       -0.491980         2    ;  uncertainty k = 0.208211
         5         4        23        40     9        0.000000        0.541904         3    ;  uncertainty k = 0.078616
         5         4        23        40     9      180.000000       -0.143850         4    ;  uncertainty k = 0.057472
         5         6         1        16     9        0.000000       -2.550539         1    ;  uncertainty k = 0.469784
         5         6         1        16     9      180.000000        0.189428         2    ;  uncertainty k = 0.236033
         5         6         1        16     9        0.000000       -0.055334         3    ;  uncertainty k = 0.147765
         5         6         1        16     9      180.000000        0.179188         4    ;  uncertainty k = 0.135698
         6         1         2        24     9        0.000000       -5.978319         1    ;  uncertainty k = 1.611123
         6         1         2        24     9      180.000000        0.520925         2    ;  uncertainty k = 0.298108
         6         1         2        24     9        0.000000        0.746233         3    ;  uncertainty k = 0.101147
         6         1         2        24     9      180.000000       -0.086216         4    ;  uncertainty k = 0.075788
         6         1         2        25     9        0.000000       -5.978319         1    ;  uncertainty k = 1.611123
         6         1         2        25     9      180.000000        0.520925         2    ;  uncertainty k = 0.298108
         6         1         2        25     9        0.000000        0.746233         3    ;  uncertainty k = 0.101147
         6         1         2        25     9      180.000000       -0.086216         4    ;  uncertainty k = 0.075788
         6         1        16        15     9        0.000000        5.111830         1    ;  uncertainty k = 0.954658
         6         1        16        15     9      180.000000        5.880029         2    ;  uncertainty k = 0.510403
         6         1        16        15     9        0.000000        0.853177         3    ;  uncertainty k = 0.330907
         6         1        16        15     9      180.000000       -0.071205         4    ;  uncertainty k = 0.106895
         6         1        16        17     9        0.000000        5.809722         1    ;  uncertainty k = 1.288197
         6         1        16        17     9      180.000000       10.503298         2    ;  uncertainty k = 0.231744
         6         1        16        17     9        0.000000        0.089025         3    ;  uncertainty k = 0.299845
         6         1        16        17     9      180.000000        0.104196         4    ;  uncertainty k = 0.103654
         6         5         4        22     9        0.000000       -5.067540         1    ;  uncertainty k = 1.231276
         6         5         4        22     9      180.000000       -1.229503         2    ;  uncertainty k = 1.456652
         6         5         4        22     9        0.000000        1.027343         3    ;  uncertainty k = 0.388637
         6         5         4        22     9      180.000000        0.222993         4    ;  uncertainty k = 0.146567
         6         5         4        23     9        0.000000       -4.880859         1    ;  uncertainty k = 0.885512
         6         5         4        23     9      180.000000        1.286437         2    ;  uncertainty k = 0.397620
         6         5         4        23     9        0.000000        0.508525         3    ;  uncertainty k = 0.328046
         6         5         4        23     9      180.000000       -0.190353         4    ;  uncertainty k = 0.113004
         7         8         9        10     9        0.000000       -0.158110         1    ;  uncertainty k = 0.356380
         7         8         9        10     9      180.000000        5.413110         2    ;  uncertainty k = 0.881855
         7         8         9        10     9        0.000000        0.569368         3    ;  uncertainty k = 0.188550
         7         8         9        10     9      180.000000        1.375805         4    ;  uncertainty k = 0.299599
         7         8         9        19     9        0.000000        0.274389         1    ;  uncertainty k = 0.183970
         7         8         9        19     9      180.000000        6.855226         2    ;  uncertainty k = 0.643958
         7         8         9        19     9        0.000000        1.492091         3    ;  uncertainty k = 0.248902
         7         8         9        19     9      180.000000        1.769087         4    ;  uncertainty k = 0.160013
         7        12        11        10     9        0.000000        0.001113         1    ;  uncertainty k = 0.153127
         7        12        11        10     9      180.000000       13.607573         2    ;  uncertainty k = 0.400992
         7        12        11        10     9        0.000000       -0.871605         3    ;  uncertainty k = 0.381339
         7        12        11        10     9      180.000000        0.769404         4    ;  uncertainty k = 0.230673
         7        12        11        42     9        0.000000        0.084352         1    ;  uncertainty k = 0.120274
         7        12        11        42     9      180.000000        7.227526         2    ;  uncertainty k = 0.313320
         7        12        11        42     9        0.000000        1.406033         3    ;  uncertainty k = 0.118107
         7        12        11        42     9      180.000000        1.852479         4    ;  uncertainty k = 0.122264
         7        13        14        15     9        0.000000       -0.008209         1    ;  uncertainty k = 0.521277
         7        13        14        15     9      180.000000       16.119713         2    ;  uncertainty k = 0.514441
         7        13        14        15     9        0.000000        2.595167         3    ;  uncertainty k = 0.468025
         7        13        14        15     9      180.000000        1.591531         4    ;  uncertainty k = 0.296965
         7        13        18        17     9        0.000000       -0.352780         1    ;  uncertainty k = 0.914563
         7        13        18        17     9      180.000000        4.027381         2    ;  uncertainty k = 0.750379
         7        13        18        17     9        0.000000        0.015237         3    ;  uncertainty k = 0.404484
         7        13        18        17     9      180.000000        0.838667         4    ;  uncertainty k = 0.515159
         7        13        18        21     9        0.000000        0.282467         1    ;  uncertainty k = 1.116211
         7        13        18        21     9      180.000000        4.613956         2    ;  uncertainty k = 0.861996
         7        13        18        21     9        0.000000        0.482313         3    ;  uncertainty k = 0.448202
         7        13        18        21     9      180.000000        0.588954         4    ;  uncertainty k = 0.399748
         8         7        12        11     9        0.000000       -0.143974         1    ;  uncertainty k = 0.138536
         8         7        12        11     9      180.000000       10.474907         2    ;  uncertainty k = 0.388102
         8         7        12        11     9        0.000000       -0.076091         3    ;  uncertainty k = 0.233955
         8         7        12        11     9      180.000000        1.294180         4    ;  uncertainty k = 0.350475
         8         7        12        33     9        0.000000        0.208977         1    ;  uncertainty k = 0.270364
         8         7        12        33     9      180.000000        7.084326         2    ;  uncertainty k = 0.438504
         8         7        12        33     9        0.000000        1.284728         3    ;  uncertainty k = 0.270896
         8         7        12        33     9      180.000000        1.670278         4    ;  uncertainty k = 0.165800
         8         7        13        14     9        0.000000       -1.835627         1    ;  uncertainty k = 1.482271
         8         7        13        14     9      180.000000        4.944096         2    ;  uncertainty k = 0.395980
         8         7        13        14     9        0.000000        1.087589         3    ;  uncertainty k = 0.426481
         8         7        13        14     9      180.000000        0.190817         4    ;  uncertainty k = 0.157923
         8         7        13        18     9        0.000000        2.959871         1    ;  uncertainty k = 1.869519
         8         7        13        18     9      180.000000        2.888926         2    ;  uncertainty k = 0.816231
         8         7        13        18     9        0.000000        0.950231         3    ;  uncertainty k = 0.514150
         8         7        13        18     9      180.000000        0.264547         4    ;  uncertainty k = 0.194721
         8         9        10        11     9        0.000000        0.002852         1    ;  uncertainty k = 0.111935
         8         9        10        11     9      180.000000        9.686774         2    ;  uncertainty k = 0.296867
         8         9        10        11     9        0.000000        0.091223         3    ;  uncertainty k = 0.576898
         8         9        10        11     9      180.000000        1.248193         4    ;  uncertainty k = 0.301793
         8         9        10        32     9        0.000000        0.160469         1    ;  uncertainty k = 0.115845
         8         9        10        32     9      180.000000        6.143170         2    ;  uncertainty k = 0.584636
         8         9        10        32     9        0.000000        1.422833         3    ;  uncertainty k = 0.370866
         8         9        10        32     9      180.000000        1.585209         4    ;  uncertainty k = 0.191219
         9         8         7        12     9        0.000000        0.044104         1    ;  uncertainty k = 0.618252
         9         8         7        12     9      180.000000        6.770337         2    ;  uncertainty k = 0.605008
         9         8         7        12     9        0.000000        0.393773         3    ;  uncertainty k = 0.398478
         9         8         7        12     9      180.000000        1.312522         4    ;  uncertainty k = 0.281006
         9         8         7        13     9        0.000000        0.034534         1    ;  uncertainty k = 0.349018
         9         8         7        13     9      180.000000        5.964855         2    ;  uncertainty k = 0.449140
         9         8         7        13     9        0.000000        1.450135         3    ;  uncertainty k = 0.416135
         9         8         7        13     9      180.000000        1.794422         4    ;  uncertainty k = 0.128655
         9        10        11        12     9        0.000000        0.032379         1    ;  uncertainty k = 0.116696
         9        10        11        12     9      180.000000       14.345522         2    ;  uncertainty k = 0.160340
         9        10        11        12     9        0.000000       -1.087256         3    ;  uncertainty k = 0.625240
         9        10        11        12     9      180.000000        0.770564         4    ;  uncertainty k = 0.260775
         9        10        11        42     9        0.000000        0.039035         1    ;  uncertainty k = 0.138062
         9        10        11        42     9      180.000000        7.573957         2    ;  uncertainty k = 0.326463
         9        10        11        42     9        0.000000        1.498646         3    ;  uncertainty k = 0.240396
         9        10        11        42     9      180.000000        1.852602         4    ;  uncertainty k = 0.140866
        10         9         8        20     9        0.000000        0.141596         1    ;  uncertainty k = 0.227101
        10         9         8        20     9      180.000000        7.003529         2    ;  uncertainty k = 0.264439
        10         9         8        20     9        0.000000        1.459862         3    ;  uncertainty k = 0.224785
        10         9         8        20     9      180.000000        1.666452         4    ;  uncertainty k = 0.137453
        10        11        12        33     9        0.000000        0.069646         1    ;  uncertainty k = 0.067795
        10        11        12        33     9      180.000000        7.812867         2    ;  uncertainty k = 0.200631
        10        11        12        33     9        0.000000        1.367062         3    ;  uncertainty k = 0.299642
        10        11        12        33     9      180.000000        1.835394         4    ;  uncertainty k = 0.152349
        11        10         9        19     9        0.000000        0.138880         1    ;  uncertainty k = 0.273316
        11        10         9        19     9      180.000000        9.611408         2    ;  uncertainty k = 0.646931
        11        10         9        19     9        0.000000        1.485930         3    ;  uncertainty k = 0.454577
        11        10         9        19     9      180.000000        1.742540         4    ;  uncertainty k = 0.176936
        11        12         7        13     9        0.000000        0.156980         1    ;  uncertainty k = 0.240187
        11        12         7        13     9      180.000000        8.703297         2    ;  uncertainty k = 0.680043
        11        12         7        13     9        0.000000        1.232341         3    ;  uncertainty k = 0.382307
        11        12         7        13     9      180.000000        1.928111         4    ;  uncertainty k = 0.236758
        12         7         8        20     9        0.000000       -0.041101         1    ;  uncertainty k = 0.208896
        12         7         8        20     9      180.000000        7.933281         2    ;  uncertainty k = 0.439079
        12         7         8        20     9        0.000000        1.359123         3    ;  uncertainty k = 0.332914
        12         7         8        20     9      180.000000        1.574183         4    ;  uncertainty k = 0.163729
        12         7        13        14     9        0.000000        0.912471         1    ;  uncertainty k = 0.347574
        12         7        13        14     9      180.000000        5.531799         2    ;  uncertainty k = 0.369199
        12         7        13        14     9        0.000000        0.394477         3    ;  uncertainty k = 0.262331
        12         7        13        14     9      180.000000        0.319915         4    ;  uncertainty k = 0.189196
        12         7        13        18     9        0.000000       -0.410267         1    ;  uncertainty k = 0.523875
        12         7        13        18     9      180.000000        3.709900         2    ;  uncertainty k = 0.277470
        12         7        13        18     9        0.000000        0.529609         3    ;  uncertainty k = 0.312020
        12         7        13        18     9      180.000000        0.243443         4    ;  uncertainty k = 0.121977
        12        11        10        32     9        0.000000        0.131595         1    ;  uncertainty k = 0.106145
        12        11        10        32     9      180.000000        7.555672         2    ;  uncertainty k = 0.306483
        12        11        10        32     9        0.000000        1.476388         3    ;  uncertainty k = 0.228295
        12        11        10        32     9      180.000000        1.782294         4    ;  uncertainty k = 0.178684
        13         7         8        20     9        0.000000       -0.319754         1    ;  uncertainty k = 0.798034
        13         7         8        20     9      180.000000        7.683032         2    ;  uncertainty k = 0.313681
        13         7         8        20     9        0.000000        1.168816         3    ;  uncertainty k = 0.278492
        13         7         8        20     9      180.000000        1.469756         4    ;  uncertainty k = 0.222269
        13         7        12        33     9        0.000000       -0.215203         1    ;  uncertainty k = 0.248764
        13         7        12        33     9      180.000000        7.290612         2    ;  uncertainty k = 0.261572
        13         7        12        33     9        0.000000        0.723976         3    ;  uncertainty k = 0.363006
        13         7        12        33     9      180.000000        1.286346         4    ;  uncertainty k = 0.213229
        13        14        15        16     9        0.000000        0.870349         1    ;  uncertainty k = 1.250007
        13        14        15        16     9      180.000000       11.085635         2    ;  uncertainty k = 0.976624
        13        14        15        16     9        0.000000        1.580202         3    ;  uncertainty k = 0.617562
        13        14        15        16     9      180.000000        1.426606         4    ;  uncertainty k = 0.222833
        13        14        15        34     9        0.000000        0.136639         1    ;  uncertainty k = 1.469551
        13        14        15        34     9      180.000000       14.670668         2    ;  uncertainty k = 0.595865
        13        14        15        34     9        0.000000        2.274550         3    ;  uncertainty k = 0.408070
        13        14        15        34     9      180.000000        1.840562         4    ;  uncertainty k = 0.348097
        13        18        17        16     9        0.000000        1.315663         1    ;  uncertainty k = 1.307426
        13        18        17        16     9      180.000000        7.201841         2    ;  uncertainty k = 1.028351
        13        18        17        16     9        0.000000        1.279530         3    ;  uncertainty k = 0.323181
        13        18        17        16     9      180.000000        1.082420         4    ;  uncertainty k = 0.678615
        13        18        21        35     9        0.000000       10.248434         1    ;  uncertainty k = 0.447808
        13        18        21        35     9      180.000000        5.935156         2    ;  uncertainty k = 0.361446
        13        18        21        35     9        0.000000        0.865871         3    ;  uncertainty k = 0.238418
        13        18        21        35     9      180.000000        0.081031         4    ;  uncertainty k = 0.088742
        13        18        21        36     9        0.000000       10.248434         1    ;  uncertainty k = 0.447808
        13        18        21        36     9      180.000000        5.935156         2    ;  uncertainty k = 0.361446
        13        18        21        36     9        0.000000        0.865871         3    ;  uncertainty k = 0.238418
        13        18        21        36     9      180.000000        0.081031         4    ;  uncertainty k = 0.088742
        14        13        18        17     9        0.000000       -0.950591         1    ;  uncertainty k = 1.058589
        14        13        18        17     9      180.000000        4.648016         2    ;  uncertainty k = 1.369087
        14        13        18        17     9        0.000000       -0.605331         3    ;  uncertainty k = 0.651582
        14        13        18        17     9      180.000000        0.831771         4    ;  uncertainty k = 0.583413
        14        13        18        21     9        0.000000        0.317466         1    ;  uncertainty k = 0.573205
        14        13        18        21     9      180.000000        4.614648         2    ;  uncertainty k = 1.043926
        14        13        18        21     9        0.000000        0.356088         3    ;  uncertainty k = 0.331840
        14        13        18        21     9      180.000000        0.723879         4    ;  uncertainty k = 0.260384
        14        15        16        17     9        0.000000       -1.187108         1    ;  uncertainty k = 1.027343
        14        15        16        17     9      180.000000        2.526916         2    ;  uncertainty k = 0.987230
        14        15        16        17     9        0.000000       -0.646269         3    ;  uncertainty k = 0.484756
        14        15        16        17     9      180.000000        0.396830         4    ;  uncertainty k = 0.513830
        15        14        13        18     9        0.000000        0.753775         1    ;  uncertainty k = 1.127403
        15        14        13        18     9      180.000000       14.500447         2    ;  uncertainty k = 0.398344
        15        14        13        18     9        0.000000        1.764282         3    ;  uncertainty k = 0.285146
        15        14        13        18     9      180.000000        1.253203         4    ;  uncertainty k = 0.162939
        15        16        17        18     9        0.000000        1.205133         1    ;  uncertainty k = 1.018891
        15        16        17        18     9      180.000000        8.289173         2    ;  uncertainty k = 0.920905
        15        16        17        18     9        0.000000        1.166074         3    ;  uncertainty k = 0.690453
        15        16        17        18     9      180.000000        1.036061         4    ;  uncertainty k = 0.299018
        16         1         2        24     9        0.000000        0.848130         1    ;  uncertainty k = 0.267107
        16         1         2        24     9      180.000000       -1.199353         2    ;  uncertainty k = 0.203757
        16         1         2        24     9        0.000000       -0.063655         3    ;  uncertainty k = 0.109833
        16         1         2        24     9      180.000000        0.248956         4    ;  uncertainty k = 0.047483
        16         1         2        25     9        0.000000        0.848130         1    ;  uncertainty k = 0.267107
        16         1         2        25     9      180.000000       -1.199353         2    ;  uncertainty k = 0.203757
        16         1         2        25     9        0.000000       -0.063655         3    ;  uncertainty k = 0.109833
        16         1         2        25     9      180.000000        0.248956         4    ;  uncertainty k = 0.047483
        16         1         6        30     9        0.000000        0.848130         1    ;  uncertainty k = 0.267107
        16         1         6        30     9      180.000000       -1.199353         2    ;  uncertainty k = 0.203757
        16         1         6        30     9        0.000000       -0.063655         3    ;  uncertainty k = 0.109833
        16         1         6        30     9      180.000000        0.248956         4    ;  uncertainty k = 0.047483
        16         1         6        31     9        0.000000        0.848130         1    ;  uncertainty k = 0.267107
        16         1         6        31     9      180.000000       -1.199353         2    ;  uncertainty k = 0.203757
        16         1         6        31     9        0.000000       -0.063655         3    ;  uncertainty k = 0.109833
        16         1         6        31     9      180.000000        0.248956         4    ;  uncertainty k = 0.047483
        16        17        18        21     9        0.000000        0.388731         1    ;  uncertainty k = 1.283634
        16        17        18        21     9      180.000000       13.610591         2    ;  uncertainty k = 0.351221
        16        17        18        21     9        0.000000        2.561009         3    ;  uncertainty k = 0.459192
        16        17        18        21     9      180.000000        1.727993         4    ;  uncertainty k = 0.092033
        17        16        15        34     9        0.000000        0.015002         1    ;  uncertainty k = 1.965386
        17        16        15        34     9      180.000000        1.375441         2    ;  uncertainty k = 2.044243
        17        16        15        34     9        0.000000        0.234225         3    ;  uncertainty k = 0.608140
        17        16        15        34     9      180.000000        0.406564         4    ;  uncertainty k = 0.297468
        17        18        21        35     9        0.000000       19.829067         1    ;  uncertainty k = 0.222194
        17        18        21        35     9      180.000000       11.035710         2    ;  uncertainty k = 0.344061
        17        18        21        35     9        0.000000        0.468390         3    ;  uncertainty k = 0.068285
        17        18        21        35     9      180.000000       -0.290618         4    ;  uncertainty k = 0.221282
        17        18        21        36     9        0.000000       19.829067         1    ;  uncertainty k = 0.222194
        17        18        21        36     9      180.000000       11.035710         2    ;  uncertainty k = 0.344061
        17        18        21        36     9        0.000000        0.468390         3    ;  uncertainty k = 0.068285
        17        18        21        36     9      180.000000       -0.290618         4    ;  uncertainty k = 0.221282
        19         9         8        20     9        0.000000        0.127028         1    ;  uncertainty k = 0.458559
        19         9         8        20     9      180.000000        7.584079         2    ;  uncertainty k = 0.298205
        19         9         8        20     9        0.000000        1.208450         3    ;  uncertainty k = 0.256922
        19         9         8        20     9      180.000000        1.439487         4    ;  uncertainty k = 0.242719
        19         9        10        32     9        0.000000       -0.183324         1    ;  uncertainty k = 0.309109
        19         9        10        32     9      180.000000        7.615952         2    ;  uncertainty k = 0.378043
        19         9        10        32     9        0.000000        0.553325         3    ;  uncertainty k = 0.272076
        19         9        10        32     9      180.000000        1.023076         4    ;  uncertainty k = 0.167401
        22         4         3        26     9        0.000000       -0.953768         1    ;  uncertainty k = 0.757469
        22         4         3        26     9      180.000000       -1.816826         2    ;  uncertainty k = 0.442932
        22         4         3        26     9        0.000000        0.532727         3    ;  uncertainty k = 0.157901
        22         4         3        26     9      180.000000       -0.244066         4    ;  uncertainty k = 0.144685
        22         4         3        27     9        0.000000       -0.953768         1    ;  uncertainty k = 0.757469
        22         4         3        27     9      180.000000       -1.816826         2    ;  uncertainty k = 0.442932
        22         4         3        27     9        0.000000        0.532727         3    ;  uncertainty k = 0.157901
        22         4         3        27     9      180.000000       -0.244066         4    ;  uncertainty k = 0.144685
        22         4         5        28     9        0.000000       -0.953768         1    ;  uncertainty k = 0.757469
        22         4         5        28     9      180.000000       -1.816826         2    ;  uncertainty k = 0.442932
        22         4         5        28     9        0.000000        0.532727         3    ;  uncertainty k = 0.157901
        22         4         5        28     9      180.000000       -0.244066         4    ;  uncertainty k = 0.144685
        22         4         5        29     9        0.000000       -0.953768         1    ;  uncertainty k = 0.757469
        22         4         5        29     9      180.000000       -1.816826         2    ;  uncertainty k = 0.442932
        22         4         5        29     9        0.000000        0.532727         3    ;  uncertainty k = 0.157901
        22         4         5        29     9      180.000000       -0.244066         4    ;  uncertainty k = 0.144685
        22         4        23        38     9        0.000000       -1.658331         1    ;  uncertainty k = 1.431247
        22         4        23        38     9      180.000000       -2.618283         2    ;  uncertainty k = 0.451254
        22         4        23        38     9        0.000000        0.778238         3    ;  uncertainty k = 0.254191
        22         4        23        38     9      180.000000       -0.194334         4    ;  uncertainty k = 0.172568
        22         4        23        39     9        0.000000       -1.658331         1    ;  uncertainty k = 1.431247
        22         4        23        39     9      180.000000       -2.618283         2    ;  uncertainty k = 0.451254
        22         4        23        39     9        0.000000        0.778238         3    ;  uncertainty k = 0.254191
        22         4        23        39     9      180.000000       -0.194334         4    ;  uncertainty k = 0.172568
        22         4        23        40     9        0.000000       -1.658331         1    ;  uncertainty k = 1.431247
        22         4        23        40     9      180.000000       -2.618283         2    ;  uncertainty k = 0.451254
        22         4        23        40     9        0.000000        0.778238         3    ;  uncertainty k = 0.254191
        22         4        23        40     9      180.000000       -0.194334         4    ;  uncertainty k = 0.172568
        23         4         3        26     9        0.000000       -0.343027         1    ;  uncertainty k = 0.403494
        23         4         3        26     9      180.000000       -0.061672         2    ;  uncertainty k = 0.389275
        23         4         3        26     9        0.000000        0.274791         3    ;  uncertainty k = 0.213691
        23         4         3        26     9      180.000000       -0.053928         4    ;  uncertainty k = 0.077784
        23         4         3        27     9        0.000000       -0.343027         1    ;  uncertainty k = 0.403494
        23         4         3        27     9      180.000000       -0.061672         2    ;  uncertainty k = 0.389275
        23         4         3        27     9        0.000000        0.274791         3    ;  uncertainty k = 0.213691
        23         4         3        27     9      180.000000       -0.053928         4    ;  uncertainty k = 0.077784
        23         4         5        28     9        0.000000       -0.343027         1    ;  uncertainty k = 0.403494
        23         4         5        28     9      180.000000       -0.061672         2    ;  uncertainty k = 0.389275
        23         4         5        28     9        0.000000        0.274791         3    ;  uncertainty k = 0.213691
        23         4         5        28     9      180.000000       -0.053928         4    ;  uncertainty k = 0.077784
        23         4         5        29     9        0.000000       -0.343027         1    ;  uncertainty k = 0.403494
        23         4         5        29     9      180.000000       -0.061672         2    ;  uncertainty k = 0.389275
        23         4         5        29     9        0.000000        0.274791         3    ;  uncertainty k = 0.213691
        23         4         5        29     9      180.000000       -0.053928         4    ;  uncertainty k = 0.077784
        23         4        22        37     9        0.000000        0.214189         1    ;  uncertainty k = 1.165375
        23         4        22        37     9      180.000000       -0.101715         2    ;  uncertainty k = 0.387077
        23         4        22        37     9        0.000000        0.750310         3    ;  uncertainty k = 0.221539
        23         4        22        37     9      180.000000       -0.027140         4    ;  uncertainty k = 0.139765
        23         4        22        41     9        0.000000        0.214189         1    ;  uncertainty k = 1.165375
        23         4        22        41     9      180.000000       -0.101715         2    ;  uncertainty k = 0.387077
        23         4        22        41     9        0.000000        0.750310         3    ;  uncertainty k = 0.221539
        23         4        22        41     9      180.000000       -0.027140         4    ;  uncertainty k = 0.139765
        23         4        22        43     9        0.000000        0.214189         1    ;  uncertainty k = 1.165375
        23         4        22        43     9      180.000000       -0.101715         2    ;  uncertainty k = 0.387077
        23         4        22        43     9        0.000000        0.750310         3    ;  uncertainty k = 0.221539
        23         4        22        43     9      180.000000       -0.027140         4    ;  uncertainty k = 0.139765
        24         2         3        26     9        0.000000        0.165669         1    ;  uncertainty k = 0.267453
        24         2         3        26     9      180.000000        0.410376         2    ;  uncertainty k = 0.377025
        24         2         3        26     9        0.000000        0.143899         3    ;  uncertainty k = 0.091181
        24         2         3        26     9      180.000000       -0.135526         4    ;  uncertainty k = 0.140945
        24         2         3        27     9        0.000000        0.165669         1    ;  uncertainty k = 0.267453
        24         2         3        27     9      180.000000        0.410376         2    ;  uncertainty k = 0.377025
        24         2         3        27     9        0.000000        0.143899         3    ;  uncertainty k = 0.091181
        24         2         3        27     9      180.000000       -0.135526         4    ;  uncertainty k = 0.140945
        25         2         3        26     9        0.000000        0.165669         1    ;  uncertainty k = 0.267453
        25         2         3        26     9      180.000000        0.410376         2    ;  uncertainty k = 0.377025
        25         2         3        26     9        0.000000        0.143899         3    ;  uncertainty k = 0.091181
        25         2         3        26     9      180.000000       -0.135526         4    ;  uncertainty k = 0.140945
        25         2         3        27     9        0.000000        0.165669         1    ;  uncertainty k = 0.267453
        25         2         3        27     9      180.000000        0.410376         2    ;  uncertainty k = 0.377025
        25         2         3        27     9        0.000000        0.143899         3    ;  uncertainty k = 0.091181
        25         2         3        27     9      180.000000       -0.135526         4    ;  uncertainty k = 0.140945
        28         5         6        30     9        0.000000        0.165669         1    ;  uncertainty k = 0.267453
        28         5         6        30     9      180.000000        0.410376         2    ;  uncertainty k = 0.377025
        28         5         6        30     9        0.000000        0.143899         3    ;  uncertainty k = 0.091181
        28         5         6        30     9      180.000000       -0.135526         4    ;  uncertainty k = 0.140945
        28         5         6        31     9        0.000000        0.165669         1    ;  uncertainty k = 0.267453
        28         5         6        31     9      180.000000        0.410376         2    ;  uncertainty k = 0.377025
        28         5         6        31     9        0.000000        0.143899         3    ;  uncertainty k = 0.091181
        28         5         6        31     9      180.000000       -0.135526         4    ;  uncertainty k = 0.140945
        29         5         6        30     9        0.000000        0.165669         1    ;  uncertainty k = 0.267453
        29         5         6        30     9      180.000000        0.410376         2    ;  uncertainty k = 0.377025
        29         5         6        30     9        0.000000        0.143899         3    ;  uncertainty k = 0.091181
        29         5         6        30     9      180.000000       -0.135526         4    ;  uncertainty k = 0.140945
        29         5         6        31     9        0.000000        0.165669         1    ;  uncertainty k = 0.267453
        29         5         6        31     9      180.000000        0.410376         2    ;  uncertainty k = 0.377025
        29         5         6        31     9        0.000000        0.143899         3    ;  uncertainty k = 0.091181
        29         5         6        31     9      180.000000       -0.135526         4    ;  uncertainty k = 0.140945
        32        10        11        42     9        0.000000       -0.063231         1    ;  uncertainty k = 0.143919
        32        10        11        42     9      180.000000        7.894391         2    ;  uncertainty k = 0.469259
        32        10        11        42     9        0.000000       -0.422798         3    ;  uncertainty k = 0.255830
        32        10        11        42     9      180.000000        0.044530         4    ;  uncertainty k = 0.174749
        33        12        11        42     9        0.000000       -0.025737         1    ;  uncertainty k = 0.216295
        33        12        11        42     9      180.000000        7.946947         2    ;  uncertainty k = 0.428487
        33        12        11        42     9        0.000000       -0.407574         3    ;  uncertainty k = 0.245417
        33        12        11        42     9      180.000000        0.167857         4    ;  uncertainty k = 0.135379

[ dihedrals ] ; impropers
;       ai        aj        ak        al funct           phase               k        pn
         1         2         6        16     4      180.000000        0.220918         2    ;  uncertainty k = 0.493988
         1         6        16         2     4      180.000000        0.220918         2    ;  uncertainty k = 0.493988
         1        16         2         6     4      180.000000        0.220918         2    ;  uncertainty k = 0.493988
         7         8        12        13     4      180.000000       13.988373         2    ;  uncertainty k = 0.038196
         7        12        13         8     4      180.000000       13.988373         2    ;  uncertainty k = 0.038196
         7        13         8        12     4      180.000000       13.988373         2    ;  uncertainty k = 0.038196
         8         7         9        20     4      180.000000       13.856699         2    ;  uncertainty k = 0.056713
         8         9        20         7     4      180.000000       13.856699         2    ;  uncertainty k = 0.056713
         8        20         7         9     4      180.000000       13.856699         2    ;  uncertainty k = 0.056713
         9         8        10        19     4      180.000000       13.291986         2    ;  uncertainty k = 0.070510
         9        10        19         8     4      180.000000       13.291986         2    ;  uncertainty k = 0.070510
         9        19         8        10     4      180.000000       13.291986         2    ;  uncertainty k = 0.070510
        10         9        11        32     4      180.000000        3.899337         2    ;  uncertainty k = 0.119505
        10        11        32         9     4      180.000000        3.899337         2    ;  uncertainty k = 0.119505
        10        32         9        11     4      180.000000        3.899337         2    ;  uncertainty k = 0.119505
        11        10        12        42     4      180.000000        4.055680         2    ;  uncertainty k = 0.065234
        11        12        42        10     4      180.000000        4.055680         2    ;  uncertainty k = 0.065234
        11        42        10        12     4      180.000000        4.055680         2    ;  uncertainty k = 0.065234
        12         7        11        33     4      180.000000        3.979796         2    ;  uncertainty k = 0.112939
        12        11        33         7     4      180.000000        3.979796         2    ;  uncertainty k = 0.112939
        12        33         7        11     4      180.000000        3.979796         2    ;  uncertainty k = 0.112939
        13         7        14        18     4      180.000000       17.388135         2    ;  uncertainty k = 0.144895
        13        14        18         7     4      180.000000       17.388135         2    ;  uncertainty k = 0.144895
        13        18         7        14     4      180.000000       17.388135         2    ;  uncertainty k = 0.144895
        15        14        16        34     4      180.000000       18.144272         2    ;  uncertainty k = 0.216654
        15        16        34        14     4      180.000000       18.144272         2    ;  uncertainty k = 0.216654
        15        34        14        16     4      180.000000       18.144272         2    ;  uncertainty k = 0.216654
        16         1        15        17     4      180.000000       32.036038         2    ;  uncertainty k = 0.105899
        16        15        17         1     4      180.000000       32.036038         2    ;  uncertainty k = 0.105899
        16        17         1        15     4      180.000000       32.036038         2    ;  uncertainty k = 0.105899
        18        13        17        21     4      180.000000       31.233090         2    ;  uncertainty k = 0.059034
        18        17        21        13     4      180.000000       31.233090         2    ;  uncertainty k = 0.059034
        18        21        13        17     4      180.000000       31.233090         2    ;  uncertainty k = 0.059034
        21        18        35        36     4      180.000000        0.357386         2    ;  uncertainty k = 0.585147
        21        35        36        18     4      180.000000        0.357386         2    ;  uncertainty k = 0.585147
        21        36        18        35     4      180.000000        0.357386         2    ;  uncertainty k = 0.585147

[ pairs ]
;       ai        aj funct
         1         4     1
         1        14     1
         1        18     1
         1        26     1
         1        27     1
         1        28     1
         1        29     1
         1        34     1
         2         5     1
         2        15     1
         2        17     1
         2        22     1
         2        23     1
         2        30     1
         2        31     1
         3         6     1
         3        16     1
         3        28     1
         3        29     1
         3        37     1
         3        38     1
         3        39     1
         3        40     1
         3        41     1
         3        43     1
         4        24     1
         4        25     1
         4        30     1
         4        31     1
         5        16     1
         5        26     1
         5        27     1
         5        37     1
         5        38     1
         5        39     1
         5        40     1
         5        41     1
         5        43     1
         6        15     1
         6        17     1
         6        22     1
         6        23     1
         6        24     1
         6        25     1
         7        10     1
         7        15     1
         7        17     1
         7        19     1
         7        21     1
         7        42     1
         8        11     1
         8        14     1
         8        18     1
         8        32     1
         8        33     1
         9        12     1
         9        13     1
         9        42     1
        10        20     1
        10        33     1
        11        13     1
        11        19     1
        12        14     1
        12        18     1
        12        20     1
        12        32     1
        13        16     1
        13        20     1
        13        33     1
        13        34     1
        13        35     1
        13        36     1
        14        17     1
        14        21     1
        15        18     1
        16        21     1
        16        24     1
        16        25     1
        16        30     1
        16        31     1
        17        34     1
        17        35     1
        17        36     1
        19        20     1
        19        32     1
        22        26     1
        22        27     1
        22        28     1
        22        29     1
        22        38     1
        22        39     1
        22        40     1
        23        26     1
        23        27     1
        23        28     1
        23        29     1
        23        37     1
        23        41     1
        23        43     1
        24        26     1
        24        27     1
        25        26     1
        25        27     1
        28        30     1
        28        31     1
        29        30     1
        29        31     1
        32        42     1
        33        42     1
