; ITP file created by ByteFF-joint-25, 2026-02-17 09:35:55.454561

[ atomtypes ]
;name           bonded.type        at.num        mass        charge   ptype           sigma         epsilon
 n0bf                                   7      0.0000       0.00000       A     3.18998e-01     8.99142e-01    ;  uncertainty sigma = 0.000029, epsilon = 0.002716
 c1bf                                   6      0.0000       0.00000       A     3.39780e-01     4.50260e-01    ;  uncertainty sigma = 0.000020, epsilon = 0.001089
 c2bf                                   6      0.0000       0.00000       A     3.39771e-01     4.51072e-01    ;  uncertainty sigma = 0.000022, epsilon = 0.000654
 c3bf                                   6      0.0000       0.00000       A     3.39788e-01     4.49780e-01    ;  uncertainty sigma = 0.000038, epsilon = 0.001520
 c4bf                                   6      0.0000       0.00000       A     3.39771e-01     4.51072e-01    ;  uncertainty sigma = 0.000022, epsilon = 0.000654
 c5bf                                   6      0.0000       0.00000       A     3.39780e-01     4.50260e-01    ;  uncertainty sigma = 0.000020, epsilon = 0.001089
 c6bf                                   6      0.0000       0.00000       A     3.31490e-01     4.13788e-01    ;  uncertainty sigma = 0.000011, epsilon = 0.001061
 c7bf                                   6      0.0000       0.00000       A     3.31500e-01     4.13393e-01    ;  uncertainty sigma = 0.000009, epsilon = 0.000545
 n8bf                                   7      0.0000       0.00000       A     3.38417e-01     3.93941e-01    ;  uncertainty sigma = 0.000023, epsilon = 0.001354
 c9bf                                   6      0.0000       0.00000       A     3.31540e-01     4.14260e-01    ;  uncertainty sigma = 0.000012, epsilon = 0.001134
 n10bf                                  7      0.0000       0.00000       A     3.38467e-01     3.93958e-01    ;  uncertainty sigma = 0.000032, epsilon = 0.001413
 c11bf                                  6      0.0000       0.00000       A     3.31528e-01     4.12009e-01    ;  uncertainty sigma = 0.000010, epsilon = 0.002178
 n12bf                                  7      0.0000       0.00000       A     3.36839e-01     4.68261e-01    ;  uncertainty sigma = 0.000047, epsilon = 0.004494
 n13bf                                  7      0.0000       0.00000       A     2.77101e-01     4.77733e+00    ;  uncertainty sigma = 0.000102, epsilon = 0.025603
 c14bf                                  6      0.0000       0.00000       A     3.39744e-01     4.51058e-01    ;  uncertainty sigma = 0.000018, epsilon = 0.000674
 h15bf                                  1      0.0000       0.00000       A     2.42224e-01     8.69291e-02    ;  uncertainty sigma = 0.000024, epsilon = 0.000777
 h16bf                                  1      0.0000       0.00000       A     2.42224e-01     8.69291e-02    ;  uncertainty sigma = 0.000024, epsilon = 0.000777
 h17bf                                  1      0.0000       0.00000       A     2.60047e-01     8.66236e-02    ;  uncertainty sigma = 0.000026, epsilon = 0.001019
 h18bf                                  1      0.0000       0.00000       A     2.60047e-01     8.66236e-02    ;  uncertainty sigma = 0.000026, epsilon = 0.001019
 h19bf                                  1      0.0000       0.00000       A     2.60047e-01     8.66236e-02    ;  uncertainty sigma = 0.000026, epsilon = 0.001019
 h20bf                                  1      0.0000       0.00000       A     2.60047e-01     8.66236e-02    ;  uncertainty sigma = 0.000026, epsilon = 0.001019
 h21bf                                  1      0.0000       0.00000       A     2.42224e-01     8.69291e-02    ;  uncertainty sigma = 0.000024, epsilon = 0.000777
 h22bf                                  1      0.0000       0.00000       A     2.42224e-01     8.69291e-02    ;  uncertainty sigma = 0.000024, epsilon = 0.000777
 h23bf                                  1      0.0000       0.00000       A     1.10744e-01     4.05583e-02    ;  uncertainty sigma = 0.000197, epsilon = 0.001139
 h24bf                                  1      0.0000       0.00000       A     2.60029e-01     8.68919e-02    ;  uncertainty sigma = 0.000018, epsilon = 0.000792
 h25bf                                  1      0.0000       0.00000       A     2.60029e-01     8.68919e-02    ;  uncertainty sigma = 0.000018, epsilon = 0.000792
 h26bf                                  1      0.0000       0.00000       A     2.60029e-01     8.68919e-02    ;  uncertainty sigma = 0.000018, epsilon = 0.000792
 h27bf                                  1      0.0000       0.00000       A     1.10744e-01     4.05583e-02    ;  uncertainty sigma = 0.000197, epsilon = 0.001139
 h28bf                                  1      0.0000       0.00000       A     1.10717e-01     4.12865e-02    ;  uncertainty sigma = 0.000086, epsilon = 0.000392
 h29bf                                  1      0.0000       0.00000       A     2.53679e-01     6.68665e-02    ;  uncertainty sigma = 0.000037, epsilon = 0.000963
 h30bf                                  1      0.0000       0.00000       A     1.10717e-01     4.12865e-02    ;  uncertainty sigma = 0.000086, epsilon = 0.000392
 c31bf                                  6      0.0000       0.00000       A     3.31491e-01     4.13884e-01    ;  uncertainty sigma = 0.000009, epsilon = 0.000440
 c32bf                                  6      0.0000       0.00000       A     3.31521e-01     4.13357e-01    ;  uncertainty sigma = 0.000002, epsilon = 0.000860
 c33bf                                  6      0.0000       0.00000       A     3.31503e-01     4.13512e-01    ;  uncertainty sigma = 0.000002, epsilon = 0.000824
 c34bf                                  6      0.0000       0.00000       A     3.31509e-01     4.13046e-01    ;  uncertainty sigma = 0.000010, epsilon = 0.000588
 s35bf                                 16      0.0000       0.00000       A     3.53250e-01     1.18189e+00    ;  uncertainty sigma = 0.000005, epsilon = 0.001764
 h36bf                                  1      0.0000       0.00000       A     2.62515e-01     6.70582e-02    ;  uncertainty sigma = 0.000028, epsilon = 0.000580
 h37bf                                  1      0.0000       0.00000       A     2.62525e-01     6.74766e-02    ;  uncertainty sigma = 0.000019, epsilon = 0.000624
 c38bf                                  6      0.0000       0.00000       A     3.39773e-01     4.50829e-01    ;  uncertainty sigma = 0.000009, epsilon = 0.000635
 h39bf                                  1      0.0000       0.00000       A     2.60038e-01     8.68344e-02    ;  uncertainty sigma = 0.000008, epsilon = 0.000390
 h40bf                                  1      0.0000       0.00000       A     2.60038e-01     8.68345e-02    ;  uncertainty sigma = 0.000008, epsilon = 0.000390
 h41bf                                  1      0.0000       0.00000       A     2.60038e-01     8.68345e-02    ;  uncertainty sigma = 0.000008, epsilon = 0.000390
 h42bf                                  1      0.0000       0.00000       A     1.10744e-01     4.05584e-02    ;  uncertainty sigma = 0.000197, epsilon = 0.001139

[ moleculetype ]
;name             nrexcl
 MOL                   3

[ atoms ]
;       nr            type      resi   res      atom      cgnr      charge          mass ; qtot
         1            n0bf         1   UNL        n0         1    -0.78097       14.0070 ; qtot   -0.781
         2            c1bf         1   UNL        c1         2     0.23266       12.0110 ; qtot   -0.548
         3            c2bf         1   UNL        c2         3    -0.11952       12.0110 ; qtot   -0.668
         4            c3bf         1   UNL        c3         4     0.18766       12.0110 ; qtot   -0.480
         5            c4bf         1   UNL        c4         5    -0.11952       12.0110 ; qtot   -0.600
         6            c5bf         1   UNL        c5         6     0.23266       12.0110 ; qtot   -0.367
         7            c6bf         1   UNL        c6         7    -0.34056       12.0110 ; qtot   -0.708
         8            c7bf         1   UNL        c7         8     0.49929       12.0110 ; qtot   -0.208
         9            n8bf         1   UNL        n8         9    -0.79137       14.0070 ; qtot   -1.000
        10            c9bf         1   UNL        c9        10     0.93757       12.0110 ; qtot   -0.062
        11           n10bf         1   UNL       n10        11    -0.85783       14.0070 ; qtot   -0.920
        12           c11bf         1   UNL       c11        12     0.72015       12.0110 ; qtot   -0.200
        13           n12bf         1   UNL       n12        13    -0.92744       14.0070 ; qtot   -1.127
        14           n13bf         1   UNL       n13        14    -0.86673       14.0070 ; qtot   -1.994
        15           c14bf         1   UNL       c14        15    -0.13034       12.0110 ; qtot   -2.124
        16           h15bf         1   UNL       h15        16     0.07772        1.0080 ; qtot   -2.047
        17           h16bf         1   UNL       h16        17     0.07772        1.0080 ; qtot   -1.969
        18           h17bf         1   UNL       h17        18     0.08339        1.0080 ; qtot   -1.885
        19           h18bf         1   UNL       h18        19     0.08339        1.0080 ; qtot   -1.802
        20           h19bf         1   UNL       h19        20     0.08339        1.0080 ; qtot   -1.719
        21           h20bf         1   UNL       h20        21     0.08339        1.0080 ; qtot   -1.635
        22           h21bf         1   UNL       h21        22     0.07772        1.0080 ; qtot   -1.558
        23           h22bf         1   UNL       h22        23     0.07772        1.0080 ; qtot   -1.480
        24           h23bf         1   UNL       h23        24     0.46464        1.0080 ; qtot   -1.015
        25           h24bf         1   UNL       h24        25     0.07734        1.0080 ; qtot   -0.938
        26           h25bf         1   UNL       h25        26     0.07734        1.0080 ; qtot   -0.861
        27           h26bf         1   UNL       h26        27     0.07734        1.0080 ; qtot   -0.783
        28           h27bf         1   UNL       h27        28     0.46464        1.0080 ; qtot   -0.319
        29           h28bf         1   UNL       h28        29     0.42687        1.0080 ; qtot    0.108
        30           h29bf         1   UNL       h29        30     0.02270        1.0080 ; qtot    0.131
        31           h30bf         1   UNL       h30        31     0.42687        1.0080 ; qtot    0.558
        32           c31bf         1   UNL       c31        32     0.01454       12.0110 ; qtot    0.572
        33           c32bf         1   UNL       c32        33    -0.13831       12.0110 ; qtot    0.434
        34           c33bf         1   UNL       c33        34    -0.15808       12.0110 ; qtot    0.276
        35           c34bf         1   UNL       c34        35    -0.03161       12.0110 ; qtot    0.244
        36           s35bf         1   UNL       s35        36    -0.13994       32.0670 ; qtot    0.104
        37           h36bf         1   UNL       h36        37     0.15687        1.0080 ; qtot    0.261
        38           h37bf         1   UNL       h37        38     0.15220        1.0080 ; qtot    0.414
        39           c38bf         1   UNL       c38        39    -0.02495       12.0110 ; qtot    0.389
        40           h39bf         1   UNL       h39        40     0.04892        1.0080 ; qtot    0.438
        41           h40bf         1   UNL       h40        41     0.04892        1.0080 ; qtot    0.486
        42           h41bf         1   UNL       h41        42     0.04892        1.0080 ; qtot    0.535
        43           h42bf         1   UNL       h42        43     0.46463        1.0080 ; qtot    1.000

[ bonds ]
;       ai        aj funct               r               k
         1         2     1        0.144968   251114.134229    ;  uncertainty r = 0.000170, k = 12.476836
         1         6     1        0.144968   251114.134229    ;  uncertainty r = 0.000170, k = 12.476836
         1        10     1        0.138275   305775.678418    ;  uncertainty r = 0.000341, k = 18.839039
         2         3     1        0.154006   208103.206689    ;  uncertainty r = 0.000229, k = 14.884648
         2        16     1        0.109449   306948.597852    ;  uncertainty r = 0.000047, k = 1.171910
         2        17     1        0.109449   306948.597852    ;  uncertainty r = 0.000047, k = 1.171910
         3         4     1        0.153723   202820.651318    ;  uncertainty r = 0.000184, k = 7.066036
         3        18     1        0.109581   310499.532910    ;  uncertainty r = 0.000037, k = 1.905376
         3        19     1        0.109581   310499.532910    ;  uncertainty r = 0.000037, k = 1.905376
         4         5     1        0.153723   202820.651318    ;  uncertainty r = 0.000184, k = 7.066036
         4        14     1        0.155122   197292.186353    ;  uncertainty r = 0.000211, k = 49.108522
         4        15     1        0.152893   210290.434570    ;  uncertainty r = 0.000125, k = 13.841188
         5         6     1        0.154006   208103.206689    ;  uncertainty r = 0.000229, k = 14.884648
         5        20     1        0.109581   310499.532910    ;  uncertainty r = 0.000037, k = 1.905376
         5        21     1        0.109581   310499.532910    ;  uncertainty r = 0.000037, k = 1.905376
         6        22     1        0.109449   306948.597852    ;  uncertainty r = 0.000047, k = 1.171910
         6        23     1        0.109449   306948.623389    ;  uncertainty r = 0.000047, k = 1.171879
         7         8     1        0.140507   394488.966064    ;  uncertainty r = 0.000055, k = 33.899072
         7        12     1        0.142531   435242.132227    ;  uncertainty r = 0.000130, k = 33.381644
         7        32     1        0.146305   278088.242285    ;  uncertainty r = 0.000210, k = 14.147248
         8         9     1        0.134242   420294.904590    ;  uncertainty r = 0.000279, k = 16.183839
         8        30     1        0.108871   326476.467871    ;  uncertainty r = 0.000020, k = 4.185932
         9        10     1        0.136352   468055.887695    ;  uncertainty r = 0.000117, k = 11.150502
        10        11     1        0.137106   456589.010547    ;  uncertainty r = 0.000098, k = 21.640259
        11        12     1        0.137215   556272.197656    ;  uncertainty r = 0.000300, k = 17.555008
        12        13     1        0.141286   542410.450391    ;  uncertainty r = 0.000340, k = 35.603565
        13        29     1        0.101885   428316.085107    ;  uncertainty r = 0.000057, k = 2.667682
        13        31     1        0.101885   428316.085107    ;  uncertainty r = 0.000057, k = 2.667682
        14        24     1        0.102893   408930.712158    ;  uncertainty r = 0.000060, k = 6.495058
        14        28     1        0.102893   408930.712158    ;  uncertainty r = 0.000060, k = 6.495058
        14        43     1        0.102893   408930.712158    ;  uncertainty r = 0.000060, k = 6.495039
        15        25     1        0.109485   313302.358350    ;  uncertainty r = 0.000023, k = 3.037338
        15        26     1        0.109485   313302.332813    ;  uncertainty r = 0.000023, k = 3.037338
        15        27     1        0.109485   313302.332813    ;  uncertainty r = 0.000023, k = 3.037338
        32        33     1        0.137634   410459.261377    ;  uncertainty r = 0.000070, k = 3.692432
        32        36     1        0.175465   168715.548071    ;  uncertainty r = 0.000051, k = 8.385126
        33        34     1        0.142955   266152.784717    ;  uncertainty r = 0.000042, k = 3.136602
        33        37     1        0.108581   334343.429785    ;  uncertainty r = 0.000030, k = 1.268646
        34        35     1        0.137197   416648.613965    ;  uncertainty r = 0.000037, k = 3.284360
        34        38     1        0.108675   333309.483301    ;  uncertainty r = 0.000012, k = 1.718189
        35        36     1        0.174423   170156.134717    ;  uncertainty r = 0.000044, k = 13.366905
        35        39     1        0.150213   245455.187402    ;  uncertainty r = 0.000025, k = 10.415155
        39        40     1        0.109532   309718.608105    ;  uncertainty r = 0.000014, k = 1.574328
        39        41     1        0.109532   309718.608105    ;  uncertainty r = 0.000014, k = 1.574328
        39        42     1        0.109532   309718.608105    ;  uncertainty r = 0.000014, k = 1.574324

[ angles ]
;       ai        aj        ak funct           theta             cth
         1         2         3     1      109.321327      693.713214    ;  uncertainty theta = 0.000907, k = 0.187356
         1         2        16     1      106.440819      457.938787    ;  uncertainty theta = 0.002047, k = 0.076265
         1         2        17     1      106.440819      457.938787    ;  uncertainty theta = 0.002047, k = 0.076265
         1         6         5     1      109.321327      693.713214    ;  uncertainty theta = 0.000907, k = 0.187356
         1         6        22     1      106.440819      457.938787    ;  uncertainty theta = 0.002047, k = 0.076265
         1         6        23     1      106.440819      457.938851    ;  uncertainty theta = 0.002047, k = 0.076265
         1        10         9     1      119.768555      555.768516    ;  uncertainty theta = 0.006918, k = 0.172532
         1        10        11     1      120.008957      597.959077    ;  uncertainty theta = 0.005523, k = 0.175473
         2         1         6     1      107.733925      419.581315    ;  uncertainty theta = 0.015928, k = 0.113518
         2         1        10     1      110.312744      435.992355    ;  uncertainty theta = 0.006001, k = 0.091881
         2         3         4     1      110.246338      546.471476    ;  uncertainty theta = 0.002854, k = 0.106854
         2         3        18     1      108.185547      399.606060    ;  uncertainty theta = 0.001628, k = 0.129027
         2         3        19     1      108.185547      399.606060    ;  uncertainty theta = 0.001628, k = 0.129027
         3         2        16     1      108.883324      414.526276    ;  uncertainty theta = 0.003534, k = 0.109424
         3         2        17     1      108.883324      414.526276    ;  uncertainty theta = 0.003534, k = 0.109424
         3         4         5     1      110.758156      579.433309    ;  uncertainty theta = 0.006554, k = 0.204301
         3         4        14     1      107.278976      685.372092    ;  uncertainty theta = 0.005309, k = 0.324780
         3         4        15     1      111.951096      573.556198    ;  uncertainty theta = 0.003615, k = 0.042900
         4         3        18     1      107.188622      391.727607    ;  uncertainty theta = 0.002259, k = 0.172799
         4         3        19     1      107.188622      391.727607    ;  uncertainty theta = 0.002259, k = 0.172799
         4         5         6     1      110.246338      546.471476    ;  uncertainty theta = 0.002854, k = 0.106854
         4         5        20     1      107.188622      391.727607    ;  uncertainty theta = 0.002259, k = 0.172799
         4         5        21     1      107.188622      391.727607    ;  uncertainty theta = 0.002259, k = 0.172799
         4        14        24     1      110.464333      409.034616    ;  uncertainty theta = 0.003988, k = 0.162351
         4        14        28     1      110.464333      409.034616    ;  uncertainty theta = 0.003988, k = 0.162351
         4        14        43     1      110.464333      409.034616    ;  uncertainty theta = 0.003988, k = 0.162351
         4        15        25     1      107.456223      389.152796    ;  uncertainty theta = 0.000505, k = 0.034813
         4        15        26     1      107.456223      389.152796    ;  uncertainty theta = 0.000505, k = 0.034813
         4        15        27     1      107.456223      389.152796    ;  uncertainty theta = 0.000505, k = 0.034813
         5         4        14     1      107.278976      685.372092    ;  uncertainty theta = 0.005309, k = 0.324780
         5         4        15     1      111.951096      573.556198    ;  uncertainty theta = 0.003615, k = 0.042900
         5         6        22     1      108.883324      414.526276    ;  uncertainty theta = 0.003534, k = 0.109424
         5         6        23     1      108.883324      414.526276    ;  uncertainty theta = 0.003534, k = 0.109424
         6         1        10     1      110.312744      435.992355    ;  uncertainty theta = 0.006001, k = 0.091881
         6         5        20     1      108.185547      399.606060    ;  uncertainty theta = 0.001628, k = 0.129027
         6         5        21     1      108.185547      399.606060    ;  uncertainty theta = 0.001628, k = 0.129027
         7         8         9     1      124.310715      715.595197    ;  uncertainty theta = 0.002477, k = 0.181595
         7         8        30     1      119.061935      261.668417    ;  uncertainty theta = 0.002742, k = 0.209646
         7        12        11     1      122.359413      541.826340    ;  uncertainty theta = 0.006215, k = 0.192954
         7        12        13     1      124.974976      512.455632    ;  uncertainty theta = 0.004806, k = 0.284653
         7        32        33     1      128.619263      367.487176    ;  uncertainty theta = 0.004684, k = 0.194367
         7        32        36     1      118.155602      344.120210    ;  uncertainty theta = 0.001581, k = 0.249251
         8         7        12     1      117.615540      431.042338    ;  uncertainty theta = 0.011418, k = 0.952071
         8         7        32     1      122.670227      415.869847    ;  uncertainty theta = 0.003161, k = 0.207701
         8         9        10     1      115.739868      419.255557    ;  uncertainty theta = 0.007033, k = 0.239917
         9         8        30     1      116.492386      324.174131    ;  uncertainty theta = 0.004169, k = 0.120968
         9        10        11     1      128.444977      726.255472    ;  uncertainty theta = 0.004585, k = 0.079748
        10        11        12     1      122.438736      478.901945    ;  uncertainty theta = 0.008630, k = 0.204780
        11        12        13     1      125.666237      912.727764    ;  uncertainty theta = 0.003116, k = 0.075550
        12         7        32     1      120.692307      371.124107    ;  uncertainty theta = 0.005869, k = 0.313186
        12        13        29     1      118.518456      414.621370    ;  uncertainty theta = 0.001965, k = 0.113354
        12        13        31     1      118.518456      414.621370    ;  uncertainty theta = 0.001965, k = 0.113354
        14         4        15     1      107.732376      711.715855    ;  uncertainty theta = 0.003143, k = 0.202828
        16         2        17     1      105.643211      323.899224    ;  uncertainty theta = 0.003009, k = 0.029640
        18         3        19     1      106.079796      314.629573    ;  uncertainty theta = 0.002798, k = 0.097750
        20         5        21     1      106.079796      314.629541    ;  uncertainty theta = 0.002798, k = 0.097750
        22         6        23     1      105.643211      323.899161    ;  uncertainty theta = 0.003009, k = 0.029640
        24        14        28     1      108.017105      374.242220    ;  uncertainty theta = 0.003302, k = 0.129445
        24        14        43     1      108.017105      374.242220    ;  uncertainty theta = 0.003302, k = 0.129446
        25        15        26     1      105.936523      319.817118    ;  uncertainty theta = 0.000605, k = 0.051303
        25        15        27     1      105.936523      319.817118    ;  uncertainty theta = 0.000605, k = 0.051303
        26        15        27     1      105.936523      319.817118    ;  uncertainty theta = 0.000605, k = 0.051303
        28        14        43     1      108.017105      374.242220    ;  uncertainty theta = 0.003302, k = 0.129446
        29        13        31     1      108.158463      273.605931    ;  uncertainty theta = 0.001543, k = 0.102393
        32        33        34     1      113.610291      638.144975    ;  uncertainty theta = 0.003728, k = 0.078685
        32        33        37     1      120.789711      251.871313    ;  uncertainty theta = 0.004649, k = 0.129196
        32        36        35     1       92.686867     1174.694263    ;  uncertainty theta = 0.001796, k = 0.137809
        33        32        36     1      111.592590      448.207872    ;  uncertainty theta = 0.003185, k = 0.213443
        33        34        35     1      113.368729      624.547485    ;  uncertainty theta = 0.004511, k = 0.051147
        33        34        38     1      121.851578      254.081422    ;  uncertainty theta = 0.002898, k = 0.066489
        34        33        37     1      122.044296      254.895002    ;  uncertainty theta = 0.002858, k = 0.015334
        34        35        36     1      111.132370      461.688369    ;  uncertainty theta = 0.002637, k = 0.105368
        34        35        39     1      128.928879      366.485163    ;  uncertainty theta = 0.003072, k = 0.170080
        35        34        38     1      120.755028      252.356230    ;  uncertainty theta = 0.004613, k = 0.097234
        35        39        40     1      109.678429      406.910854    ;  uncertainty theta = 0.001127, k = 0.038704
        35        39        41     1      109.678429      406.910854    ;  uncertainty theta = 0.001127, k = 0.038704
        35        39        42     1      109.678429      406.910854    ;  uncertainty theta = 0.001127, k = 0.038704
        36        35        39     1      119.096474      361.182702    ;  uncertainty theta = 0.004042, k = 0.187353
        40        39        41     1      106.742294      312.864352    ;  uncertainty theta = 0.001000, k = 0.019399
        40        39        42     1      106.742294      312.864352    ;  uncertainty theta = 0.001000, k = 0.019399
        41        39        42     1      106.742294      312.864352    ;  uncertainty theta = 0.001000, k = 0.019399

[ dihedrals ] ; propers for gromacs 4.5 or higher, use funct 9
;       ai        aj        ak        al funct           phase               k        pn
         1         2         3         4     9        0.000000        3.479794         1    ;  uncertainty k = 2.631245
         1         2         3         4     9      180.000000       -4.414620         2    ;  uncertainty k = 0.895315
         1         2         3         4     9        0.000000        1.951912         3    ;  uncertainty k = 0.250640
         1         2         3         4     9      180.000000       -0.432234         4    ;  uncertainty k = 0.279775
         1         2         3        18     9        0.000000       -1.904474         1    ;  uncertainty k = 1.110760
         1         2         3        18     9      180.000000        0.320117         2    ;  uncertainty k = 0.432124
         1         2         3        18     9        0.000000        1.283059         3    ;  uncertainty k = 0.346519
         1         2         3        18     9      180.000000       -0.248889         4    ;  uncertainty k = 0.091362
         1         2         3        19     9        0.000000       -1.904474         1    ;  uncertainty k = 1.110760
         1         2         3        19     9      180.000000        0.320117         2    ;  uncertainty k = 0.432124
         1         2         3        19     9        0.000000        1.283059         3    ;  uncertainty k = 0.346519
         1         2         3        19     9      180.000000       -0.248889         4    ;  uncertainty k = 0.091362
         1         6         5         4     9        0.000000        3.479794         1    ;  uncertainty k = 2.631245
         1         6         5         4     9      180.000000       -4.414620         2    ;  uncertainty k = 0.895315
         1         6         5         4     9        0.000000        1.951912         3    ;  uncertainty k = 0.250640
         1         6         5         4     9      180.000000       -0.432234         4    ;  uncertainty k = 0.279775
         1         6         5        20     9        0.000000       -1.904474         1    ;  uncertainty k = 1.110760
         1         6         5        20     9      180.000000        0.320117         2    ;  uncertainty k = 0.432124
         1         6         5        20     9        0.000000        1.283059         3    ;  uncertainty k = 0.346519
         1         6         5        20     9      180.000000       -0.248889         4    ;  uncertainty k = 0.091362
         1         6         5        21     9        0.000000       -1.904474         1    ;  uncertainty k = 1.110760
         1         6         5        21     9      180.000000        0.320117         2    ;  uncertainty k = 0.432124
         1         6         5        21     9        0.000000        1.283059         3    ;  uncertainty k = 0.346519
         1         6         5        21     9      180.000000       -0.248889         4    ;  uncertainty k = 0.091362
         1        10         9         8     9        0.000000        0.924353         1    ;  uncertainty k = 1.822211
         1        10         9         8     9      180.000000        9.987705         2    ;  uncertainty k = 0.202226
         1        10         9         8     9        0.000000        1.520965         3    ;  uncertainty k = 0.555991
         1        10         9         8     9      180.000000        0.733587         4    ;  uncertainty k = 0.145964
         1        10        11        12     9        0.000000        0.762286         1    ;  uncertainty k = 1.241818
         1        10        11        12     9      180.000000        9.892553         2    ;  uncertainty k = 0.512055
         1        10        11        12     9        0.000000        1.560470         3    ;  uncertainty k = 0.326581
         1        10        11        12     9      180.000000        0.722789         4    ;  uncertainty k = 0.236263
         2         1         6         5     9        0.000000       -6.396973         1    ;  uncertainty k = 2.175872
         2         1         6         5     9      180.000000        1.538835         2    ;  uncertainty k = 0.773480
         2         1         6         5     9        0.000000        1.176906         3    ;  uncertainty k = 0.288771
         2         1         6         5     9      180.000000       -0.468910         4    ;  uncertainty k = 0.183517
         2         1         6        22     9        0.000000       -6.047318         1    ;  uncertainty k = 1.982150
         2         1         6        22     9      180.000000        0.993138         2    ;  uncertainty k = 0.489809
         2         1         6        22     9        0.000000        0.822682         3    ;  uncertainty k = 0.044513
         2         1         6        22     9      180.000000       -0.076732         4    ;  uncertainty k = 0.063310
         2         1         6        23     9        0.000000       -6.047318         1    ;  uncertainty k = 1.982148
         2         1         6        23     9      180.000000        0.993137         2    ;  uncertainty k = 0.489808
         2         1         6        23     9        0.000000        0.822683         3    ;  uncertainty k = 0.044513
         2         1         6        23     9      180.000000       -0.076732         4    ;  uncertainty k = 0.063310
         2         1        10         9     9        0.000000        4.861602         1    ;  uncertainty k = 1.142817
         2         1        10         9     9      180.000000       11.526642         2    ;  uncertainty k = 0.151194
         2         1        10         9     9        0.000000        0.515084         3    ;  uncertainty k = 0.224234
         2         1        10         9     9      180.000000       -0.202702         4    ;  uncertainty k = 0.093698
         2         1        10        11     9        0.000000        6.609945         1    ;  uncertainty k = 0.873943
         2         1        10        11     9      180.000000       11.634624         2    ;  uncertainty k = 0.134629
         2         1        10        11     9        0.000000        0.530221         3    ;  uncertainty k = 0.140078
         2         1        10        11     9      180.000000       -0.230899         4    ;  uncertainty k = 0.107172
         2         3         4         5     9        0.000000       -1.995785         1    ;  uncertainty k = 1.854286
         2         3         4         5     9      180.000000        0.461226         2    ;  uncertainty k = 0.623979
         2         3         4         5     9        0.000000        0.633424         3    ;  uncertainty k = 0.430864
         2         3         4         5     9      180.000000       -1.000696         4    ;  uncertainty k = 0.199219
         2         3         4        14     9        0.000000       -4.922189         1    ;  uncertainty k = 1.419897
         2         3         4        14     9      180.000000       -1.288662         2    ;  uncertainty k = 1.614288
         2         3         4        14     9        0.000000        1.032740         3    ;  uncertainty k = 0.323245
         2         3         4        14     9      180.000000        0.204775         4    ;  uncertainty k = 0.137621
         2         3         4        15     9        0.000000       -4.846863         1    ;  uncertainty k = 0.953612
         2         3         4        15     9      180.000000        1.255315         2    ;  uncertainty k = 0.483535
         2         3         4        15     9        0.000000        0.497226         3    ;  uncertainty k = 0.328814
         2         3         4        15     9      180.000000       -0.186222         4    ;  uncertainty k = 0.107604
         3         2         1         6     9        0.000000       -6.396973         1    ;  uncertainty k = 2.175872
         3         2         1         6     9      180.000000        1.538835         2    ;  uncertainty k = 0.773480
         3         2         1         6     9        0.000000        1.176906         3    ;  uncertainty k = 0.288771
         3         2         1         6     9      180.000000       -0.468910         4    ;  uncertainty k = 0.183517
         3         2         1        10     9        0.000000       -3.658773         1    ;  uncertainty k = 0.852122
         3         2         1        10     9      180.000000        0.875088         2    ;  uncertainty k = 0.536108
         3         2         1        10     9        0.000000        0.041856         3    ;  uncertainty k = 0.263262
         3         2         1        10     9      180.000000        0.237741         4    ;  uncertainty k = 0.150936
         3         4         5         6     9        0.000000       -1.995785         1    ;  uncertainty k = 1.854286
         3         4         5         6     9      180.000000        0.461226         2    ;  uncertainty k = 0.623979
         3         4         5         6     9        0.000000        0.633424         3    ;  uncertainty k = 0.430864
         3         4         5         6     9      180.000000       -1.000696         4    ;  uncertainty k = 0.199219
         3         4         5        20     9        0.000000       -1.041765         1    ;  uncertainty k = 0.265447
         3         4         5        20     9      180.000000       -0.356594         2    ;  uncertainty k = 0.191549
         3         4         5        20     9        0.000000       -0.007680         3    ;  uncertainty k = 0.093809
         3         4         5        20     9      180.000000       -0.100570         4    ;  uncertainty k = 0.058705
         3         4         5        21     9        0.000000       -1.041765         1    ;  uncertainty k = 0.265447
         3         4         5        21     9      180.000000       -0.356594         2    ;  uncertainty k = 0.191549
         3         4         5        21     9        0.000000       -0.007680         3    ;  uncertainty k = 0.093809
         3         4         5        21     9      180.000000       -0.100570         4    ;  uncertainty k = 0.058705
         3         4        14        24     9        0.000000       -0.378619         1    ;  uncertainty k = 1.202867
         3         4        14        24     9      180.000000       -0.218969         2    ;  uncertainty k = 0.263350
         3         4        14        24     9        0.000000        0.752336         3    ;  uncertainty k = 0.133799
         3         4        14        24     9      180.000000       -0.117477         4    ;  uncertainty k = 0.099713
         3         4        14        28     9        0.000000       -0.378619         1    ;  uncertainty k = 1.202867
         3         4        14        28     9      180.000000       -0.218969         2    ;  uncertainty k = 0.263350
         3         4        14        28     9        0.000000        0.752336         3    ;  uncertainty k = 0.133799
         3         4        14        28     9      180.000000       -0.117477         4    ;  uncertainty k = 0.099713
         3         4        14        43     9        0.000000       -0.378618         1    ;  uncertainty k = 1.202868
         3         4        14        43     9      180.000000       -0.218968         2    ;  uncertainty k = 0.263352
         3         4        14        43     9        0.000000        0.752335         3    ;  uncertainty k = 0.133799
         3         4        14        43     9      180.000000       -0.117476         4    ;  uncertainty k = 0.099713
         3         4        15        25     9        0.000000       -0.914078         1    ;  uncertainty k = 0.356128
         3         4        15        25     9      180.000000       -0.481016         2    ;  uncertainty k = 0.207164
         3         4        15        25     9        0.000000        0.542169         3    ;  uncertainty k = 0.077000
         3         4        15        25     9      180.000000       -0.146042         4    ;  uncertainty k = 0.059767
         3         4        15        26     9        0.000000       -0.914078         1    ;  uncertainty k = 0.356128
         3         4        15        26     9      180.000000       -0.481016         2    ;  uncertainty k = 0.207164
         3         4        15        26     9        0.000000        0.542169         3    ;  uncertainty k = 0.077000
         3         4        15        26     9      180.000000       -0.146042         4    ;  uncertainty k = 0.059767
         3         4        15        27     9        0.000000       -0.914078         1    ;  uncertainty k = 0.356128
         3         4        15        27     9      180.000000       -0.481016         2    ;  uncertainty k = 0.207164
         3         4        15        27     9        0.000000        0.542169         3    ;  uncertainty k = 0.077000
         3         4        15        27     9      180.000000       -0.146042         4    ;  uncertainty k = 0.059767
         4         3         2        16     9        0.000000        2.805143         1    ;  uncertainty k = 1.342924
         4         3         2        16     9      180.000000       -2.640033         2    ;  uncertainty k = 0.200970
         4         3         2        16     9        0.000000        0.068377         3    ;  uncertainty k = 0.137352
         4         3         2        16     9      180.000000        0.232543         4    ;  uncertainty k = 0.063819
         4         3         2        17     9        0.000000        2.805143         1    ;  uncertainty k = 1.342924
         4         3         2        17     9      180.000000       -2.640033         2    ;  uncertainty k = 0.200970
         4         3         2        17     9        0.000000        0.068377         3    ;  uncertainty k = 0.137352
         4         3         2        17     9      180.000000        0.232543         4    ;  uncertainty k = 0.063819
         4         5         6        22     9        0.000000        2.805143         1    ;  uncertainty k = 1.342924
         4         5         6        22     9      180.000000       -2.640033         2    ;  uncertainty k = 0.200970
         4         5         6        22     9        0.000000        0.068377         3    ;  uncertainty k = 0.137352
         4         5         6        22     9      180.000000        0.232543         4    ;  uncertainty k = 0.063819
         4         5         6        23     9        0.000000        2.805144         1    ;  uncertainty k = 1.342924
         4         5         6        23     9      180.000000       -2.640033         2    ;  uncertainty k = 0.200971
         4         5         6        23     9        0.000000        0.068377         3    ;  uncertainty k = 0.137352
         4         5         6        23     9      180.000000        0.232543         4    ;  uncertainty k = 0.063819
         5         4         3        18     9        0.000000       -1.041765         1    ;  uncertainty k = 0.265447
         5         4         3        18     9      180.000000       -0.356594         2    ;  uncertainty k = 0.191549
         5         4         3        18     9        0.000000       -0.007680         3    ;  uncertainty k = 0.093809
         5         4         3        18     9      180.000000       -0.100570         4    ;  uncertainty k = 0.058705
         5         4         3        19     9        0.000000       -1.041765         1    ;  uncertainty k = 0.265447
         5         4         3        19     9      180.000000       -0.356594         2    ;  uncertainty k = 0.191549
         5         4         3        19     9        0.000000       -0.007680         3    ;  uncertainty k = 0.093809
         5         4         3        19     9      180.000000       -0.100570         4    ;  uncertainty k = 0.058705
         5         4        14        24     9        0.000000       -0.378619         1    ;  uncertainty k = 1.202867
         5         4        14        24     9      180.000000       -0.218969         2    ;  uncertainty k = 0.263350
         5         4        14        24     9        0.000000        0.752336         3    ;  uncertainty k = 0.133799
         5         4        14        24     9      180.000000       -0.117477         4    ;  uncertainty k = 0.099713
         5         4        14        28     9        0.000000       -0.378619         1    ;  uncertainty k = 1.202867
         5         4        14        28     9      180.000000       -0.218969         2    ;  uncertainty k = 0.263350
         5         4        14        28     9        0.000000        0.752336         3    ;  uncertainty k = 0.133799
         5         4        14        28     9      180.000000       -0.117477         4    ;  uncertainty k = 0.099713
         5         4        14        43     9        0.000000       -0.378618         1    ;  uncertainty k = 1.202868
         5         4        14        43     9      180.000000       -0.218968         2    ;  uncertainty k = 0.263352
         5         4        14        43     9        0.000000        0.752335         3    ;  uncertainty k = 0.133799
         5         4        14        43     9      180.000000       -0.117476         4    ;  uncertainty k = 0.099713
         5         4        15        25     9        0.000000       -0.914078         1    ;  uncertainty k = 0.356128
         5         4        15        25     9      180.000000       -0.481016         2    ;  uncertainty k = 0.207164
         5         4        15        25     9        0.000000        0.542169         3    ;  uncertainty k = 0.077000
         5         4        15        25     9      180.000000       -0.146042         4    ;  uncertainty k = 0.059767
         5         4        15        26     9        0.000000       -0.914078         1    ;  uncertainty k = 0.356128
         5         4        15        26     9      180.000000       -0.481016         2    ;  uncertainty k = 0.207164
         5         4        15        26     9        0.000000        0.542169         3    ;  uncertainty k = 0.077000
         5         4        15        26     9      180.000000       -0.146042         4    ;  uncertainty k = 0.059767
         5         4        15        27     9        0.000000       -0.914078         1    ;  uncertainty k = 0.356128
         5         4        15        27     9      180.000000       -0.481016         2    ;  uncertainty k = 0.207164
         5         4        15        27     9        0.000000        0.542169         3    ;  uncertainty k = 0.077000
         5         4        15        27     9      180.000000       -0.146042         4    ;  uncertainty k = 0.059767
         5         6         1        10     9        0.000000       -3.658773         1    ;  uncertainty k = 0.852122
         5         6         1        10     9      180.000000        0.875088         2    ;  uncertainty k = 0.536108
         5         6         1        10     9        0.000000        0.041856         3    ;  uncertainty k = 0.263262
         5         6         1        10     9      180.000000        0.237741         4    ;  uncertainty k = 0.150936
         6         1         2        16     9        0.000000       -6.047318         1    ;  uncertainty k = 1.982150
         6         1         2        16     9      180.000000        0.993138         2    ;  uncertainty k = 0.489809
         6         1         2        16     9        0.000000        0.822682         3    ;  uncertainty k = 0.044513
         6         1         2        16     9      180.000000       -0.076732         4    ;  uncertainty k = 0.063310
         6         1         2        17     9        0.000000       -6.047318         1    ;  uncertainty k = 1.982150
         6         1         2        17     9      180.000000        0.993138         2    ;  uncertainty k = 0.489809
         6         1         2        17     9        0.000000        0.822682         3    ;  uncertainty k = 0.044513
         6         1         2        17     9      180.000000       -0.076732         4    ;  uncertainty k = 0.063310
         6         1        10         9     9        0.000000        4.861602         1    ;  uncertainty k = 1.142817
         6         1        10         9     9      180.000000       11.526642         2    ;  uncertainty k = 0.151194
         6         1        10         9     9        0.000000        0.515084         3    ;  uncertainty k = 0.224234
         6         1        10         9     9      180.000000       -0.202702         4    ;  uncertainty k = 0.093698
         6         1        10        11     9        0.000000        6.609945         1    ;  uncertainty k = 0.873943
         6         1        10        11     9      180.000000       11.634624         2    ;  uncertainty k = 0.134629
         6         1        10        11     9        0.000000        0.530221         3    ;  uncertainty k = 0.140078
         6         1        10        11     9      180.000000       -0.230899         4    ;  uncertainty k = 0.107172
         6         5         4        14     9        0.000000       -4.922189         1    ;  uncertainty k = 1.419897
         6         5         4        14     9      180.000000       -1.288662         2    ;  uncertainty k = 1.614288
         6         5         4        14     9        0.000000        1.032740         3    ;  uncertainty k = 0.323245
         6         5         4        14     9      180.000000        0.204775         4    ;  uncertainty k = 0.137621
         6         5         4        15     9        0.000000       -4.846863         1    ;  uncertainty k = 0.953612
         6         5         4        15     9      180.000000        1.255315         2    ;  uncertainty k = 0.483535
         6         5         4        15     9        0.000000        0.497226         3    ;  uncertainty k = 0.328814
         6         5         4        15     9      180.000000       -0.186222         4    ;  uncertainty k = 0.107604
         7         8         9        10     9        0.000000       -0.607872         1    ;  uncertainty k = 0.486456
         7         8         9        10     9      180.000000       17.047690         2    ;  uncertainty k = 0.793191
         7         8         9        10     9        0.000000       -0.318060         3    ;  uncertainty k = 0.691224
         7         8         9        10     9      180.000000        1.378011         4    ;  uncertainty k = 0.676836
         7        12        11        10     9        0.000000        0.447432         1    ;  uncertainty k = 1.212519
         7        12        11        10     9      180.000000       11.083557         2    ;  uncertainty k = 0.626344
         7        12        11        10     9        0.000000        0.462001         3    ;  uncertainty k = 0.610688
         7        12        11        10     9      180.000000        1.097035         4    ;  uncertainty k = 0.396950
         7        12        13        29     9        0.000000       16.215187         1    ;  uncertainty k = 0.503006
         7        12        13        29     9      180.000000        7.058923         2    ;  uncertainty k = 0.465817
         7        12        13        29     9        0.000000        0.842375         3    ;  uncertainty k = 0.122493
         7        12        13        29     9      180.000000       -0.064609         4    ;  uncertainty k = 0.053149
         7        12        13        31     9        0.000000       16.215187         1    ;  uncertainty k = 0.503006
         7        12        13        31     9      180.000000        7.058923         2    ;  uncertainty k = 0.465817
         7        12        13        31     9        0.000000        0.842375         3    ;  uncertainty k = 0.122493
         7        12        13        31     9      180.000000       -0.064609         4    ;  uncertainty k = 0.053149
         7        32        33        34     9        0.000000        0.427723         1    ;  uncertainty k = 0.810939
         7        32        33        34     9      180.000000       15.192292         2    ;  uncertainty k = 0.515396
         7        32        33        34     9        0.000000        1.543158         3    ;  uncertainty k = 0.426165
         7        32        33        34     9      180.000000        0.842584         4    ;  uncertainty k = 0.354247
         7        32        33        37     9        0.000000        0.281887         1    ;  uncertainty k = 0.439768
         7        32        33        37     9      180.000000        8.845285         2    ;  uncertainty k = 0.379350
         7        32        33        37     9        0.000000        1.428518         3    ;  uncertainty k = 0.322240
         7        32        33        37     9      180.000000        0.822821         4    ;  uncertainty k = 0.267703
         7        32        36        35     9        0.000000        0.245497         1    ;  uncertainty k = 1.265951
         7        32        36        35     9      180.000000        9.545068         2    ;  uncertainty k = 0.822563
         7        32        36        35     9        0.000000        1.063213         3    ;  uncertainty k = 0.683935
         7        32        36        35     9      180.000000        0.534727         4    ;  uncertainty k = 0.509949
         8         7        12        11     9        0.000000       -0.031629         1    ;  uncertainty k = 0.703801
         8         7        12        11     9      180.000000        5.839984         2    ;  uncertainty k = 1.085992
         8         7        12        11     9        0.000000       -0.622021         3    ;  uncertainty k = 0.426793
         8         7        12        11     9      180.000000        1.063759         4    ;  uncertainty k = 0.438928
         8         7        12        13     9        0.000000       -0.742629         1    ;  uncertainty k = 0.748338
         8         7        12        13     9      180.000000        5.249913         2    ;  uncertainty k = 0.466450
         8         7        12        13     9        0.000000        0.510582         3    ;  uncertainty k = 0.420104
         8         7        12        13     9      180.000000        0.894326         4    ;  uncertainty k = 0.251563
         8         7        32        33     9        0.000000        0.032981         1    ;  uncertainty k = 0.416634
         8         7        32        33     9      180.000000        2.972491         2    ;  uncertainty k = 0.387982
         8         7        32        33     9        0.000000        0.635261         3    ;  uncertainty k = 0.261184
         8         7        32        33     9      180.000000       -0.090418         4    ;  uncertainty k = 0.081842
         8         7        32        36     9        0.000000       -0.862968         1    ;  uncertainty k = 1.623378
         8         7        32        36     9      180.000000        2.605566         2    ;  uncertainty k = 0.686205
         8         7        32        36     9        0.000000        0.310038         3    ;  uncertainty k = 0.109820
         8         7        32        36     9      180.000000        0.117996         4    ;  uncertainty k = 0.118100
         8         9        10        11     9        0.000000        0.091504         1    ;  uncertainty k = 1.348235
         8         9        10        11     9      180.000000        8.639857         2    ;  uncertainty k = 0.574190
         8         9        10        11     9        0.000000        0.787345         3    ;  uncertainty k = 0.506630
         8         9        10        11     9      180.000000        0.687701         4    ;  uncertainty k = 0.169339
         9         8         7        12     9        0.000000        0.170979         1    ;  uncertainty k = 0.549217
         9         8         7        12     9      180.000000       13.900362         2    ;  uncertainty k = 0.691854
         9         8         7        12     9        0.000000       -0.580122         3    ;  uncertainty k = 0.479189
         9         8         7        12     9      180.000000        1.038102         4    ;  uncertainty k = 0.312886
         9         8         7        32     9        0.000000       -0.000673         1    ;  uncertainty k = 0.733483
         9         8         7        32     9      180.000000       11.839465         2    ;  uncertainty k = 0.261451
         9         8         7        32     9        0.000000        0.717071         3    ;  uncertainty k = 0.248605
         9         8         7        32     9      180.000000        1.572534         4    ;  uncertainty k = 0.252439
         9        10        11        12     9        0.000000       -0.445747         1    ;  uncertainty k = 0.991940
         9        10        11        12     9      180.000000        8.327886         2    ;  uncertainty k = 0.498182
         9        10        11        12     9        0.000000        1.134820         3    ;  uncertainty k = 0.347629
         9        10        11        12     9      180.000000        0.618182         4    ;  uncertainty k = 0.257998
        10         1         2        16     9        0.000000       -0.422978         1    ;  uncertainty k = 0.568097
        10         1         2        16     9      180.000000        0.237748         2    ;  uncertainty k = 0.260172
        10         1         2        16     9        0.000000       -0.029850         3    ;  uncertainty k = 0.095711
        10         1         2        16     9      180.000000        0.275752         4    ;  uncertainty k = 0.038260
        10         1         2        17     9        0.000000       -0.422978         1    ;  uncertainty k = 0.568097
        10         1         2        17     9      180.000000        0.237748         2    ;  uncertainty k = 0.260172
        10         1         2        17     9        0.000000       -0.029850         3    ;  uncertainty k = 0.095711
        10         1         2        17     9      180.000000        0.275752         4    ;  uncertainty k = 0.038260
        10         1         6        22     9        0.000000       -0.422978         1    ;  uncertainty k = 0.568097
        10         1         6        22     9      180.000000        0.237748         2    ;  uncertainty k = 0.260172
        10         1         6        22     9        0.000000       -0.029850         3    ;  uncertainty k = 0.095711
        10         1         6        22     9      180.000000        0.275752         4    ;  uncertainty k = 0.038260
        10         1         6        23     9        0.000000       -0.422980         1    ;  uncertainty k = 0.568096
        10         1         6        23     9      180.000000        0.237748         2    ;  uncertainty k = 0.260170
        10         1         6        23     9        0.000000       -0.029850         3    ;  uncertainty k = 0.095711
        10         1         6        23     9      180.000000        0.275752         4    ;  uncertainty k = 0.038260
        10         9         8        30     9        0.000000       -0.574808         1    ;  uncertainty k = 0.871675
        10         9         8        30     9      180.000000       16.092707         2    ;  uncertainty k = 0.667507
        10         9         8        30     9        0.000000        1.513998         3    ;  uncertainty k = 0.737666
        10         9         8        30     9      180.000000        1.230192         4    ;  uncertainty k = 0.630055
        10        11        12        13     9        0.000000        0.521548         1    ;  uncertainty k = 1.234668
        10        11        12        13     9      180.000000       15.491521         2    ;  uncertainty k = 0.340021
        10        11        12        13     9        0.000000        2.504278         3    ;  uncertainty k = 0.489380
        10        11        12        13     9      180.000000        1.832123         4    ;  uncertainty k = 0.267930
        11        12         7        32     9        0.000000       -0.053793         1    ;  uncertainty k = 1.458127
        11        12         7        32     9      180.000000        7.024194         2    ;  uncertainty k = 0.628698
        11        12         7        32     9        0.000000        0.567983         3    ;  uncertainty k = 0.261493
        11        12         7        32     9      180.000000        1.351735         4    ;  uncertainty k = 0.446856
        11        12        13        29     9        0.000000       20.325317         1    ;  uncertainty k = 0.225268
        11        12        13        29     9      180.000000       12.838910         2    ;  uncertainty k = 0.159949
        11        12        13        29     9        0.000000        0.647238         3    ;  uncertainty k = 0.101715
        11        12        13        29     9      180.000000       -0.483590         4    ;  uncertainty k = 0.212925
        11        12        13        31     9        0.000000       20.325317         1    ;  uncertainty k = 0.225268
        11        12        13        31     9      180.000000       12.838910         2    ;  uncertainty k = 0.159949
        11        12        13        31     9        0.000000        0.647238         3    ;  uncertainty k = 0.101715
        11        12        13        31     9      180.000000       -0.483590         4    ;  uncertainty k = 0.212925
        12         7         8        30     9        0.000000       -0.525811         1    ;  uncertainty k = 0.440944
        12         7         8        30     9      180.000000        6.214625         2    ;  uncertainty k = 0.768221
        12         7         8        30     9        0.000000        0.914602         3    ;  uncertainty k = 0.191301
        12         7         8        30     9      180.000000        1.297817         4    ;  uncertainty k = 0.159416
        12         7        32        33     9        0.000000        1.203006         1    ;  uncertainty k = 2.063182
        12         7        32        33     9      180.000000        2.630629         2    ;  uncertainty k = 0.533717
        12         7        32        33     9        0.000000        0.577563         3    ;  uncertainty k = 0.491824
        12         7        32        33     9      180.000000        0.192108         4    ;  uncertainty k = 0.149645
        12         7        32        36     9        0.000000        1.839077         1    ;  uncertainty k = 1.807973
        12         7        32        36     9      180.000000        1.724049         2    ;  uncertainty k = 0.845794
        12         7        32        36     9        0.000000        0.766518         3    ;  uncertainty k = 0.295901
        12         7        32        36     9      180.000000        0.308198         4    ;  uncertainty k = 0.133726
        13        12         7        32     9        0.000000       -0.021369         1    ;  uncertainty k = 1.199114
        13        12         7        32     9      180.000000        6.810624         2    ;  uncertainty k = 0.896164
        13        12         7        32     9        0.000000        0.603156         3    ;  uncertainty k = 0.491785
        13        12         7        32     9      180.000000        0.944478         4    ;  uncertainty k = 0.154665
        14         4         3        18     9        0.000000       -0.957016         1    ;  uncertainty k = 0.777482
        14         4         3        18     9      180.000000       -1.810504         2    ;  uncertainty k = 0.431985
        14         4         3        18     9        0.000000        0.536111         3    ;  uncertainty k = 0.153239
        14         4         3        18     9      180.000000       -0.242449         4    ;  uncertainty k = 0.143920
        14         4         3        19     9        0.000000       -0.957016         1    ;  uncertainty k = 0.777482
        14         4         3        19     9      180.000000       -1.810504         2    ;  uncertainty k = 0.431985
        14         4         3        19     9        0.000000        0.536111         3    ;  uncertainty k = 0.153239
        14         4         3        19     9      180.000000       -0.242449         4    ;  uncertainty k = 0.143920
        14         4         5        20     9        0.000000       -0.957016         1    ;  uncertainty k = 0.777482
        14         4         5        20     9      180.000000       -1.810504         2    ;  uncertainty k = 0.431985
        14         4         5        20     9        0.000000        0.536111         3    ;  uncertainty k = 0.153239
        14         4         5        20     9      180.000000       -0.242449         4    ;  uncertainty k = 0.143920
        14         4         5        21     9        0.000000       -0.957016         1    ;  uncertainty k = 0.777482
        14         4         5        21     9      180.000000       -1.810504         2    ;  uncertainty k = 0.431985
        14         4         5        21     9        0.000000        0.536111         3    ;  uncertainty k = 0.153239
        14         4         5        21     9      180.000000       -0.242449         4    ;  uncertainty k = 0.143920
        14         4        15        25     9        0.000000       -1.658330         1    ;  uncertainty k = 1.431248
        14         4        15        25     9      180.000000       -2.618283         2    ;  uncertainty k = 0.451254
        14         4        15        25     9        0.000000        0.778238         3    ;  uncertainty k = 0.254191
        14         4        15        25     9      180.000000       -0.194334         4    ;  uncertainty k = 0.172569
        14         4        15        26     9        0.000000       -1.658330         1    ;  uncertainty k = 1.431248
        14         4        15        26     9      180.000000       -2.618283         2    ;  uncertainty k = 0.451254
        14         4        15        26     9        0.000000        0.778238         3    ;  uncertainty k = 0.254191
        14         4        15        26     9      180.000000       -0.194334         4    ;  uncertainty k = 0.172569
        14         4        15        27     9        0.000000       -1.658330         1    ;  uncertainty k = 1.431248
        14         4        15        27     9      180.000000       -2.618283         2    ;  uncertainty k = 0.451254
        14         4        15        27     9        0.000000        0.778238         3    ;  uncertainty k = 0.254191
        14         4        15        27     9      180.000000       -0.194334         4    ;  uncertainty k = 0.172569
        15         4         3        18     9        0.000000       -0.345185         1    ;  uncertainty k = 0.389031
        15         4         3        18     9      180.000000       -0.057707         2    ;  uncertainty k = 0.382824
        15         4         3        18     9        0.000000        0.281402         3    ;  uncertainty k = 0.220112
        15         4         3        18     9      180.000000       -0.051810         4    ;  uncertainty k = 0.076920
        15         4         3        19     9        0.000000       -0.345185         1    ;  uncertainty k = 0.389031
        15         4         3        19     9      180.000000       -0.057707         2    ;  uncertainty k = 0.382824
        15         4         3        19     9        0.000000        0.281402         3    ;  uncertainty k = 0.220112
        15         4         3        19     9      180.000000       -0.051810         4    ;  uncertainty k = 0.076920
        15         4         5        20     9        0.000000       -0.345185         1    ;  uncertainty k = 0.389031
        15         4         5        20     9      180.000000       -0.057707         2    ;  uncertainty k = 0.382824
        15         4         5        20     9        0.000000        0.281402         3    ;  uncertainty k = 0.220112
        15         4         5        20     9      180.000000       -0.051810         4    ;  uncertainty k = 0.076920
        15         4         5        21     9        0.000000       -0.345185         1    ;  uncertainty k = 0.389031
        15         4         5        21     9      180.000000       -0.057707         2    ;  uncertainty k = 0.382824
        15         4         5        21     9        0.000000        0.281402         3    ;  uncertainty k = 0.220112
        15         4         5        21     9      180.000000       -0.051810         4    ;  uncertainty k = 0.076920
        15         4        14        24     9        0.000000        0.214190         1    ;  uncertainty k = 1.165374
        15         4        14        24     9      180.000000       -0.101716         2    ;  uncertainty k = 0.387077
        15         4        14        24     9        0.000000        0.750310         3    ;  uncertainty k = 0.221539
        15         4        14        24     9      180.000000       -0.027140         4    ;  uncertainty k = 0.139765
        15         4        14        28     9        0.000000        0.214190         1    ;  uncertainty k = 1.165374
        15         4        14        28     9      180.000000       -0.101716         2    ;  uncertainty k = 0.387077
        15         4        14        28     9        0.000000        0.750310         3    ;  uncertainty k = 0.221539
        15         4        14        28     9      180.000000       -0.027140         4    ;  uncertainty k = 0.139765
        15         4        14        43     9        0.000000        0.214190         1    ;  uncertainty k = 1.165374
        15         4        14        43     9      180.000000       -0.101716         2    ;  uncertainty k = 0.387076
        15         4        14        43     9        0.000000        0.750310         3    ;  uncertainty k = 0.221539
        15         4        14        43     9      180.000000       -0.027140         4    ;  uncertainty k = 0.139764
        16         2         3        18     9        0.000000        0.137549         1    ;  uncertainty k = 0.221543
        16         2         3        18     9      180.000000        0.343768         2    ;  uncertainty k = 0.368627
        16         2         3        18     9        0.000000        0.156579         3    ;  uncertainty k = 0.091251
        16         2         3        18     9      180.000000       -0.126979         4    ;  uncertainty k = 0.142373
        16         2         3        19     9        0.000000        0.137549         1    ;  uncertainty k = 0.221543
        16         2         3        19     9      180.000000        0.343768         2    ;  uncertainty k = 0.368627
        16         2         3        19     9        0.000000        0.156579         3    ;  uncertainty k = 0.091251
        16         2         3        19     9      180.000000       -0.126979         4    ;  uncertainty k = 0.142373
        17         2         3        18     9        0.000000        0.137549         1    ;  uncertainty k = 0.221543
        17         2         3        18     9      180.000000        0.343768         2    ;  uncertainty k = 0.368627
        17         2         3        18     9        0.000000        0.156579         3    ;  uncertainty k = 0.091251
        17         2         3        18     9      180.000000       -0.126979         4    ;  uncertainty k = 0.142373
        17         2         3        19     9        0.000000        0.137549         1    ;  uncertainty k = 0.221543
        17         2         3        19     9      180.000000        0.343768         2    ;  uncertainty k = 0.368627
        17         2         3        19     9        0.000000        0.156579         3    ;  uncertainty k = 0.091251
        17         2         3        19     9      180.000000       -0.126979         4    ;  uncertainty k = 0.142373
        20         5         6        22     9        0.000000        0.137549         1    ;  uncertainty k = 0.221543
        20         5         6        22     9      180.000000        0.343768         2    ;  uncertainty k = 0.368627
        20         5         6        22     9        0.000000        0.156579         3    ;  uncertainty k = 0.091251
        20         5         6        22     9      180.000000       -0.126979         4    ;  uncertainty k = 0.142373
        20         5         6        23     9        0.000000        0.137547         1    ;  uncertainty k = 0.221543
        20         5         6        23     9      180.000000        0.343770         2    ;  uncertainty k = 0.368627
        20         5         6        23     9        0.000000        0.156579         3    ;  uncertainty k = 0.091251
        20         5         6        23     9      180.000000       -0.126979         4    ;  uncertainty k = 0.142373
        21         5         6        22     9        0.000000        0.137549         1    ;  uncertainty k = 0.221543
        21         5         6        22     9      180.000000        0.343768         2    ;  uncertainty k = 0.368627
        21         5         6        22     9        0.000000        0.156579         3    ;  uncertainty k = 0.091251
        21         5         6        22     9      180.000000       -0.126979         4    ;  uncertainty k = 0.142373
        21         5         6        23     9        0.000000        0.137547         1    ;  uncertainty k = 0.221543
        21         5         6        23     9      180.000000        0.343770         2    ;  uncertainty k = 0.368627
        21         5         6        23     9        0.000000        0.156579         3    ;  uncertainty k = 0.091251
        21         5         6        23     9      180.000000       -0.126979         4    ;  uncertainty k = 0.142373
        30         8         7        32     9        0.000000       -0.237276         1    ;  uncertainty k = 0.546533
        30         8         7        32     9      180.000000        6.365648         2    ;  uncertainty k = 0.569984
        30         8         7        32     9        0.000000        0.800441         3    ;  uncertainty k = 0.192393
        30         8         7        32     9      180.000000        1.241106         4    ;  uncertainty k = 0.319650
        32        33        34        35     9        0.000000       -0.326980         1    ;  uncertainty k = 0.683576
        32        33        34        35     9      180.000000       12.371147         2    ;  uncertainty k = 0.783893
        32        33        34        35     9        0.000000       -4.529773         3    ;  uncertainty k = 0.755414
        32        33        34        35     9      180.000000        1.476281         4    ;  uncertainty k = 0.502903
        32        33        34        38     9        0.000000       -0.079446         1    ;  uncertainty k = 0.425646
        32        33        34        38     9      180.000000        7.123298         2    ;  uncertainty k = 0.187937
        32        33        34        38     9        0.000000        1.283378         3    ;  uncertainty k = 0.195348
        32        33        34        38     9      180.000000        0.511324         4    ;  uncertainty k = 0.181617
        32        36        35        34     9        0.000000        0.076826         1    ;  uncertainty k = 0.607021
        32        36        35        34     9      180.000000       12.785374         2    ;  uncertainty k = 0.633739
        32        36        35        34     9        0.000000       -7.225337         3    ;  uncertainty k = 0.792044
        32        36        35        34     9      180.000000        1.819136         4    ;  uncertainty k = 0.686318
        32        36        35        39     9        0.000000        1.522424         1    ;  uncertainty k = 2.060297
        32        36        35        39     9      180.000000        9.950899         2    ;  uncertainty k = 0.557477
        32        36        35        39     9        0.000000        1.333525         3    ;  uncertainty k = 0.375265
        32        36        35        39     9      180.000000        0.292583         4    ;  uncertainty k = 0.260791
        33        32        36        35     9        0.000000       -0.249162         1    ;  uncertainty k = 0.203697
        33        32        36        35     9      180.000000       11.499610         2    ;  uncertainty k = 0.521727
        33        32        36        35     9        0.000000       -7.222208         3    ;  uncertainty k = 0.738513
        33        32        36        35     9      180.000000        1.814041         4    ;  uncertainty k = 0.497083
        33        34        35        36     9        0.000000       -0.382635         1    ;  uncertainty k = 0.421799
        33        34        35        36     9      180.000000       19.198053         2    ;  uncertainty k = 0.728235
        33        34        35        36     9        0.000000       -3.371605         3    ;  uncertainty k = 0.518623
        33        34        35        36     9      180.000000        1.003642         4    ;  uncertainty k = 0.887695
        33        34        35        39     9        0.000000        0.233766         1    ;  uncertainty k = 0.824744
        33        34        35        39     9      180.000000       15.137467         2    ;  uncertainty k = 0.433421
        33        34        35        39     9        0.000000        2.067557         3    ;  uncertainty k = 0.389607
        33        34        35        39     9      180.000000        1.165657         4    ;  uncertainty k = 0.332884
        34        33        32        36     9        0.000000       -0.538782         1    ;  uncertainty k = 0.364163
        34        33        32        36     9      180.000000       18.370521         2    ;  uncertainty k = 0.532739
        34        33        32        36     9        0.000000       -3.695909         3    ;  uncertainty k = 0.518530
        34        33        32        36     9      180.000000        1.051216         4    ;  uncertainty k = 0.793909
        34        35        39        40     9        0.000000        0.235946         1    ;  uncertainty k = 0.419141
        34        35        39        40     9      180.000000        0.584365         2    ;  uncertainty k = 0.190681
        34        35        39        40     9        0.000000        0.089645         3    ;  uncertainty k = 0.058419
        34        35        39        40     9      180.000000        0.076874         4    ;  uncertainty k = 0.045714
        34        35        39        41     9        0.000000        0.235946         1    ;  uncertainty k = 0.419141
        34        35        39        41     9      180.000000        0.584365         2    ;  uncertainty k = 0.190681
        34        35        39        41     9        0.000000        0.089645         3    ;  uncertainty k = 0.058419
        34        35        39        41     9      180.000000        0.076874         4    ;  uncertainty k = 0.045714
        34        35        39        42     9        0.000000        0.235946         1    ;  uncertainty k = 0.419141
        34        35        39        42     9      180.000000        0.584365         2    ;  uncertainty k = 0.190681
        34        35        39        42     9        0.000000        0.089645         3    ;  uncertainty k = 0.058419
        34        35        39        42     9      180.000000        0.076874         4    ;  uncertainty k = 0.045714
        35        34        33        37     9        0.000000       -0.378021         1    ;  uncertainty k = 0.583082
        35        34        33        37     9      180.000000        7.095676         2    ;  uncertainty k = 0.098933
        35        34        33        37     9        0.000000        0.920568         3    ;  uncertainty k = 0.178934
        35        34        33        37     9      180.000000        0.500990         4    ;  uncertainty k = 0.196769
        36        32        33        37     9        0.000000        0.306704         1    ;  uncertainty k = 0.618536
        36        32        33        37     9      180.000000       11.768933         2    ;  uncertainty k = 0.430054
        36        32        33        37     9        0.000000        1.947220         3    ;  uncertainty k = 0.321180
        36        32        33        37     9      180.000000        1.183554         4    ;  uncertainty k = 0.168128
        36        35        34        38     9        0.000000        0.101129         1    ;  uncertainty k = 0.654815
        36        35        34        38     9      180.000000       12.189230         2    ;  uncertainty k = 0.370317
        36        35        34        38     9        0.000000        2.113678         3    ;  uncertainty k = 0.439954
        36        35        34        38     9      180.000000        1.134630         4    ;  uncertainty k = 0.322004
        36        35        39        40     9        0.000000        0.301171         1    ;  uncertainty k = 0.249806
        36        35        39        40     9      180.000000       -0.125497         2    ;  uncertainty k = 0.220041
        36        35        39        40     9        0.000000        0.641697         3    ;  uncertainty k = 0.087165
        36        35        39        40     9      180.000000        0.222874         4    ;  uncertainty k = 0.055733
        36        35        39        41     9        0.000000        0.301171         1    ;  uncertainty k = 0.249806
        36        35        39        41     9      180.000000       -0.125497         2    ;  uncertainty k = 0.220041
        36        35        39        41     9        0.000000        0.641697         3    ;  uncertainty k = 0.087165
        36        35        39        41     9      180.000000        0.222874         4    ;  uncertainty k = 0.055733
        36        35        39        42     9        0.000000        0.301171         1    ;  uncertainty k = 0.249806
        36        35        39        42     9      180.000000       -0.125497         2    ;  uncertainty k = 0.220041
        36        35        39        42     9        0.000000        0.641697         3    ;  uncertainty k = 0.087165
        36        35        39        42     9      180.000000        0.222874         4    ;  uncertainty k = 0.055733
        37        33        34        38     9        0.000000        0.047260         1    ;  uncertainty k = 1.218665
        37        33        34        38     9      180.000000        5.648727         2    ;  uncertainty k = 0.672334
        37        33        34        38     9        0.000000        1.143402         3    ;  uncertainty k = 0.517549
        37        33        34        38     9      180.000000        0.140492         4    ;  uncertainty k = 0.162922
        38        34        35        39     9        0.000000       -0.310008         1    ;  uncertainty k = 0.803401
        38        34        35        39     9      180.000000        9.121122         2    ;  uncertainty k = 0.390773
        38        34        35        39     9        0.000000        1.157303         3    ;  uncertainty k = 0.204006
        38        34        35        39     9      180.000000        0.727622         4    ;  uncertainty k = 0.294291

[ dihedrals ] ; impropers
;       ai        aj        ak        al funct           phase               k        pn
         1         2         6        10     4      180.000000        0.462524         2    ;  uncertainty k = 1.034235
         1         6        10         2     4      180.000000        0.462524         2    ;  uncertainty k = 1.034235
         1        10         2         6     4      180.000000        0.462524         2    ;  uncertainty k = 1.034235
         7         8        12        32     4      180.000000        5.290868         2    ;  uncertainty k = 0.445085
         7        12        32         8     4      180.000000        5.290868         2    ;  uncertainty k = 0.445085
         7        32         8        12     4      180.000000        5.290868         2    ;  uncertainty k = 0.445085
         8         7         9        30     4      180.000000       15.529134         2    ;  uncertainty k = 0.075879
         8         9        30         7     4      180.000000       15.529134         2    ;  uncertainty k = 0.075879
         8        30         7         9     4      180.000000       15.529134         2    ;  uncertainty k = 0.075879
        10         1         9        11     4      180.000000       42.664607         2    ;  uncertainty k = 0.075627
        10         9        11         1     4      180.000000       42.664607         2    ;  uncertainty k = 0.075627
        10        11         1         9     4      180.000000       42.664607         2    ;  uncertainty k = 0.075627
        12         7        11        13     4      180.000000       35.265891         2    ;  uncertainty k = 0.069695
        12        11        13         7     4      180.000000       35.265891         2    ;  uncertainty k = 0.069695
        12        13         7        11     4      180.000000       35.265891         2    ;  uncertainty k = 0.069695
        13        12        29        31     4      180.000000        0.228192         2    ;  uncertainty k = 0.471611
        13        29        31        12     4      180.000000        0.228192         2    ;  uncertainty k = 0.471611
        13        31        12        29     4      180.000000        0.228192         2    ;  uncertainty k = 0.471611
        32         7        33        36     4      180.000000        4.921447         2    ;  uncertainty k = 0.642847
        32        33        36         7     4      180.000000        4.921447         2    ;  uncertainty k = 0.642847
        32        36         7        33     4      180.000000        4.921447         2    ;  uncertainty k = 0.642847
        33        32        34        37     4      180.000000        0.917946         2    ;  uncertainty k = 0.667109
        33        34        37        32     4      180.000000        0.917946         2    ;  uncertainty k = 0.667109
        33        37        32        34     4      180.000000        0.917946         2    ;  uncertainty k = 0.667109
        34        33        35        38     4      180.000000        1.007453         2    ;  uncertainty k = 0.387522
        34        35        38        33     4      180.000000        1.007453         2    ;  uncertainty k = 0.387522
        34        38        33        35     4      180.000000        1.007453         2    ;  uncertainty k = 0.387522
        35        34        36        39     4      180.000000        4.211278         2    ;  uncertainty k = 0.701506
        35        36        39        34     4      180.000000        4.211278         2    ;  uncertainty k = 0.701506
        35        39        34        36     4      180.000000        4.211278         2    ;  uncertainty k = 0.701506

[ pairs ]
;       ai        aj funct
         1         4     1
         1         8     1
         1        12     1
         1        18     1
         1        19     1
         1        20     1
         1        21     1
         2         5     1
         2         9     1
         2        11     1
         2        14     1
         2        15     1
         2        22     1
         2        23     1
         3         6     1
         3        10     1
         3        20     1
         3        21     1
         3        24     1
         3        25     1
         3        26     1
         3        27     1
         3        28     1
         3        43     1
         4        16     1
         4        17     1
         4        22     1
         4        23     1
         5        10     1
         5        18     1
         5        19     1
         5        24     1
         5        25     1
         5        26     1
         5        27     1
         5        28     1
         5        43     1
         6         9     1
         6        11     1
         6        14     1
         6        15     1
         6        16     1
         6        17     1
         7        10     1
         7        29     1
         7        31     1
         7        34     1
         7        35     1
         7        37     1
         8        11     1
         8        13     1
         8        33     1
         8        36     1
         9        12     1
         9        32     1
        10        13     1
        10        16     1
        10        17     1
        10        22     1
        10        23     1
        10        30     1
        11        29     1
        11        31     1
        11        32     1
        12        30     1
        12        33     1
        12        36     1
        13        32     1
        14        18     1
        14        19     1
        14        20     1
        14        21     1
        14        25     1
        14        26     1
        14        27     1
        15        18     1
        15        19     1
        15        20     1
        15        21     1
        15        24     1
        15        28     1
        15        43     1
        16        18     1
        16        19     1
        17        18     1
        17        19     1
        20        22     1
        20        23     1
        21        22     1
        21        23     1
        30        32     1
        32        38     1
        32        39     1
        33        39     1
        34        40     1
        34        41     1
        34        42     1
        35        37     1
        36        37     1
        36        38     1
        36        40     1
        36        41     1
        36        42     1
        37        38     1
        38        39     1
