; ITP file created by ByteFF-joint-25, 2026-02-17 09:35:18.938190

[ atomtypes ]
;name           bonded.type        at.num        mass        charge   ptype           sigma         epsilon
 n0bf                                   7      0.0000       0.00000       A     3.18998e-01     8.99142e-01    ;  uncertainty sigma = 0.000029, epsilon = 0.002716
 c1bf                                   6      0.0000       0.00000       A     3.39780e-01     4.50260e-01    ;  uncertainty sigma = 0.000020, epsilon = 0.001089
 c2bf                                   6      0.0000       0.00000       A     3.39771e-01     4.51072e-01    ;  uncertainty sigma = 0.000022, epsilon = 0.000654
 c3bf                                   6      0.0000       0.00000       A     3.39788e-01     4.49780e-01    ;  uncertainty sigma = 0.000038, epsilon = 0.001520
 c4bf                                   6      0.0000       0.00000       A     3.39771e-01     4.51072e-01    ;  uncertainty sigma = 0.000022, epsilon = 0.000654
 c5bf                                   6      0.0000       0.00000       A     3.39780e-01     4.50260e-01    ;  uncertainty sigma = 0.000020, epsilon = 0.001089
 c6bf                                   6      0.0000       0.00000       A     3.31538e-01     4.12994e-01    ;  uncertainty sigma = 0.000006, epsilon = 0.000883
 c7bf                                   6      0.0000       0.00000       A     3.31503e-01     4.13353e-01    ;  uncertainty sigma = 0.000008, epsilon = 0.000581
 c8bf                                   6      0.0000       0.00000       A     3.31513e-01     4.13286e-01    ;  uncertainty sigma = 0.000006, epsilon = 0.000635
 c9bf                                   6      0.0000       0.00000       A     3.31513e-01     4.13186e-01    ;  uncertainty sigma = 0.000004, epsilon = 0.000632
 c10bf                                  6      0.0000       0.00000       A     3.31521e-01     4.13397e-01    ;  uncertainty sigma = 0.000004, epsilon = 0.000629
 c11bf                                  6      0.0000       0.00000       A     3.31510e-01     4.13071e-01    ;  uncertainty sigma = 0.000004, epsilon = 0.000592
 c12bf                                  6      0.0000       0.00000       A     3.31560e-01     4.12638e-01    ;  uncertainty sigma = 0.000015, epsilon = 0.001834
 c13bf                                  6      0.0000       0.00000       A     3.31510e-01     4.13299e-01    ;  uncertainty sigma = 0.000009, epsilon = 0.000627
 n14bf                                  7      0.0000       0.00000       A     3.38405e-01     3.93997e-01    ;  uncertainty sigma = 0.000020, epsilon = 0.001343
 c15bf                                  6      0.0000       0.00000       A     3.31540e-01     4.14244e-01    ;  uncertainty sigma = 0.000012, epsilon = 0.001149
 n16bf                                  7      0.0000       0.00000       A     3.38461e-01     3.93887e-01    ;  uncertainty sigma = 0.000038, epsilon = 0.001240
 c17bf                                  6      0.0000       0.00000       A     3.31536e-01     4.12147e-01    ;  uncertainty sigma = 0.000013, epsilon = 0.001746
 c18bf                                  6      0.0000       0.00000       A     3.39773e-01     4.51014e-01    ;  uncertainty sigma = 0.000005, epsilon = 0.000481
 cl19bf                                17      0.0000       0.00000       A     3.46608e-01     1.10411e+00    ;  uncertainty sigma = 0.000016, epsilon = 0.001480
 n20bf                                  7      0.0000       0.00000       A     3.36871e-01     4.68770e-01    ;  uncertainty sigma = 0.000036, epsilon = 0.004307
 n21bf                                  7      0.0000       0.00000       A     2.77101e-01     4.77733e+00    ;  uncertainty sigma = 0.000102, epsilon = 0.025603
 c22bf                                  6      0.0000       0.00000       A     3.39744e-01     4.51058e-01    ;  uncertainty sigma = 0.000018, epsilon = 0.000674
 h23bf                                  1      0.0000       0.00000       A     2.42224e-01     8.69291e-02    ;  uncertainty sigma = 0.000024, epsilon = 0.000777
 h24bf                                  1      0.0000       0.00000       A     2.42224e-01     8.69291e-02    ;  uncertainty sigma = 0.000024, epsilon = 0.000777
 h25bf                                  1      0.0000       0.00000       A     2.60047e-01     8.66235e-02    ;  uncertainty sigma = 0.000026, epsilon = 0.001019
 h26bf                                  1      0.0000       0.00000       A     2.60047e-01     8.66235e-02    ;  uncertainty sigma = 0.000026, epsilon = 0.001019
 h27bf                                  1      0.0000       0.00000       A     2.60047e-01     8.66235e-02    ;  uncertainty sigma = 0.000026, epsilon = 0.001019
 h28bf                                  1      0.0000       0.00000       A     2.60047e-01     8.66235e-02    ;  uncertainty sigma = 0.000026, epsilon = 0.001019
 h29bf                                  1      0.0000       0.00000       A     2.42224e-01     8.69291e-02    ;  uncertainty sigma = 0.000024, epsilon = 0.000777
 h30bf                                  1      0.0000       0.00000       A     2.42224e-01     8.69291e-02    ;  uncertainty sigma = 0.000024, epsilon = 0.000777
 h31bf                                  1      0.0000       0.00000       A     2.62562e-01     6.70159e-02    ;  uncertainty sigma = 0.000006, epsilon = 0.000440
 h32bf                                  1      0.0000       0.00000       A     2.62563e-01     6.70147e-02    ;  uncertainty sigma = 0.000010, epsilon = 0.000410
 h33bf                                  1      0.0000       0.00000       A     2.62564e-01     6.70394e-02    ;  uncertainty sigma = 0.000010, epsilon = 0.000469
 h34bf                                  1      0.0000       0.00000       A     1.10744e-01     4.05583e-02    ;  uncertainty sigma = 0.000197, epsilon = 0.001139
 h35bf                                  1      0.0000       0.00000       A     2.60029e-01     8.68919e-02    ;  uncertainty sigma = 0.000018, epsilon = 0.000792
 h36bf                                  1      0.0000       0.00000       A     2.60029e-01     8.68919e-02    ;  uncertainty sigma = 0.000018, epsilon = 0.000792
 h37bf                                  1      0.0000       0.00000       A     2.60029e-01     8.68919e-02    ;  uncertainty sigma = 0.000018, epsilon = 0.000792
 h38bf                                  1      0.0000       0.00000       A     1.10744e-01     4.05584e-02    ;  uncertainty sigma = 0.000197, epsilon = 0.001139
 h39bf                                  1      0.0000       0.00000       A     1.10718e-01     4.12967e-02    ;  uncertainty sigma = 0.000085, epsilon = 0.000435
 h40bf                                  1      0.0000       0.00000       A     2.53681e-01     6.68791e-02    ;  uncertainty sigma = 0.000034, epsilon = 0.000846
 h41bf                                  1      0.0000       0.00000       A     1.10718e-01     4.12967e-02    ;  uncertainty sigma = 0.000085, epsilon = 0.000435
 h42bf                                  1      0.0000       0.00000       A     2.60030e-01     8.67436e-02    ;  uncertainty sigma = 0.000006, epsilon = 0.000502
 h43bf                                  1      0.0000       0.00000       A     2.60030e-01     8.67436e-02    ;  uncertainty sigma = 0.000006, epsilon = 0.000502
 h44bf                                  1      0.0000       0.00000       A     2.60030e-01     8.67437e-02    ;  uncertainty sigma = 0.000006, epsilon = 0.000502
 h45bf                                  1      0.0000       0.00000       A     1.10744e-01     4.05584e-02    ;  uncertainty sigma = 0.000197, epsilon = 0.001139

[ moleculetype ]
;name             nrexcl
 MOL                   3

[ atoms ]
;       nr            type      resi   res      atom      cgnr      charge          mass ; qtot
         1            n0bf         1   UNL        n0         1    -0.78098       14.0070 ; qtot   -0.781
         2            c1bf         1   UNL        c1         2     0.23266       12.0110 ; qtot   -0.548
         3            c2bf         1   UNL        c2         3    -0.11952       12.0110 ; qtot   -0.668
         4            c3bf         1   UNL        c3         4     0.18766       12.0110 ; qtot   -0.480
         5            c4bf         1   UNL        c4         5    -0.11952       12.0110 ; qtot   -0.600
         6            c5bf         1   UNL        c5         6     0.23266       12.0110 ; qtot   -0.367
         7            c6bf         1   UNL        c6         7    -0.01097       12.0110 ; qtot   -0.378
         8            c7bf         1   UNL        c7         8     0.03737       12.0110 ; qtot   -0.341
         9            c8bf         1   UNL        c8         9    -0.06606       12.0110 ; qtot   -0.407
        10            c9bf         1   UNL        c9        10    -0.11877       12.0110 ; qtot   -0.525
        11           c10bf         1   UNL       c10        11    -0.12101       12.0110 ; qtot   -0.646
        12           c11bf         1   UNL       c11        12    -0.11752       12.0110 ; qtot   -0.764
        13           c12bf         1   UNL       c12        13    -0.37504       12.0110 ; qtot   -1.139
        14           c13bf         1   UNL       c13        14     0.50699       12.0110 ; qtot   -0.632
        15           n14bf         1   UNL       n14        15    -0.79558       14.0070 ; qtot   -1.428
        16           c15bf         1   UNL       c15        16     0.93520       12.0110 ; qtot   -0.492
        17           n16bf         1   UNL       n16        17    -0.85387       14.0070 ; qtot   -1.346
        18           c17bf         1   UNL       c17        18     0.72337       12.0110 ; qtot   -0.623
        19           c18bf         1   UNL       c18        19    -0.04732       12.0110 ; qtot   -0.670
        20          cl19bf         1   UNL      cl19        20    -0.12188       35.4530 ; qtot   -0.792
        21           n20bf         1   UNL       n20        21    -0.92216       14.0070 ; qtot   -1.714
        22           n21bf         1   UNL       n21        22    -0.86673       14.0070 ; qtot   -2.581
        23           c22bf         1   UNL       c22        23    -0.13034       12.0110 ; qtot   -2.711
        24           h23bf         1   UNL       h23        24     0.07772        1.0080 ; qtot   -2.634
        25           h24bf         1   UNL       h24        25     0.07772        1.0080 ; qtot   -2.556
        26           h25bf         1   UNL       h25        26     0.08339        1.0080 ; qtot   -2.473
        27           h26bf         1   UNL       h26        27     0.08339        1.0080 ; qtot   -2.389
        28           h27bf         1   UNL       h27        28     0.08339        1.0080 ; qtot   -2.306
        29           h28bf         1   UNL       h28        29     0.08339        1.0080 ; qtot   -2.222
        30           h29bf         1   UNL       h29        30     0.07772        1.0080 ; qtot   -2.145
        31           h30bf         1   UNL       h30        31     0.07772        1.0080 ; qtot   -2.067
        32           h31bf         1   UNL       h31        32     0.13696        1.0080 ; qtot   -1.930
        33           h32bf         1   UNL       h32        33     0.13837        1.0080 ; qtot   -1.792
        34           h33bf         1   UNL       h33        34     0.14156        1.0080 ; qtot   -1.650
        35           h34bf         1   UNL       h34        35     0.46464        1.0080 ; qtot   -1.185
        36           h35bf         1   UNL       h35        36     0.07734        1.0080 ; qtot   -1.108
        37           h36bf         1   UNL       h36        37     0.07734        1.0080 ; qtot   -1.031
        38           h37bf         1   UNL       h37        38     0.07734        1.0080 ; qtot   -0.953
        39           h38bf         1   UNL       h38        39     0.46464        1.0080 ; qtot   -0.489
        40           h39bf         1   UNL       h39        40     0.42318        1.0080 ; qtot   -0.066
        41           h40bf         1   UNL       h40        41     0.02442        1.0080 ; qtot   -0.041
        42           h41bf         1   UNL       h41        42     0.42318        1.0080 ; qtot    0.382
        43           h42bf         1   UNL       h42        43     0.05110        1.0080 ; qtot    0.433
        44           h43bf         1   UNL       h43        44     0.05110        1.0080 ; qtot    0.484
        45           h44bf         1   UNL       h44        45     0.05110        1.0080 ; qtot    0.535
        46           h45bf         1   UNL       h45        46     0.46465        1.0080 ; qtot    1.000

[ bonds ]
;       ai        aj funct               r               k
         1         2     1        0.144968   251114.134229    ;  uncertainty r = 0.000170, k = 12.476836
         1         6     1        0.144968   251114.134229    ;  uncertainty r = 0.000170, k = 12.476836
         1        16     1        0.138274   305702.974268    ;  uncertainty r = 0.000340, k = 19.136977
         2         3     1        0.154006   208103.206689    ;  uncertainty r = 0.000229, k = 14.884648
         2        24     1        0.109449   306948.597852    ;  uncertainty r = 0.000047, k = 1.171910
         2        25     1        0.109449   306948.623389    ;  uncertainty r = 0.000047, k = 1.171879
         3         4     1        0.153723   202820.651318    ;  uncertainty r = 0.000184, k = 7.066036
         3        26     1        0.109581   310499.532910    ;  uncertainty r = 0.000037, k = 1.905368
         3        27     1        0.109581   310499.532910    ;  uncertainty r = 0.000037, k = 1.905368
         4         5     1        0.153723   202820.651318    ;  uncertainty r = 0.000184, k = 7.066036
         4        22     1        0.155122   197292.186353    ;  uncertainty r = 0.000211, k = 49.108522
         4        23     1        0.152893   210290.434570    ;  uncertainty r = 0.000125, k = 13.841188
         5         6     1        0.154006   208103.206689    ;  uncertainty r = 0.000229, k = 14.884648
         5        28     1        0.109581   310499.532910    ;  uncertainty r = 0.000037, k = 1.905368
         5        29     1        0.109581   310499.532910    ;  uncertainty r = 0.000037, k = 1.905368
         6        30     1        0.109449   306948.623389    ;  uncertainty r = 0.000047, k = 1.171879
         6        31     1        0.109449   306948.623389    ;  uncertainty r = 0.000047, k = 1.171879
         7         8     1        0.140408   332678.410254    ;  uncertainty r = 0.000072, k = 4.922570
         7        12     1        0.140363   349061.564014    ;  uncertainty r = 0.000083, k = 2.913690
         7        13     1        0.148098   290328.893848    ;  uncertainty r = 0.000192, k = 8.872804
         8         9     1        0.140429   340569.479199    ;  uncertainty r = 0.000053, k = 6.893568
         8        20     1        0.176164   182400.948828    ;  uncertainty r = 0.000129, k = 6.081911
         9        10     1        0.140032   359177.042871    ;  uncertainty r = 0.000035, k = 4.385336
         9        19     1        0.150833   236935.982178    ;  uncertainty r = 0.000011, k = 4.928792
        10        11     1        0.139571   376188.103076    ;  uncertainty r = 0.000010, k = 2.363830
        10        32     1        0.108779   334856.674609    ;  uncertainty r = 0.000013, k = 0.642709
        11        12     1        0.139281   374090.510449    ;  uncertainty r = 0.000009, k = 1.110775
        11        33     1        0.108782   332915.981982    ;  uncertainty r = 0.000016, k = 1.191367
        12        34     1        0.108758   334003.352100    ;  uncertainty r = 0.000011, k = 1.588200
        13        14     1        0.140084   416428.075488    ;  uncertainty r = 0.000055, k = 23.638484
        13        18     1        0.142417   434872.457031    ;  uncertainty r = 0.000133, k = 25.638823
        14        15     1        0.134349   424378.135156    ;  uncertainty r = 0.000314, k = 14.939532
        14        41     1        0.108839   326187.643164    ;  uncertainty r = 0.000016, k = 4.409353
        15        16     1        0.136231   473058.811719    ;  uncertainty r = 0.000131, k = 8.961163
        16        17     1        0.137045   459532.111328    ;  uncertainty r = 0.000097, k = 20.238173
        17        18     1        0.137136   553885.601563    ;  uncertainty r = 0.000345, k = 18.138779
        18        21     1        0.141147   543861.928613    ;  uncertainty r = 0.000306, k = 32.823397
        19        43     1        0.109438   308957.321338    ;  uncertainty r = 0.000005, k = 1.780983
        19        44     1        0.109438   308957.321338    ;  uncertainty r = 0.000005, k = 1.780983
        19        45     1        0.109438   308957.321338    ;  uncertainty r = 0.000005, k = 1.780983
        21        40     1        0.101885   428718.371191    ;  uncertainty r = 0.000039, k = 2.239531
        21        42     1        0.101885   428718.371191    ;  uncertainty r = 0.000039, k = 2.239531
        22        35     1        0.102893   408930.712158    ;  uncertainty r = 0.000060, k = 6.495038
        22        39     1        0.102893   408930.686621    ;  uncertainty r = 0.000060, k = 6.495046
        22        46     1        0.102893   408930.686621    ;  uncertainty r = 0.000060, k = 6.495046
        23        36     1        0.109485   313302.332813    ;  uncertainty r = 0.000023, k = 3.037343
        23        37     1        0.109485   313302.332813    ;  uncertainty r = 0.000023, k = 3.037343
        23        38     1        0.109485   313302.332813    ;  uncertainty r = 0.000023, k = 3.037343

[ angles ]
;       ai        aj        ak funct           theta             cth
         1         2         3     1      109.321327      693.713214    ;  uncertainty theta = 0.000907, k = 0.187356
         1         2        24     1      106.440819      457.938787    ;  uncertainty theta = 0.002047, k = 0.076265
         1         2        25     1      106.440819      457.938851    ;  uncertainty theta = 0.002047, k = 0.076265
         1         6         5     1      109.321327      693.713214    ;  uncertainty theta = 0.000907, k = 0.187356
         1         6        30     1      106.440819      457.938851    ;  uncertainty theta = 0.002047, k = 0.076265
         1         6        31     1      106.440819      457.938851    ;  uncertainty theta = 0.002047, k = 0.076265
         1        16        15     1      119.855728      554.739499    ;  uncertainty theta = 0.007013, k = 0.163857
         1        16        17     1      120.020409      594.592328    ;  uncertainty theta = 0.005578, k = 0.163936
         2         1         6     1      107.733925      419.581315    ;  uncertainty theta = 0.015928, k = 0.113518
         2         1        16     1      110.313477      436.064849    ;  uncertainty theta = 0.005991, k = 0.091291
         2         3         4     1      110.246338      546.471476    ;  uncertainty theta = 0.002854, k = 0.106854
         2         3        26     1      108.185547      399.606060    ;  uncertainty theta = 0.001628, k = 0.129027
         2         3        27     1      108.185547      399.606060    ;  uncertainty theta = 0.001628, k = 0.129027
         3         2        24     1      108.883324      414.526276    ;  uncertainty theta = 0.003534, k = 0.109424
         3         2        25     1      108.883324      414.526276    ;  uncertainty theta = 0.003534, k = 0.109424
         3         4         5     1      110.758156      579.433309    ;  uncertainty theta = 0.006554, k = 0.204301
         3         4        22     1      107.278976      685.372092    ;  uncertainty theta = 0.005309, k = 0.324780
         3         4        23     1      111.951096      573.556198    ;  uncertainty theta = 0.003615, k = 0.042900
         4         3        26     1      107.188622      391.727607    ;  uncertainty theta = 0.002259, k = 0.172799
         4         3        27     1      107.188622      391.727607    ;  uncertainty theta = 0.002259, k = 0.172799
         4         5         6     1      110.246338      546.471476    ;  uncertainty theta = 0.002854, k = 0.106854
         4         5        28     1      107.188622      391.727607    ;  uncertainty theta = 0.002259, k = 0.172799
         4         5        29     1      107.188622      391.727607    ;  uncertainty theta = 0.002259, k = 0.172799
         4        22        35     1      110.464333      409.034616    ;  uncertainty theta = 0.003988, k = 0.162351
         4        22        39     1      110.464333      409.034616    ;  uncertainty theta = 0.003988, k = 0.162351
         4        22        46     1      110.464333      409.034616    ;  uncertainty theta = 0.003988, k = 0.162351
         4        23        36     1      107.456223      389.152764    ;  uncertainty theta = 0.000505, k = 0.034813
         4        23        37     1      107.456223      389.152764    ;  uncertainty theta = 0.000505, k = 0.034813
         4        23        38     1      107.456223      389.152764    ;  uncertainty theta = 0.000505, k = 0.034813
         5         4        22     1      107.278976      685.372092    ;  uncertainty theta = 0.005309, k = 0.324780
         5         4        23     1      111.951096      573.556198    ;  uncertainty theta = 0.003615, k = 0.042900
         5         6        30     1      108.883324      414.526276    ;  uncertainty theta = 0.003534, k = 0.109424
         5         6        31     1      108.883324      414.526276    ;  uncertainty theta = 0.003534, k = 0.109424
         6         1        16     1      110.313477      436.064849    ;  uncertainty theta = 0.005991, k = 0.091291
         6         5        28     1      108.185547      399.606060    ;  uncertainty theta = 0.001628, k = 0.129027
         6         5        29     1      108.185547      399.606060    ;  uncertainty theta = 0.001628, k = 0.129027
         7         8         9     1      126.388329      395.363165    ;  uncertainty theta = 0.003088, k = 0.176931
         7         8        20     1      117.079056      422.983879    ;  uncertainty theta = 0.005954, k = 0.104652
         7        12        11     1      120.586136      521.690106    ;  uncertainty theta = 0.001246, k = 0.053258
         7        12        34     1      118.754799      277.629877    ;  uncertainty theta = 0.002757, k = 0.079466
         7        13        14     1      123.582443      401.977276    ;  uncertainty theta = 0.004761, k = 0.237818
         7        13        18     1      121.535133      352.236063    ;  uncertainty theta = 0.004120, k = 0.358630
         8         7        12     1      120.228783      393.632771    ;  uncertainty theta = 0.003479, k = 0.189372
         8         7        13     1      121.436264      381.353762    ;  uncertainty theta = 0.005621, k = 0.131679
         8         9        10     1      119.133255      436.755563    ;  uncertainty theta = 0.002299, k = 0.068831
         8         9        19     1      119.816574      399.760975    ;  uncertainty theta = 0.000898, k = 0.270399
         9         8        20     1      117.712448      435.715533    ;  uncertainty theta = 0.003983, k = 0.078308
         9        10        11     1      120.822548      517.621949    ;  uncertainty theta = 0.002499, k = 0.032703
         9        10        32     1      117.940720      275.311778    ;  uncertainty theta = 0.002356, k = 0.114459
         9        19        43     1      109.626724      394.896634    ;  uncertainty theta = 0.000795, k = 0.052846
         9        19        44     1      109.626724      394.896634    ;  uncertainty theta = 0.000795, k = 0.052846
         9        19        45     1      109.626724      394.896634    ;  uncertainty theta = 0.000795, k = 0.052846
        10         9        19     1      120.958908      423.800588    ;  uncertainty theta = 0.001227, k = 0.078340
        10        11        12     1      118.948563      513.191643    ;  uncertainty theta = 0.001726, k = 0.059550
        10        11        33     1      120.627930      287.206676    ;  uncertainty theta = 0.001105, k = 0.035487
        11        10        32     1      120.392555      289.087037    ;  uncertainty theta = 0.001233, k = 0.039482
        11        12        34     1      120.919106      293.521588    ;  uncertainty theta = 0.000763, k = 0.043950
        12         7        13     1      122.339493      433.288454    ;  uncertainty theta = 0.005172, k = 0.172710
        12        11        33     1      120.383583      284.734747    ;  uncertainty theta = 0.000640, k = 0.040993
        13        14        15     1      124.073265      717.938035    ;  uncertainty theta = 0.002629, k = 0.172892
        13        14        41     1      119.579834      262.290118    ;  uncertainty theta = 0.003476, k = 0.136022
        13        18        17     1      122.311424      540.199882    ;  uncertainty theta = 0.007810, k = 0.157100
        13        18        21     1      125.312363      513.720166    ;  uncertainty theta = 0.003543, k = 0.204656
        14        13        18     1      116.989624      436.582167    ;  uncertainty theta = 0.014816, k = 0.921555
        14        15        16     1      115.553734      414.220246    ;  uncertainty theta = 0.006755, k = 0.240495
        15        14        41     1      116.537865      323.396814    ;  uncertainty theta = 0.004078, k = 0.146978
        15        16        17     1      128.528290      730.251199    ;  uncertainty theta = 0.003716, k = 0.077391
        16        17        18     1      122.433716      478.394938    ;  uncertainty theta = 0.005735, k = 0.203370
        17        18        21     1      125.528793      903.169543    ;  uncertainty theta = 0.004935, k = 0.070068
        18        21        40     1      118.192444      415.370341    ;  uncertainty theta = 0.001830, k = 0.144658
        18        21        42     1      118.192444      415.370341    ;  uncertainty theta = 0.001830, k = 0.144658
        22         4        23     1      107.732376      711.715791    ;  uncertainty theta = 0.003143, k = 0.202828
        24         2        25     1      105.643227      323.899161    ;  uncertainty theta = 0.003009, k = 0.029640
        26         3        27     1      106.079811      314.629541    ;  uncertainty theta = 0.002798, k = 0.097750
        28         5        29     1      106.079811      314.629541    ;  uncertainty theta = 0.002798, k = 0.097750
        30         6        31     1      105.643227      323.899224    ;  uncertainty theta = 0.003009, k = 0.029639
        35        22        39     1      108.017105      374.242188    ;  uncertainty theta = 0.003302, k = 0.129446
        35        22        46     1      108.017105      374.242188    ;  uncertainty theta = 0.003302, k = 0.129446
        36        23        37     1      105.936523      319.817118    ;  uncertainty theta = 0.000605, k = 0.051303
        36        23        38     1      105.936523      319.817118    ;  uncertainty theta = 0.000605, k = 0.051303
        37        23        38     1      105.936523      319.817118    ;  uncertainty theta = 0.000605, k = 0.051303
        39        22        46     1      108.017105      374.242252    ;  uncertainty theta = 0.003302, k = 0.129446
        40        21        42     1      107.953087      275.511637    ;  uncertainty theta = 0.001193, k = 0.067996
        43        19        44     1      106.784622      316.932126    ;  uncertainty theta = 0.000885, k = 0.018266
        43        19        45     1      106.784622      316.932126    ;  uncertainty theta = 0.000885, k = 0.018266
        44        19        45     1      106.784622      316.932126    ;  uncertainty theta = 0.000885, k = 0.018266

[ dihedrals ] ; propers for gromacs 4.5 or higher, use funct 9
;       ai        aj        ak        al funct           phase               k        pn
         1         2         3         4     9        0.000000        3.479794         1    ;  uncertainty k = 2.631245
         1         2         3         4     9      180.000000       -4.414620         2    ;  uncertainty k = 0.895315
         1         2         3         4     9        0.000000        1.951912         3    ;  uncertainty k = 0.250640
         1         2         3         4     9      180.000000       -0.432234         4    ;  uncertainty k = 0.279775
         1         2         3        26     9        0.000000       -1.904475         1    ;  uncertainty k = 1.110761
         1         2         3        26     9      180.000000        0.320118         2    ;  uncertainty k = 0.432128
         1         2         3        26     9        0.000000        1.283059         3    ;  uncertainty k = 0.346519
         1         2         3        26     9      180.000000       -0.248889         4    ;  uncertainty k = 0.091362
         1         2         3        27     9        0.000000       -1.904475         1    ;  uncertainty k = 1.110761
         1         2         3        27     9      180.000000        0.320118         2    ;  uncertainty k = 0.432128
         1         2         3        27     9        0.000000        1.283059         3    ;  uncertainty k = 0.346519
         1         2         3        27     9      180.000000       -0.248889         4    ;  uncertainty k = 0.091362
         1         6         5         4     9        0.000000        3.479794         1    ;  uncertainty k = 2.631245
         1         6         5         4     9      180.000000       -4.414620         2    ;  uncertainty k = 0.895315
         1         6         5         4     9        0.000000        1.951912         3    ;  uncertainty k = 0.250640
         1         6         5         4     9      180.000000       -0.432234         4    ;  uncertainty k = 0.279775
         1         6         5        28     9        0.000000       -1.904475         1    ;  uncertainty k = 1.110761
         1         6         5        28     9      180.000000        0.320118         2    ;  uncertainty k = 0.432128
         1         6         5        28     9        0.000000        1.283059         3    ;  uncertainty k = 0.346519
         1         6         5        28     9      180.000000       -0.248889         4    ;  uncertainty k = 0.091362
         1         6         5        29     9        0.000000       -1.904475         1    ;  uncertainty k = 1.110761
         1         6         5        29     9      180.000000        0.320118         2    ;  uncertainty k = 0.432128
         1         6         5        29     9        0.000000        1.283059         3    ;  uncertainty k = 0.346519
         1         6         5        29     9      180.000000       -0.248889         4    ;  uncertainty k = 0.091362
         1        16        15        14     9        0.000000        0.817908         1    ;  uncertainty k = 1.768173
         1        16        15        14     9      180.000000        9.917844         2    ;  uncertainty k = 0.165988
         1        16        15        14     9        0.000000        1.510591         3    ;  uncertainty k = 0.582878
         1        16        15        14     9      180.000000        0.782227         4    ;  uncertainty k = 0.175612
         1        16        17        18     9        0.000000        0.748192         1    ;  uncertainty k = 1.163722
         1        16        17        18     9      180.000000        9.986481         2    ;  uncertainty k = 0.538236
         1        16        17        18     9        0.000000        1.552615         3    ;  uncertainty k = 0.309373
         1        16        17        18     9      180.000000        0.788152         4    ;  uncertainty k = 0.256848
         2         1         6         5     9        0.000000       -6.396973         1    ;  uncertainty k = 2.175872
         2         1         6         5     9      180.000000        1.538835         2    ;  uncertainty k = 0.773480
         2         1         6         5     9        0.000000        1.176906         3    ;  uncertainty k = 0.288771
         2         1         6         5     9      180.000000       -0.468910         4    ;  uncertainty k = 0.183517
         2         1         6        30     9        0.000000       -6.047318         1    ;  uncertainty k = 1.982148
         2         1         6        30     9      180.000000        0.993137         2    ;  uncertainty k = 0.489808
         2         1         6        30     9        0.000000        0.822683         3    ;  uncertainty k = 0.044513
         2         1         6        30     9      180.000000       -0.076732         4    ;  uncertainty k = 0.063310
         2         1         6        31     9        0.000000       -6.047318         1    ;  uncertainty k = 1.982148
         2         1         6        31     9      180.000000        0.993137         2    ;  uncertainty k = 0.489808
         2         1         6        31     9        0.000000        0.822683         3    ;  uncertainty k = 0.044513
         2         1         6        31     9      180.000000       -0.076732         4    ;  uncertainty k = 0.063310
         2         1        16        15     9        0.000000        4.882808         1    ;  uncertainty k = 1.131647
         2         1        16        15     9      180.000000       11.319773         2    ;  uncertainty k = 0.167099
         2         1        16        15     9        0.000000        0.481285         3    ;  uncertainty k = 0.234023
         2         1        16        15     9      180.000000       -0.188826         4    ;  uncertainty k = 0.100452
         2         1        16        17     9        0.000000        6.565185         1    ;  uncertainty k = 0.899569
         2         1        16        17     9      180.000000       11.421565         2    ;  uncertainty k = 0.120462
         2         1        16        17     9        0.000000        0.503067         3    ;  uncertainty k = 0.148506
         2         1        16        17     9      180.000000       -0.224790         4    ;  uncertainty k = 0.103442
         2         3         4         5     9        0.000000       -1.995785         1    ;  uncertainty k = 1.854286
         2         3         4         5     9      180.000000        0.461226         2    ;  uncertainty k = 0.623979
         2         3         4         5     9        0.000000        0.633424         3    ;  uncertainty k = 0.430864
         2         3         4         5     9      180.000000       -1.000696         4    ;  uncertainty k = 0.199219
         2         3         4        22     9        0.000000       -4.922189         1    ;  uncertainty k = 1.419897
         2         3         4        22     9      180.000000       -1.288662         2    ;  uncertainty k = 1.614288
         2         3         4        22     9        0.000000        1.032740         3    ;  uncertainty k = 0.323245
         2         3         4        22     9      180.000000        0.204775         4    ;  uncertainty k = 0.137621
         2         3         4        23     9        0.000000       -4.846863         1    ;  uncertainty k = 0.953612
         2         3         4        23     9      180.000000        1.255315         2    ;  uncertainty k = 0.483535
         2         3         4        23     9        0.000000        0.497226         3    ;  uncertainty k = 0.328814
         2         3         4        23     9      180.000000       -0.186222         4    ;  uncertainty k = 0.107604
         3         2         1         6     9        0.000000       -6.396973         1    ;  uncertainty k = 2.175872
         3         2         1         6     9      180.000000        1.538835         2    ;  uncertainty k = 0.773480
         3         2         1         6     9        0.000000        1.176906         3    ;  uncertainty k = 0.288771
         3         2         1         6     9      180.000000       -0.468910         4    ;  uncertainty k = 0.183517
         3         2         1        16     9        0.000000       -3.658726         1    ;  uncertainty k = 0.848563
         3         2         1        16     9      180.000000        0.873176         2    ;  uncertainty k = 0.535365
         3         2         1        16     9        0.000000        0.040815         3    ;  uncertainty k = 0.264460
         3         2         1        16     9      180.000000        0.238036         4    ;  uncertainty k = 0.151405
         3         4         5         6     9        0.000000       -1.995785         1    ;  uncertainty k = 1.854286
         3         4         5         6     9      180.000000        0.461226         2    ;  uncertainty k = 0.623979
         3         4         5         6     9        0.000000        0.633424         3    ;  uncertainty k = 0.430864
         3         4         5         6     9      180.000000       -1.000696         4    ;  uncertainty k = 0.199219
         3         4         5        28     9        0.000000       -1.041765         1    ;  uncertainty k = 0.265447
         3         4         5        28     9      180.000000       -0.356594         2    ;  uncertainty k = 0.191548
         3         4         5        28     9        0.000000       -0.007680         3    ;  uncertainty k = 0.093809
         3         4         5        28     9      180.000000       -0.100570         4    ;  uncertainty k = 0.058705
         3         4         5        29     9        0.000000       -1.041765         1    ;  uncertainty k = 0.265447
         3         4         5        29     9      180.000000       -0.356594         2    ;  uncertainty k = 0.191548
         3         4         5        29     9        0.000000       -0.007680         3    ;  uncertainty k = 0.093809
         3         4         5        29     9      180.000000       -0.100570         4    ;  uncertainty k = 0.058705
         3         4        22        35     9        0.000000       -0.378619         1    ;  uncertainty k = 1.202867
         3         4        22        35     9      180.000000       -0.218969         2    ;  uncertainty k = 0.263350
         3         4        22        35     9        0.000000        0.752336         3    ;  uncertainty k = 0.133799
         3         4        22        35     9      180.000000       -0.117477         4    ;  uncertainty k = 0.099713
         3         4        22        39     9        0.000000       -0.378618         1    ;  uncertainty k = 1.202868
         3         4        22        39     9      180.000000       -0.218968         2    ;  uncertainty k = 0.263352
         3         4        22        39     9        0.000000        0.752335         3    ;  uncertainty k = 0.133799
         3         4        22        39     9      180.000000       -0.117476         4    ;  uncertainty k = 0.099713
         3         4        22        46     9        0.000000       -0.378618         1    ;  uncertainty k = 1.202868
         3         4        22        46     9      180.000000       -0.218968         2    ;  uncertainty k = 0.263352
         3         4        22        46     9        0.000000        0.752335         3    ;  uncertainty k = 0.133799
         3         4        22        46     9      180.000000       -0.117476         4    ;  uncertainty k = 0.099713
         3         4        23        36     9        0.000000       -0.914078         1    ;  uncertainty k = 0.356129
         3         4        23        36     9      180.000000       -0.481012         2    ;  uncertainty k = 0.207165
         3         4        23        36     9        0.000000        0.542170         3    ;  uncertainty k = 0.077000
         3         4        23        36     9      180.000000       -0.146042         4    ;  uncertainty k = 0.059767
         3         4        23        37     9        0.000000       -0.914078         1    ;  uncertainty k = 0.356129
         3         4        23        37     9      180.000000       -0.481012         2    ;  uncertainty k = 0.207165
         3         4        23        37     9        0.000000        0.542170         3    ;  uncertainty k = 0.077000
         3         4        23        37     9      180.000000       -0.146042         4    ;  uncertainty k = 0.059767
         3         4        23        38     9        0.000000       -0.914078         1    ;  uncertainty k = 0.356129
         3         4        23        38     9      180.000000       -0.481012         2    ;  uncertainty k = 0.207165
         3         4        23        38     9        0.000000        0.542170         3    ;  uncertainty k = 0.077000
         3         4        23        38     9      180.000000       -0.146042         4    ;  uncertainty k = 0.059767
         4         3         2        24     9        0.000000        2.805143         1    ;  uncertainty k = 1.342924
         4         3         2        24     9      180.000000       -2.640033         2    ;  uncertainty k = 0.200970
         4         3         2        24     9        0.000000        0.068377         3    ;  uncertainty k = 0.137352
         4         3         2        24     9      180.000000        0.232543         4    ;  uncertainty k = 0.063819
         4         3         2        25     9        0.000000        2.805144         1    ;  uncertainty k = 1.342924
         4         3         2        25     9      180.000000       -2.640033         2    ;  uncertainty k = 0.200971
         4         3         2        25     9        0.000000        0.068377         3    ;  uncertainty k = 0.137352
         4         3         2        25     9      180.000000        0.232543         4    ;  uncertainty k = 0.063819
         4         5         6        30     9        0.000000        2.805144         1    ;  uncertainty k = 1.342924
         4         5         6        30     9      180.000000       -2.640033         2    ;  uncertainty k = 0.200971
         4         5         6        30     9        0.000000        0.068377         3    ;  uncertainty k = 0.137352
         4         5         6        30     9      180.000000        0.232543         4    ;  uncertainty k = 0.063819
         4         5         6        31     9        0.000000        2.805144         1    ;  uncertainty k = 1.342924
         4         5         6        31     9      180.000000       -2.640033         2    ;  uncertainty k = 0.200971
         4         5         6        31     9        0.000000        0.068377         3    ;  uncertainty k = 0.137352
         4         5         6        31     9      180.000000        0.232543         4    ;  uncertainty k = 0.063819
         5         4         3        26     9        0.000000       -1.041765         1    ;  uncertainty k = 0.265447
         5         4         3        26     9      180.000000       -0.356594         2    ;  uncertainty k = 0.191548
         5         4         3        26     9        0.000000       -0.007680         3    ;  uncertainty k = 0.093809
         5         4         3        26     9      180.000000       -0.100570         4    ;  uncertainty k = 0.058705
         5         4         3        27     9        0.000000       -1.041765         1    ;  uncertainty k = 0.265447
         5         4         3        27     9      180.000000       -0.356594         2    ;  uncertainty k = 0.191548
         5         4         3        27     9        0.000000       -0.007680         3    ;  uncertainty k = 0.093809
         5         4         3        27     9      180.000000       -0.100570         4    ;  uncertainty k = 0.058705
         5         4        22        35     9        0.000000       -0.378619         1    ;  uncertainty k = 1.202867
         5         4        22        35     9      180.000000       -0.218969         2    ;  uncertainty k = 0.263350
         5         4        22        35     9        0.000000        0.752336         3    ;  uncertainty k = 0.133799
         5         4        22        35     9      180.000000       -0.117477         4    ;  uncertainty k = 0.099713
         5         4        22        39     9        0.000000       -0.378618         1    ;  uncertainty k = 1.202868
         5         4        22        39     9      180.000000       -0.218968         2    ;  uncertainty k = 0.263352
         5         4        22        39     9        0.000000        0.752335         3    ;  uncertainty k = 0.133799
         5         4        22        39     9      180.000000       -0.117476         4    ;  uncertainty k = 0.099713
         5         4        22        46     9        0.000000       -0.378618         1    ;  uncertainty k = 1.202868
         5         4        22        46     9      180.000000       -0.218968         2    ;  uncertainty k = 0.263352
         5         4        22        46     9        0.000000        0.752335         3    ;  uncertainty k = 0.133799
         5         4        22        46     9      180.000000       -0.117476         4    ;  uncertainty k = 0.099713
         5         4        23        36     9        0.000000       -0.914078         1    ;  uncertainty k = 0.356129
         5         4        23        36     9      180.000000       -0.481012         2    ;  uncertainty k = 0.207165
         5         4        23        36     9        0.000000        0.542170         3    ;  uncertainty k = 0.077000
         5         4        23        36     9      180.000000       -0.146042         4    ;  uncertainty k = 0.059767
         5         4        23        37     9        0.000000       -0.914078         1    ;  uncertainty k = 0.356129
         5         4        23        37     9      180.000000       -0.481012         2    ;  uncertainty k = 0.207165
         5         4        23        37     9        0.000000        0.542170         3    ;  uncertainty k = 0.077000
         5         4        23        37     9      180.000000       -0.146042         4    ;  uncertainty k = 0.059767
         5         4        23        38     9        0.000000       -0.914078         1    ;  uncertainty k = 0.356129
         5         4        23        38     9      180.000000       -0.481012         2    ;  uncertainty k = 0.207165
         5         4        23        38     9        0.000000        0.542170         3    ;  uncertainty k = 0.077000
         5         4        23        38     9      180.000000       -0.146042         4    ;  uncertainty k = 0.059767
         5         6         1        16     9        0.000000       -3.658726         1    ;  uncertainty k = 0.848563
         5         6         1        16     9      180.000000        0.873176         2    ;  uncertainty k = 0.535365
         5         6         1        16     9        0.000000        0.040815         3    ;  uncertainty k = 0.264460
         5         6         1        16     9      180.000000        0.238036         4    ;  uncertainty k = 0.151405
         6         1         2        24     9        0.000000       -6.047318         1    ;  uncertainty k = 1.982150
         6         1         2        24     9      180.000000        0.993138         2    ;  uncertainty k = 0.489809
         6         1         2        24     9        0.000000        0.822682         3    ;  uncertainty k = 0.044513
         6         1         2        24     9      180.000000       -0.076732         4    ;  uncertainty k = 0.063310
         6         1         2        25     9        0.000000       -6.047318         1    ;  uncertainty k = 1.982148
         6         1         2        25     9      180.000000        0.993137         2    ;  uncertainty k = 0.489808
         6         1         2        25     9        0.000000        0.822683         3    ;  uncertainty k = 0.044513
         6         1         2        25     9      180.000000       -0.076732         4    ;  uncertainty k = 0.063310
         6         1        16        15     9        0.000000        4.882808         1    ;  uncertainty k = 1.131647
         6         1        16        15     9      180.000000       11.319773         2    ;  uncertainty k = 0.167099
         6         1        16        15     9        0.000000        0.481285         3    ;  uncertainty k = 0.234023
         6         1        16        15     9      180.000000       -0.188826         4    ;  uncertainty k = 0.100452
         6         1        16        17     9        0.000000        6.565185         1    ;  uncertainty k = 0.899569
         6         1        16        17     9      180.000000       11.421565         2    ;  uncertainty k = 0.120462
         6         1        16        17     9        0.000000        0.503067         3    ;  uncertainty k = 0.148506
         6         1        16        17     9      180.000000       -0.224790         4    ;  uncertainty k = 0.103442
         6         5         4        22     9        0.000000       -4.922189         1    ;  uncertainty k = 1.419897
         6         5         4        22     9      180.000000       -1.288662         2    ;  uncertainty k = 1.614288
         6         5         4        22     9        0.000000        1.032740         3    ;  uncertainty k = 0.323245
         6         5         4        22     9      180.000000        0.204775         4    ;  uncertainty k = 0.137621
         6         5         4        23     9        0.000000       -4.846863         1    ;  uncertainty k = 0.953612
         6         5         4        23     9      180.000000        1.255315         2    ;  uncertainty k = 0.483535
         6         5         4        23     9        0.000000        0.497226         3    ;  uncertainty k = 0.328814
         6         5         4        23     9      180.000000       -0.186222         4    ;  uncertainty k = 0.107604
         7         8         9        10     9        0.000000       -0.050039         1    ;  uncertainty k = 0.211401
         7         8         9        10     9      180.000000        6.916855         2    ;  uncertainty k = 0.765596
         7         8         9        10     9        0.000000        0.624478         3    ;  uncertainty k = 0.214643
         7         8         9        10     9      180.000000        1.305393         4    ;  uncertainty k = 0.414516
         7         8         9        19     9        0.000000        0.121668         1    ;  uncertainty k = 0.246298
         7         8         9        19     9      180.000000        7.368532         2    ;  uncertainty k = 0.678879
         7         8         9        19     9        0.000000        1.129350         3    ;  uncertainty k = 0.261711
         7         8         9        19     9      180.000000        1.620201         4    ;  uncertainty k = 0.313585
         7        12        11        10     9        0.000000        0.047615         1    ;  uncertainty k = 0.152446
         7        12        11        10     9      180.000000       14.073475         2    ;  uncertainty k = 0.287325
         7        12        11        10     9        0.000000       -1.079601         3    ;  uncertainty k = 0.527753
         7        12        11        10     9      180.000000        0.707974         4    ;  uncertainty k = 0.241504
         7        12        11        33     9        0.000000        0.068937         1    ;  uncertainty k = 0.124069
         7        12        11        33     9      180.000000        7.263333         2    ;  uncertainty k = 0.286593
         7        12        11        33     9        0.000000        1.365898         3    ;  uncertainty k = 0.180193
         7        12        11        33     9      180.000000        1.810489         4    ;  uncertainty k = 0.114134
         7        13        14        15     9        0.000000        0.306560         1    ;  uncertainty k = 0.480106
         7        13        14        15     9      180.000000       12.725546         2    ;  uncertainty k = 0.420343
         7        13        14        15     9        0.000000        0.982572         3    ;  uncertainty k = 0.325573
         7        13        14        15     9      180.000000        1.417501         4    ;  uncertainty k = 0.260342
         7        13        14        41     9        0.000000       -0.566435         1    ;  uncertainty k = 0.683889
         7        13        14        41     9      180.000000        6.643602         2    ;  uncertainty k = 0.463227
         7        13        14        41     9        0.000000        0.940188         3    ;  uncertainty k = 0.163932
         7        13        14        41     9      180.000000        1.172203         4    ;  uncertainty k = 0.149375
         7        13        18        17     9        0.000000        0.630377         1    ;  uncertainty k = 0.540743
         7        13        18        17     9      180.000000        6.689526         2    ;  uncertainty k = 1.085702
         7        13        18        17     9        0.000000        0.718314         3    ;  uncertainty k = 0.143756
         7        13        18        17     9      180.000000        1.355470         4    ;  uncertainty k = 0.404319
         7        13        18        21     9        0.000000        0.268459         1    ;  uncertainty k = 1.123946
         7        13        18        21     9      180.000000        7.020549         2    ;  uncertainty k = 0.868809
         7        13        18        21     9        0.000000        0.604576         3    ;  uncertainty k = 0.339632
         7        13        18        21     9      180.000000        0.897683         4    ;  uncertainty k = 0.229424
         8         7        12        11     9        0.000000       -0.076592         1    ;  uncertainty k = 0.230824
         8         7        12        11     9      180.000000       11.151023         2    ;  uncertainty k = 0.401270
         8         7        12        11     9        0.000000       -0.196216         3    ;  uncertainty k = 0.449297
         8         7        12        11     9      180.000000        1.119294         4    ;  uncertainty k = 0.423264
         8         7        12        34     9        0.000000        0.205114         1    ;  uncertainty k = 0.292156
         8         7        12        34     9      180.000000        7.030750         2    ;  uncertainty k = 0.523667
         8         7        12        34     9        0.000000        1.369922         3    ;  uncertainty k = 0.239254
         8         7        12        34     9      180.000000        1.659483         4    ;  uncertainty k = 0.178887
         8         7        13        14     9        0.000000        1.319340         1    ;  uncertainty k = 0.833605
         8         7        13        14     9      180.000000        3.591008         2    ;  uncertainty k = 0.522626
         8         7        13        14     9        0.000000        0.530968         3    ;  uncertainty k = 0.186541
         8         7        13        14     9      180.000000        0.278390         4    ;  uncertainty k = 0.083208
         8         7        13        18     9        0.000000        3.685453         1    ;  uncertainty k = 0.916276
         8         7        13        18     9      180.000000        3.247036         2    ;  uncertainty k = 0.510692
         8         7        13        18     9        0.000000        1.325281         3    ;  uncertainty k = 0.508847
         8         7        13        18     9      180.000000        0.367240         4    ;  uncertainty k = 0.081337
         8         9        10        11     9        0.000000       -0.053978         1    ;  uncertainty k = 0.213032
         8         9        10        11     9      180.000000       11.452327         2    ;  uncertainty k = 0.378119
         8         9        10        11     9        0.000000       -0.132420         3    ;  uncertainty k = 0.527899
         8         9        10        11     9      180.000000        1.059208         4    ;  uncertainty k = 0.387280
         8         9        10        32     9        0.000000        0.312648         1    ;  uncertainty k = 0.203535
         8         9        10        32     9      180.000000        7.112205         2    ;  uncertainty k = 0.270287
         8         9        10        32     9        0.000000        1.522139         3    ;  uncertainty k = 0.294321
         8         9        10        32     9      180.000000        1.724466         4    ;  uncertainty k = 0.170698
         8         9        19        43     9        0.000000        0.060561         1    ;  uncertainty k = 0.379470
         8         9        19        43     9      180.000000        2.193039         2    ;  uncertainty k = 0.205294
         8         9        19        43     9        0.000000        0.472043         3    ;  uncertainty k = 0.039948
         8         9        19        43     9      180.000000        0.379091         4    ;  uncertainty k = 0.066723
         8         9        19        44     9        0.000000        0.060561         1    ;  uncertainty k = 0.379470
         8         9        19        44     9      180.000000        2.193039         2    ;  uncertainty k = 0.205294
         8         9        19        44     9        0.000000        0.472043         3    ;  uncertainty k = 0.039948
         8         9        19        44     9      180.000000        0.379091         4    ;  uncertainty k = 0.066723
         8         9        19        45     9        0.000000        0.060561         1    ;  uncertainty k = 0.379470
         8         9        19        45     9      180.000000        2.193039         2    ;  uncertainty k = 0.205294
         8         9        19        45     9        0.000000        0.472043         3    ;  uncertainty k = 0.039948
         8         9        19        45     9      180.000000        0.379091         4    ;  uncertainty k = 0.066723
         9         8         7        12     9        0.000000       -0.111052         1    ;  uncertainty k = 0.476806
         9         8         7        12     9      180.000000        6.347608         2    ;  uncertainty k = 0.972441
         9         8         7        12     9        0.000000        0.532840         3    ;  uncertainty k = 0.454494
         9         8         7        12     9      180.000000        1.237068         4    ;  uncertainty k = 0.337206
         9         8         7        13     9        0.000000        0.060156         1    ;  uncertainty k = 0.439076
         9         8         7        13     9      180.000000        6.389005         2    ;  uncertainty k = 0.452232
         9         8         7        13     9        0.000000        1.279551         3    ;  uncertainty k = 0.291058
         9         8         7        13     9      180.000000        1.602633         4    ;  uncertainty k = 0.199733
         9        10        11        12     9        0.000000       -0.090278         1    ;  uncertainty k = 0.324632
         9        10        11        12     9      180.000000       13.874341         2    ;  uncertainty k = 0.314719
         9        10        11        12     9        0.000000       -0.988059         3    ;  uncertainty k = 0.558985
         9        10        11        12     9      180.000000        0.694138         4    ;  uncertainty k = 0.257854
         9        10        11        33     9        0.000000        0.144660         1    ;  uncertainty k = 0.124936
         9        10        11        33     9      180.000000        7.015789         2    ;  uncertainty k = 0.287209
         9        10        11        33     9        0.000000        1.544919         3    ;  uncertainty k = 0.219938
         9        10        11        33     9      180.000000        1.800339         4    ;  uncertainty k = 0.137651
        10         9         8        20     9        0.000000        0.129812         1    ;  uncertainty k = 0.256510
        10         9         8        20     9      180.000000        8.671394         2    ;  uncertainty k = 0.411806
        10         9         8        20     9        0.000000        1.406303         3    ;  uncertainty k = 0.186301
        10         9         8        20     9      180.000000        1.567088         4    ;  uncertainty k = 0.172834
        10         9        19        43     9        0.000000        0.004162         1    ;  uncertainty k = 0.117789
        10         9        19        43     9      180.000000        1.596911         2    ;  uncertainty k = 0.082658
        10         9        19        43     9        0.000000        0.232544         3    ;  uncertainty k = 0.063130
        10         9        19        43     9      180.000000        0.221667         4    ;  uncertainty k = 0.037883
        10         9        19        44     9        0.000000        0.004162         1    ;  uncertainty k = 0.117789
        10         9        19        44     9      180.000000        1.596911         2    ;  uncertainty k = 0.082658
        10         9        19        44     9        0.000000        0.232544         3    ;  uncertainty k = 0.063130
        10         9        19        44     9      180.000000        0.221667         4    ;  uncertainty k = 0.037883
        10         9        19        45     9        0.000000        0.004162         1    ;  uncertainty k = 0.117789
        10         9        19        45     9      180.000000        1.596911         2    ;  uncertainty k = 0.082658
        10         9        19        45     9        0.000000        0.232544         3    ;  uncertainty k = 0.063130
        10         9        19        45     9      180.000000        0.221667         4    ;  uncertainty k = 0.037883
        10        11        12        34     9        0.000000        0.106506         1    ;  uncertainty k = 0.055959
        10        11        12        34     9      180.000000        7.923190         2    ;  uncertainty k = 0.262499
        10        11        12        34     9        0.000000        1.384583         3    ;  uncertainty k = 0.311779
        10        11        12        34     9      180.000000        1.826041         4    ;  uncertainty k = 0.190433
        11        10         9        19     9        0.000000        0.171458         1    ;  uncertainty k = 0.196047
        11        10         9        19     9      180.000000       10.478310         2    ;  uncertainty k = 0.477402
        11        10         9        19     9        0.000000        1.336707         3    ;  uncertainty k = 0.232896
        11        10         9        19     9      180.000000        1.771504         4    ;  uncertainty k = 0.157520
        11        12         7        13     9        0.000000        0.043203         1    ;  uncertainty k = 0.247276
        11        12         7        13     9      180.000000        9.460551         2    ;  uncertainty k = 0.676061
        11        12         7        13     9        0.000000        1.164430         3    ;  uncertainty k = 0.418308
        11        12         7        13     9      180.000000        1.811289         4    ;  uncertainty k = 0.295316
        12         7         8        20     9        0.000000       -0.034397         1    ;  uncertainty k = 0.342325
        12         7         8        20     9      180.000000        8.076292         2    ;  uncertainty k = 0.454735
        12         7         8        20     9        0.000000        1.403047         3    ;  uncertainty k = 0.382022
        12         7         8        20     9      180.000000        1.517696         4    ;  uncertainty k = 0.232215
        12         7        13        14     9        0.000000       -1.329021         1    ;  uncertainty k = 0.358894
        12         7        13        14     9      180.000000        4.791072         2    ;  uncertainty k = 0.281248
        12         7        13        14     9        0.000000        0.642501         3    ;  uncertainty k = 0.379797
        12         7        13        14     9      180.000000        0.302761         4    ;  uncertainty k = 0.111098
        12         7        13        18     9        0.000000        0.482302         1    ;  uncertainty k = 1.077725
        12         7        13        18     9      180.000000        4.651709         2    ;  uncertainty k = 0.604740
        12         7        13        18     9        0.000000        0.587301         3    ;  uncertainty k = 0.324889
        12         7        13        18     9      180.000000        0.572753         4    ;  uncertainty k = 0.107232
        12        11        10        32     9        0.000000        0.214337         1    ;  uncertainty k = 0.149866
        12        11        10        32     9      180.000000        7.706350         2    ;  uncertainty k = 0.311175
        12        11        10        32     9        0.000000        1.446611         3    ;  uncertainty k = 0.265098
        12        11        10        32     9      180.000000        1.824020         4    ;  uncertainty k = 0.183553
        13         7         8        20     9        0.000000       -0.249792         1    ;  uncertainty k = 0.804715
        13         7         8        20     9      180.000000        7.898563         2    ;  uncertainty k = 0.196222
        13         7         8        20     9        0.000000        1.135854         3    ;  uncertainty k = 0.344936
        13         7         8        20     9      180.000000        1.439732         4    ;  uncertainty k = 0.249732
        13         7        12        34     9        0.000000       -0.143395         1    ;  uncertainty k = 0.165674
        13         7        12        34     9      180.000000        7.359327         2    ;  uncertainty k = 0.368130
        13         7        12        34     9        0.000000        0.869564         3    ;  uncertainty k = 0.355464
        13         7        12        34     9      180.000000        1.246633         4    ;  uncertainty k = 0.272703
        13        14        15        16     9        0.000000       -0.674041         1    ;  uncertainty k = 0.502837
        13        14        15        16     9      180.000000       16.428408         2    ;  uncertainty k = 0.668873
        13        14        15        16     9        0.000000       -0.393909         3    ;  uncertainty k = 0.696239
        13        14        15        16     9      180.000000        1.424543         4    ;  uncertainty k = 0.588993
        13        18        17        16     9        0.000000        0.646645         1    ;  uncertainty k = 1.507069
        13        18        17        16     9      180.000000       11.162361         2    ;  uncertainty k = 0.685580
        13        18        17        16     9        0.000000        0.596767         3    ;  uncertainty k = 0.776379
        13        18        17        16     9      180.000000        1.118269         4    ;  uncertainty k = 0.446613
        13        18        21        40     9        0.000000       14.661603         1    ;  uncertainty k = 0.306323
        13        18        21        40     9      180.000000        7.463361         2    ;  uncertainty k = 0.440374
        13        18        21        40     9        0.000000        0.789369         3    ;  uncertainty k = 0.177205
        13        18        21        40     9      180.000000       -0.149133         4    ;  uncertainty k = 0.064424
        13        18        21        42     9        0.000000       14.661603         1    ;  uncertainty k = 0.306323
        13        18        21        42     9      180.000000        7.463361         2    ;  uncertainty k = 0.440374
        13        18        21        42     9        0.000000        0.789369         3    ;  uncertainty k = 0.177205
        13        18        21        42     9      180.000000       -0.149133         4    ;  uncertainty k = 0.064424
        14        13        18        17     9        0.000000       -0.261140         1    ;  uncertainty k = 0.752992
        14        13        18        17     9      180.000000        6.383327         2    ;  uncertainty k = 1.088590
        14        13        18        17     9        0.000000       -0.781104         3    ;  uncertainty k = 0.357714
        14        13        18        17     9      180.000000        0.902431         4    ;  uncertainty k = 0.402477
        14        13        18        21     9        0.000000       -0.893891         1    ;  uncertainty k = 0.777141
        14        13        18        21     9      180.000000        5.654232         2    ;  uncertainty k = 0.444591
        14        13        18        21     9        0.000000        0.494883         3    ;  uncertainty k = 0.385522
        14        13        18        21     9      180.000000        0.761208         4    ;  uncertainty k = 0.206421
        14        15        16        17     9        0.000000        0.001312         1    ;  uncertainty k = 1.334869
        14        15        16        17     9      180.000000        8.804750         2    ;  uncertainty k = 0.576227
        14        15        16        17     9        0.000000        0.726444         3    ;  uncertainty k = 0.520700
        14        15        16        17     9      180.000000        0.693231         4    ;  uncertainty k = 0.161402
        15        14        13        18     9        0.000000        0.170086         1    ;  uncertainty k = 0.689455
        15        14        13        18     9      180.000000       15.590064         2    ;  uncertainty k = 0.553127
        15        14        13        18     9        0.000000       -0.869250         3    ;  uncertainty k = 0.539994
        15        14        13        18     9      180.000000        0.850875         4    ;  uncertainty k = 0.189997
        15        16        17        18     9        0.000000       -0.443868         1    ;  uncertainty k = 0.933777
        15        16        17        18     9      180.000000        8.439826         2    ;  uncertainty k = 0.475905
        15        16        17        18     9        0.000000        1.077033         3    ;  uncertainty k = 0.357989
        15        16        17        18     9      180.000000        0.617525         4    ;  uncertainty k = 0.233967
        16         1         2        24     9        0.000000       -0.423285         1    ;  uncertainty k = 0.572898
        16         1         2        24     9      180.000000        0.236077         2    ;  uncertainty k = 0.260960
        16         1         2        24     9        0.000000       -0.029170         3    ;  uncertainty k = 0.096187
        16         1         2        24     9      180.000000        0.276275         4    ;  uncertainty k = 0.037777
        16         1         2        25     9        0.000000       -0.423284         1    ;  uncertainty k = 0.572899
        16         1         2        25     9      180.000000        0.236076         2    ;  uncertainty k = 0.260960
        16         1         2        25     9        0.000000       -0.029170         3    ;  uncertainty k = 0.096187
        16         1         2        25     9      180.000000        0.276275         4    ;  uncertainty k = 0.037777
        16         1         6        30     9        0.000000       -0.423284         1    ;  uncertainty k = 0.572899
        16         1         6        30     9      180.000000        0.236076         2    ;  uncertainty k = 0.260960
        16         1         6        30     9        0.000000       -0.029170         3    ;  uncertainty k = 0.096187
        16         1         6        30     9      180.000000        0.276275         4    ;  uncertainty k = 0.037777
        16         1         6        31     9        0.000000       -0.423284         1    ;  uncertainty k = 0.572899
        16         1         6        31     9      180.000000        0.236076         2    ;  uncertainty k = 0.260960
        16         1         6        31     9        0.000000       -0.029170         3    ;  uncertainty k = 0.096187
        16         1         6        31     9      180.000000        0.276275         4    ;  uncertainty k = 0.037777
        16        15        14        41     9        0.000000       -0.595825         1    ;  uncertainty k = 0.846289
        16        15        14        41     9      180.000000       15.847665         2    ;  uncertainty k = 0.601484
        16        15        14        41     9        0.000000        1.531909         3    ;  uncertainty k = 0.703194
        16        15        14        41     9      180.000000        1.181239         4    ;  uncertainty k = 0.617173
        16        17        18        21     9        0.000000        0.394473         1    ;  uncertainty k = 1.266258
        16        17        18        21     9      180.000000       15.313969         2    ;  uncertainty k = 0.318246
        16        17        18        21     9        0.000000        2.561161         3    ;  uncertainty k = 0.516633
        16        17        18        21     9      180.000000        1.861309         4    ;  uncertainty k = 0.375488
        17        18        21        40     9        0.000000       20.733106         1    ;  uncertainty k = 0.257632
        17        18        21        40     9      180.000000       12.720319         2    ;  uncertainty k = 0.157223
        17        18        21        40     9        0.000000        0.630492         3    ;  uncertainty k = 0.132648
        17        18        21        40     9      180.000000       -0.490804         4    ;  uncertainty k = 0.222648
        17        18        21        42     9        0.000000       20.733106         1    ;  uncertainty k = 0.257632
        17        18        21        42     9      180.000000       12.720319         2    ;  uncertainty k = 0.157223
        17        18        21        42     9        0.000000        0.630492         3    ;  uncertainty k = 0.132648
        17        18        21        42     9      180.000000       -0.490804         4    ;  uncertainty k = 0.222648
        18        13        14        41     9        0.000000       -0.540885         1    ;  uncertainty k = 0.552829
        18        13        14        41     9      180.000000        6.712205         2    ;  uncertainty k = 0.728807
        18        13        14        41     9        0.000000        0.803213         3    ;  uncertainty k = 0.338116
        18        13        14        41     9      180.000000        1.208511         4    ;  uncertainty k = 0.163694
        19         9         8        20     9        0.000000        0.043913         1    ;  uncertainty k = 0.441815
        19         9         8        20     9      180.000000        9.187405         2    ;  uncertainty k = 0.294185
        19         9         8        20     9        0.000000        0.937875         3    ;  uncertainty k = 0.272269
        19         9         8        20     9      180.000000        1.283332         4    ;  uncertainty k = 0.355399
        19         9        10        32     9        0.000000       -0.290575         1    ;  uncertainty k = 0.231758
        19         9        10        32     9      180.000000        8.409613         2    ;  uncertainty k = 0.276760
        19         9        10        32     9        0.000000        0.458227         3    ;  uncertainty k = 0.322059
        19         9        10        32     9      180.000000        0.995452         4    ;  uncertainty k = 0.130784
        22         4         3        26     9        0.000000       -0.957015         1    ;  uncertainty k = 0.777479
        22         4         3        26     9      180.000000       -1.810504         2    ;  uncertainty k = 0.431986
        22         4         3        26     9        0.000000        0.536111         3    ;  uncertainty k = 0.153239
        22         4         3        26     9      180.000000       -0.242448         4    ;  uncertainty k = 0.143920
        22         4         3        27     9        0.000000       -0.957015         1    ;  uncertainty k = 0.777479
        22         4         3        27     9      180.000000       -1.810504         2    ;  uncertainty k = 0.431986
        22         4         3        27     9        0.000000        0.536111         3    ;  uncertainty k = 0.153239
        22         4         3        27     9      180.000000       -0.242448         4    ;  uncertainty k = 0.143920
        22         4         5        28     9        0.000000       -0.957015         1    ;  uncertainty k = 0.777479
        22         4         5        28     9      180.000000       -1.810504         2    ;  uncertainty k = 0.431986
        22         4         5        28     9        0.000000        0.536111         3    ;  uncertainty k = 0.153239
        22         4         5        28     9      180.000000       -0.242448         4    ;  uncertainty k = 0.143920
        22         4         5        29     9        0.000000       -0.957015         1    ;  uncertainty k = 0.777479
        22         4         5        29     9      180.000000       -1.810504         2    ;  uncertainty k = 0.431986
        22         4         5        29     9        0.000000        0.536111         3    ;  uncertainty k = 0.153239
        22         4         5        29     9      180.000000       -0.242448         4    ;  uncertainty k = 0.143920
        22         4        23        36     9        0.000000       -1.658331         1    ;  uncertainty k = 1.431247
        22         4        23        36     9      180.000000       -2.618283         2    ;  uncertainty k = 0.451254
        22         4        23        36     9        0.000000        0.778238         3    ;  uncertainty k = 0.254190
        22         4        23        36     9      180.000000       -0.194334         4    ;  uncertainty k = 0.172569
        22         4        23        37     9        0.000000       -1.658331         1    ;  uncertainty k = 1.431247
        22         4        23        37     9      180.000000       -2.618283         2    ;  uncertainty k = 0.451254
        22         4        23        37     9        0.000000        0.778238         3    ;  uncertainty k = 0.254190
        22         4        23        37     9      180.000000       -0.194334         4    ;  uncertainty k = 0.172569
        22         4        23        38     9        0.000000       -1.658331         1    ;  uncertainty k = 1.431247
        22         4        23        38     9      180.000000       -2.618283         2    ;  uncertainty k = 0.451254
        22         4        23        38     9        0.000000        0.778238         3    ;  uncertainty k = 0.254190
        22         4        23        38     9      180.000000       -0.194334         4    ;  uncertainty k = 0.172569
        23         4         3        26     9        0.000000       -0.345184         1    ;  uncertainty k = 0.389032
        23         4         3        26     9      180.000000       -0.057710         2    ;  uncertainty k = 0.382825
        23         4         3        26     9        0.000000        0.281401         3    ;  uncertainty k = 0.220112
        23         4         3        26     9      180.000000       -0.051810         4    ;  uncertainty k = 0.076919
        23         4         3        27     9        0.000000       -0.345184         1    ;  uncertainty k = 0.389032
        23         4         3        27     9      180.000000       -0.057710         2    ;  uncertainty k = 0.382825
        23         4         3        27     9        0.000000        0.281401         3    ;  uncertainty k = 0.220112
        23         4         3        27     9      180.000000       -0.051810         4    ;  uncertainty k = 0.076919
        23         4         5        28     9        0.000000       -0.345184         1    ;  uncertainty k = 0.389032
        23         4         5        28     9      180.000000       -0.057710         2    ;  uncertainty k = 0.382825
        23         4         5        28     9        0.000000        0.281401         3    ;  uncertainty k = 0.220112
        23         4         5        28     9      180.000000       -0.051810         4    ;  uncertainty k = 0.076919
        23         4         5        29     9        0.000000       -0.345184         1    ;  uncertainty k = 0.389032
        23         4         5        29     9      180.000000       -0.057710         2    ;  uncertainty k = 0.382825
        23         4         5        29     9        0.000000        0.281401         3    ;  uncertainty k = 0.220112
        23         4         5        29     9      180.000000       -0.051810         4    ;  uncertainty k = 0.076919
        23         4        22        35     9        0.000000        0.214190         1    ;  uncertainty k = 1.165374
        23         4        22        35     9      180.000000       -0.101716         2    ;  uncertainty k = 0.387077
        23         4        22        35     9        0.000000        0.750310         3    ;  uncertainty k = 0.221539
        23         4        22        35     9      180.000000       -0.027140         4    ;  uncertainty k = 0.139765
        23         4        22        39     9        0.000000        0.214190         1    ;  uncertainty k = 1.165374
        23         4        22        39     9      180.000000       -0.101716         2    ;  uncertainty k = 0.387076
        23         4        22        39     9        0.000000        0.750310         3    ;  uncertainty k = 0.221539
        23         4        22        39     9      180.000000       -0.027140         4    ;  uncertainty k = 0.139764
        23         4        22        46     9        0.000000        0.214190         1    ;  uncertainty k = 1.165374
        23         4        22        46     9      180.000000       -0.101716         2    ;  uncertainty k = 0.387076
        23         4        22        46     9        0.000000        0.750310         3    ;  uncertainty k = 0.221539
        23         4        22        46     9      180.000000       -0.027140         4    ;  uncertainty k = 0.139764
        24         2         3        26     9        0.000000        0.137548         1    ;  uncertainty k = 0.221543
        24         2         3        26     9      180.000000        0.343770         2    ;  uncertainty k = 0.368626
        24         2         3        26     9        0.000000        0.156579         3    ;  uncertainty k = 0.091251
        24         2         3        26     9      180.000000       -0.126979         4    ;  uncertainty k = 0.142373
        24         2         3        27     9        0.000000        0.137548         1    ;  uncertainty k = 0.221543
        24         2         3        27     9      180.000000        0.343770         2    ;  uncertainty k = 0.368626
        24         2         3        27     9        0.000000        0.156579         3    ;  uncertainty k = 0.091251
        24         2         3        27     9      180.000000       -0.126979         4    ;  uncertainty k = 0.142373
        25         2         3        26     9        0.000000        0.137549         1    ;  uncertainty k = 0.221543
        25         2         3        26     9      180.000000        0.343768         2    ;  uncertainty k = 0.368628
        25         2         3        26     9        0.000000        0.156579         3    ;  uncertainty k = 0.091251
        25         2         3        26     9      180.000000       -0.126978         4    ;  uncertainty k = 0.142373
        25         2         3        27     9        0.000000        0.137549         1    ;  uncertainty k = 0.221543
        25         2         3        27     9      180.000000        0.343768         2    ;  uncertainty k = 0.368628
        25         2         3        27     9        0.000000        0.156579         3    ;  uncertainty k = 0.091251
        25         2         3        27     9      180.000000       -0.126978         4    ;  uncertainty k = 0.142373
        28         5         6        30     9        0.000000        0.137549         1    ;  uncertainty k = 0.221543
        28         5         6        30     9      180.000000        0.343768         2    ;  uncertainty k = 0.368628
        28         5         6        30     9        0.000000        0.156579         3    ;  uncertainty k = 0.091251
        28         5         6        30     9      180.000000       -0.126978         4    ;  uncertainty k = 0.142373
        28         5         6        31     9        0.000000        0.137549         1    ;  uncertainty k = 0.221543
        28         5         6        31     9      180.000000        0.343768         2    ;  uncertainty k = 0.368628
        28         5         6        31     9        0.000000        0.156579         3    ;  uncertainty k = 0.091251
        28         5         6        31     9      180.000000       -0.126978         4    ;  uncertainty k = 0.142373
        29         5         6        30     9        0.000000        0.137549         1    ;  uncertainty k = 0.221543
        29         5         6        30     9      180.000000        0.343768         2    ;  uncertainty k = 0.368628
        29         5         6        30     9        0.000000        0.156579         3    ;  uncertainty k = 0.091251
        29         5         6        30     9      180.000000       -0.126978         4    ;  uncertainty k = 0.142373
        29         5         6        31     9        0.000000        0.137549         1    ;  uncertainty k = 0.221543
        29         5         6        31     9      180.000000        0.343768         2    ;  uncertainty k = 0.368628
        29         5         6        31     9        0.000000        0.156579         3    ;  uncertainty k = 0.091251
        29         5         6        31     9      180.000000       -0.126978         4    ;  uncertainty k = 0.142373
        32        10        11        33     9        0.000000       -0.003460         1    ;  uncertainty k = 0.159327
        32        10        11        33     9      180.000000        7.769313         2    ;  uncertainty k = 0.328936
        32        10        11        33     9        0.000000       -0.466854         3    ;  uncertainty k = 0.293050
        32        10        11        33     9      180.000000        0.063665         4    ;  uncertainty k = 0.141391
        33        11        12        34     9        0.000000       -0.020771         1    ;  uncertainty k = 0.144417
        33        11        12        34     9      180.000000        7.748092         2    ;  uncertainty k = 0.383962
        33        11        12        34     9        0.000000       -0.468366         3    ;  uncertainty k = 0.284747
        33        11        12        34     9      180.000000        0.129122         4    ;  uncertainty k = 0.127715

[ dihedrals ] ; impropers
;       ai        aj        ak        al funct           phase               k        pn
         1         2         6        16     4      180.000000        0.461073         2    ;  uncertainty k = 1.030990
         1         6        16         2     4      180.000000        0.461073         2    ;  uncertainty k = 1.030990
         1        16         2         6     4      180.000000        0.461073         2    ;  uncertainty k = 1.030990
         7         8        12        13     4      180.000000       16.730012         2    ;  uncertainty k = 0.040712
         7        12        13         8     4      180.000000       16.730012         2    ;  uncertainty k = 0.040712
         7        13         8        12     4      180.000000       16.730012         2    ;  uncertainty k = 0.040712
         8         7         9        20     4      180.000000       12.928573         2    ;  uncertainty k = 0.196577
         8         9        20         7     4      180.000000       12.928573         2    ;  uncertainty k = 0.196577
         8        20         7         9     4      180.000000       12.928573         2    ;  uncertainty k = 0.196577
         9         8        10        19     4      180.000000       14.993411         2    ;  uncertainty k = 0.075241
         9        10        19         8     4      180.000000       14.993411         2    ;  uncertainty k = 0.075241
         9        19         8        10     4      180.000000       14.993411         2    ;  uncertainty k = 0.075241
        10         9        11        32     4      180.000000        3.631327         2    ;  uncertainty k = 0.079109
        10        11        32         9     4      180.000000        3.631327         2    ;  uncertainty k = 0.079109
        10        32         9        11     4      180.000000        3.631327         2    ;  uncertainty k = 0.079109
        11        10        12        33     4      180.000000        4.047321         2    ;  uncertainty k = 0.097684
        11        12        33        10     4      180.000000        4.047321         2    ;  uncertainty k = 0.097684
        11        33        10        12     4      180.000000        4.047321         2    ;  uncertainty k = 0.097684
        12         7        11        34     4      180.000000        3.319518         2    ;  uncertainty k = 0.108839
        12        11        34         7     4      180.000000        3.319518         2    ;  uncertainty k = 0.108839
        12        34         7        11     4      180.000000        3.319518         2    ;  uncertainty k = 0.108839
        13         7        14        18     4      180.000000        4.872330         2    ;  uncertainty k = 0.367177
        13        14        18         7     4      180.000000        4.872330         2    ;  uncertainty k = 0.367177
        13        18         7        14     4      180.000000        4.872330         2    ;  uncertainty k = 0.367177
        14        13        15        41     4      180.000000       15.786534         2    ;  uncertainty k = 0.081920
        14        15        41        13     4      180.000000       15.786534         2    ;  uncertainty k = 0.081920
        14        41        13        15     4      180.000000       15.786534         2    ;  uncertainty k = 0.081920
        16         1        15        17     4      180.000000       42.357185         2    ;  uncertainty k = 0.082748
        16        15        17         1     4      180.000000       42.357185         2    ;  uncertainty k = 0.082748
        16        17         1        15     4      180.000000       42.357185         2    ;  uncertainty k = 0.082748
        18        13        17        21     4      180.000000       35.312180         2    ;  uncertainty k = 0.064524
        18        17        21        13     4      180.000000       35.312180         2    ;  uncertainty k = 0.064524
        18        21        13        17     4      180.000000       35.312180         2    ;  uncertainty k = 0.064524
        21        18        40        42     4      180.000000        0.730707         2    ;  uncertainty k = 1.124817
        21        40        42        18     4      180.000000        0.730707         2    ;  uncertainty k = 1.124817
        21        42        18        40     4      180.000000        0.730707         2    ;  uncertainty k = 1.124817

[ pairs ]
;       ai        aj funct
         1         4     1
         1        14     1
         1        18     1
         1        26     1
         1        27     1
         1        28     1
         1        29     1
         2         5     1
         2        15     1
         2        17     1
         2        22     1
         2        23     1
         2        30     1
         2        31     1
         3         6     1
         3        16     1
         3        28     1
         3        29     1
         3        35     1
         3        36     1
         3        37     1
         3        38     1
         3        39     1
         3        46     1
         4        24     1
         4        25     1
         4        30     1
         4        31     1
         5        16     1
         5        26     1
         5        27     1
         5        35     1
         5        36     1
         5        37     1
         5        38     1
         5        39     1
         5        46     1
         6        15     1
         6        17     1
         6        22     1
         6        23     1
         6        24     1
         6        25     1
         7        10     1
         7        15     1
         7        17     1
         7        19     1
         7        21     1
         7        33     1
         7        41     1
         8        11     1
         8        14     1
         8        18     1
         8        32     1
         8        34     1
         8        43     1
         8        44     1
         8        45     1
         9        12     1
         9        13     1
         9        33     1
        10        20     1
        10        34     1
        10        43     1
        10        44     1
        10        45     1
        11        13     1
        11        19     1
        12        14     1
        12        18     1
        12        20     1
        12        32     1
        13        16     1
        13        20     1
        13        34     1
        13        40     1
        13        42     1
        14        17     1
        14        21     1
        15        18     1
        16        21     1
        16        24     1
        16        25     1
        16        30     1
        16        31     1
        16        41     1
        17        40     1
        17        42     1
        18        41     1
        19        20     1
        19        32     1
        22        26     1
        22        27     1
        22        28     1
        22        29     1
        22        36     1
        22        37     1
        22        38     1
        23        26     1
        23        27     1
        23        28     1
        23        29     1
        23        35     1
        23        39     1
        23        46     1
        24        26     1
        24        27     1
        25        26     1
        25        27     1
        28        30     1
        28        31     1
        29        30     1
        29        31     1
        32        33     1
        33        34     1
