; ITP file created by ByteFF-joint-25, 2026-02-17 09:35:40.840209

[ atomtypes ]
;name           bonded.type        at.num        mass        charge   ptype           sigma         epsilon
 n0bf                                   7      0.0000       0.00000       A     3.19062e-01     9.00857e-01    ;  uncertainty sigma = 0.000027, epsilon = 0.004020
 c1bf                                   6      0.0000       0.00000       A     3.39779e-01     4.50373e-01    ;  uncertainty sigma = 0.000021, epsilon = 0.001041
 c2bf                                   6      0.0000       0.00000       A     3.39768e-01     4.51100e-01    ;  uncertainty sigma = 0.000021, epsilon = 0.000603
 c3bf                                   6      0.0000       0.00000       A     3.39788e-01     4.49780e-01    ;  uncertainty sigma = 0.000038, epsilon = 0.001520
 c4bf                                   6      0.0000       0.00000       A     3.39768e-01     4.51100e-01    ;  uncertainty sigma = 0.000021, epsilon = 0.000603
 c5bf                                   6      0.0000       0.00000       A     3.39779e-01     4.50373e-01    ;  uncertainty sigma = 0.000021, epsilon = 0.001041
 c6bf                                   6      0.0000       0.00000       A     3.31589e-01     4.13468e-01    ;  uncertainty sigma = 0.000034, epsilon = 0.001553
 c7bf                                   6      0.0000       0.00000       A     3.31519e-01     4.13198e-01    ;  uncertainty sigma = 0.000012, epsilon = 0.000650
 c8bf                                   6      0.0000       0.00000       A     3.31533e-01     4.13435e-01    ;  uncertainty sigma = 0.000014, epsilon = 0.000770
 c9bf                                   6      0.0000       0.00000       A     3.31532e-01     4.13080e-01    ;  uncertainty sigma = 0.000005, epsilon = 0.000472
 c10bf                                  6      0.0000       0.00000       A     3.31523e-01     4.13158e-01    ;  uncertainty sigma = 0.000004, epsilon = 0.000755
 c11bf                                  6      0.0000       0.00000       A     3.31529e-01     4.13033e-01    ;  uncertainty sigma = 0.000007, epsilon = 0.000325
 c12bf                                  6      0.0000       0.00000       A     3.31517e-01     4.12860e-01    ;  uncertainty sigma = 0.000020, epsilon = 0.001132
 n13bf                                  7      0.0000       0.00000       A     3.38436e-01     3.93498e-01    ;  uncertainty sigma = 0.000022, epsilon = 0.000351
 c14bf                                  6      0.0000       0.00000       A     3.31520e-01     4.13236e-01    ;  uncertainty sigma = 0.000013, epsilon = 0.001555
 c15bf                                  6      0.0000       0.00000       A     3.31484e-01     4.13405e-01    ;  uncertainty sigma = 0.000017, epsilon = 0.000785
 n16bf                                  7      0.0000       0.00000       A     3.38423e-01     3.93504e-01    ;  uncertainty sigma = 0.000037, epsilon = 0.000645
 c17bf                                  6      0.0000       0.00000       A     3.31481e-01     4.12391e-01    ;  uncertainty sigma = 0.000018, epsilon = 0.001559
 n18bf                                  7      0.0000       0.00000       A     3.36865e-01     4.67570e-01    ;  uncertainty sigma = 0.000046, epsilon = 0.002899
 n19bf                                  7      0.0000       0.00000       A     2.77101e-01     4.77733e+00    ;  uncertainty sigma = 0.000102, epsilon = 0.025603
 c20bf                                  6      0.0000       0.00000       A     3.39744e-01     4.51058e-01    ;  uncertainty sigma = 0.000018, epsilon = 0.000674
 c21bf                                  6      0.0000       0.00000       A     3.31518e-01     4.13351e-01    ;  uncertainty sigma = 0.000004, epsilon = 0.000319
 c22bf                                  6      0.0000       0.00000       A     3.31520e-01     4.12978e-01    ;  uncertainty sigma = 0.000005, epsilon = 0.000941
 n23bf                                  7      0.0000       0.00000       A     3.20657e-01     8.53158e-01    ;  uncertainty sigma = 0.000022, epsilon = 0.002418
 h24bf                                  1      0.0000       0.00000       A     2.42223e-01     8.69235e-02    ;  uncertainty sigma = 0.000017, epsilon = 0.000659
 h25bf                                  1      0.0000       0.00000       A     2.42223e-01     8.69235e-02    ;  uncertainty sigma = 0.000017, epsilon = 0.000659
 h26bf                                  1      0.0000       0.00000       A     2.60047e-01     8.66235e-02    ;  uncertainty sigma = 0.000026, epsilon = 0.001019
 h27bf                                  1      0.0000       0.00000       A     2.60047e-01     8.66235e-02    ;  uncertainty sigma = 0.000026, epsilon = 0.001019
 h28bf                                  1      0.0000       0.00000       A     2.60047e-01     8.66235e-02    ;  uncertainty sigma = 0.000026, epsilon = 0.001019
 h29bf                                  1      0.0000       0.00000       A     2.60047e-01     8.66235e-02    ;  uncertainty sigma = 0.000026, epsilon = 0.001019
 h30bf                                  1      0.0000       0.00000       A     2.42223e-01     8.69235e-02    ;  uncertainty sigma = 0.000017, epsilon = 0.000659
 h31bf                                  1      0.0000       0.00000       A     2.42223e-01     8.69235e-02    ;  uncertainty sigma = 0.000017, epsilon = 0.000659
 h32bf                                  1      0.0000       0.00000       A     2.62567e-01     6.69462e-02    ;  uncertainty sigma = 0.000010, epsilon = 0.000380
 h33bf                                  1      0.0000       0.00000       A     2.62575e-01     6.69567e-02    ;  uncertainty sigma = 0.000012, epsilon = 0.000479
 h34bf                                  1      0.0000       0.00000       A     2.62574e-01     6.71644e-02    ;  uncertainty sigma = 0.000015, epsilon = 0.000564
 h35bf                                  1      0.0000       0.00000       A     2.53617e-01     6.68290e-02    ;  uncertainty sigma = 0.000021, epsilon = 0.000903
 h36bf                                  1      0.0000       0.00000       A     1.10722e-01     4.12462e-02    ;  uncertainty sigma = 0.000082, epsilon = 0.000527
 h37bf                                  1      0.0000       0.00000       A     1.10722e-01     4.12462e-02    ;  uncertainty sigma = 0.000082, epsilon = 0.000527
 h38bf                                  1      0.0000       0.00000       A     1.10744e-01     4.05584e-02    ;  uncertainty sigma = 0.000197, epsilon = 0.001139
 h39bf                                  1      0.0000       0.00000       A     1.10744e-01     4.05584e-02    ;  uncertainty sigma = 0.000197, epsilon = 0.001139
 h40bf                                  1      0.0000       0.00000       A     2.60029e-01     8.68919e-02    ;  uncertainty sigma = 0.000018, epsilon = 0.000792
 h41bf                                  1      0.0000       0.00000       A     2.60029e-01     8.68919e-02    ;  uncertainty sigma = 0.000018, epsilon = 0.000792
 h42bf                                  1      0.0000       0.00000       A     2.60029e-01     8.68919e-02    ;  uncertainty sigma = 0.000018, epsilon = 0.000792
 h43bf                                  1      0.0000       0.00000       A     2.62538e-01     6.71857e-02    ;  uncertainty sigma = 0.000009, epsilon = 0.000436
 h44bf                                  1      0.0000       0.00000       A     2.53650e-01     6.69353e-02    ;  uncertainty sigma = 0.000022, epsilon = 0.000688
 h45bf                                  1      0.0000       0.00000       A     1.10677e-01     4.13961e-02    ;  uncertainty sigma = 0.000082, epsilon = 0.000856
 h46bf                                  1      0.0000       0.00000       A     1.10744e-01     4.05584e-02    ;  uncertainty sigma = 0.000197, epsilon = 0.001139

[ moleculetype ]
;name             nrexcl
 MOL                   3

[ atoms ]
;       nr            type      resi   res      atom      cgnr      charge          mass ; qtot
         1            n0bf         1   UNL        n0         1    -0.77950       14.0070 ; qtot   -0.779
         2            c1bf         1   UNL        c1         2     0.22038       12.0110 ; qtot   -0.559
         3            c2bf         1   UNL        c2         3    -0.11719       12.0110 ; qtot   -0.676
         4            c3bf         1   UNL        c3         4     0.18791       12.0110 ; qtot   -0.488
         5            c4bf         1   UNL        c4         5    -0.11719       12.0110 ; qtot   -0.606
         6            c5bf         1   UNL        c5         6     0.22038       12.0110 ; qtot   -0.385
         7            c6bf         1   UNL        c6         7    -0.15899       12.0110 ; qtot   -0.544
         8            c7bf         1   UNL        c7         8    -0.03018       12.0110 ; qtot   -0.574
         9            c8bf         1   UNL        c8         9    -0.11043       12.0110 ; qtot   -0.685
        10            c9bf         1   UNL        c9        10    -0.06311       12.0110 ; qtot   -0.748
        11           c10bf         1   UNL       c10        11    -0.17178       12.0110 ; qtot   -0.920
        12           c11bf         1   UNL       c11        12    -0.08794       12.0110 ; qtot   -1.008
        13           c12bf         1   UNL       c12        13     0.27745       12.0110 ; qtot   -0.730
        14           n13bf         1   UNL       n13        14    -0.60117       14.0070 ; qtot   -1.331
        15           c14bf         1   UNL       c14        15     0.18634       12.0110 ; qtot   -1.145
        16           c15bf         1   UNL       c15        16     0.60990       12.0110 ; qtot   -0.535
        17           n16bf         1   UNL       n16        17    -0.80948       14.0070 ; qtot   -1.345
        18           c17bf         1   UNL       c17        18     0.56449       12.0110 ; qtot   -0.780
        19           n18bf         1   UNL       n18        19    -0.91212       14.0070 ; qtot   -1.692
        20           n19bf         1   UNL       n19        20    -0.86673       14.0070 ; qtot   -2.559
        21           c20bf         1   UNL       c20        21    -0.13034       12.0110 ; qtot   -2.689
        22           c21bf         1   UNL       c21        22    -0.18776       12.0110 ; qtot   -2.877
        23           c22bf         1   UNL       c22        23    -0.10649       12.0110 ; qtot   -2.984
        24           n23bf         1   UNL       n23        24    -0.18169       14.0070 ; qtot   -3.165
        25           h24bf         1   UNL       h24        25     0.07413        1.0080 ; qtot   -3.091
        26           h25bf         1   UNL       h25        26     0.07413        1.0080 ; qtot   -3.017
        27           h26bf         1   UNL       h26        27     0.08278        1.0080 ; qtot   -2.934
        28           h27bf         1   UNL       h27        28     0.08278        1.0080 ; qtot   -2.851
        29           h28bf         1   UNL       h28        29     0.08278        1.0080 ; qtot   -2.769
        30           h29bf         1   UNL       h29        30     0.08278        1.0080 ; qtot   -2.686
        31           h30bf         1   UNL       h30        31     0.07413        1.0080 ; qtot   -2.612
        32           h31bf         1   UNL       h31        32     0.07413        1.0080 ; qtot   -2.538
        33           h32bf         1   UNL       h32        33     0.13542        1.0080 ; qtot   -2.402
        34           h33bf         1   UNL       h33        34     0.13210        1.0080 ; qtot   -2.270
        35           h34bf         1   UNL       h34        35     0.14284        1.0080 ; qtot   -2.127
        36           h35bf         1   UNL       h35        36     0.03007        1.0080 ; qtot   -2.097
        37           h36bf         1   UNL       h36        37     0.41881        1.0080 ; qtot   -1.678
        38           h37bf         1   UNL       h37        38     0.41881        1.0080 ; qtot   -1.260
        39           h38bf         1   UNL       h38        39     0.46464        1.0080 ; qtot   -0.795
        40           h39bf         1   UNL       h39        40     0.46464        1.0080 ; qtot   -0.330
        41           h40bf         1   UNL       h40        41     0.07734        1.0080 ; qtot   -0.253
        42           h41bf         1   UNL       h41        42     0.07734        1.0080 ; qtot   -0.176
        43           h42bf         1   UNL       h42        43     0.07734        1.0080 ; qtot   -0.098
        44           h43bf         1   UNL       h43        44     0.15540        1.0080 ; qtot    0.057
        45           h44bf         1   UNL       h44        45     0.16322        1.0080 ; qtot    0.220
        46           h45bf         1   UNL       h45        46     0.31499        1.0080 ; qtot    0.535
        47           h46bf         1   UNL       h46        47     0.46464        1.0080 ; qtot    1.000

[ bonds ]
;       ai        aj funct               r               k
         1         2     1        0.145116   246038.889111    ;  uncertainty r = 0.000148, k = 11.317806
         1         6     1        0.145116   246038.889111    ;  uncertainty r = 0.000148, k = 11.317806
         1        16     1        0.138743   307034.504688    ;  uncertainty r = 0.000383, k = 20.107871
         2         3     1        0.153941   208852.159033    ;  uncertainty r = 0.000214, k = 12.207009
         2        25     1        0.109563   306873.391064    ;  uncertainty r = 0.000048, k = 2.016873
         2        26     1        0.109563   306873.391064    ;  uncertainty r = 0.000048, k = 2.016873
         3         4     1        0.153676   203189.241187    ;  uncertainty r = 0.000166, k = 7.265986
         3        27     1        0.109591   310533.497266    ;  uncertainty r = 0.000042, k = 1.839138
         3        28     1        0.109591   310533.497266    ;  uncertainty r = 0.000042, k = 1.839138
         4         5     1        0.153676   203189.241187    ;  uncertainty r = 0.000166, k = 7.265986
         4        20     1        0.155122   197292.186353    ;  uncertainty r = 0.000211, k = 49.108522
         4        21     1        0.152893   210290.434570    ;  uncertainty r = 0.000125, k = 13.841188
         5         6     1        0.153941   208852.159033    ;  uncertainty r = 0.000214, k = 12.207009
         5        29     1        0.109591   310533.497266    ;  uncertainty r = 0.000042, k = 1.839138
         5        30     1        0.109591   310533.497266    ;  uncertainty r = 0.000042, k = 1.839138
         6        31     1        0.109563   306873.391064    ;  uncertainty r = 0.000048, k = 2.016873
         6        32     1        0.109563   306873.391064    ;  uncertainty r = 0.000048, k = 2.016873
         7         8     1        0.140651   345091.743750    ;  uncertainty r = 0.000212, k = 9.012326
         7        12     1        0.139984   353365.281982    ;  uncertainty r = 0.000094, k = 7.675660
         7        13     1        0.147751   272493.980957    ;  uncertainty r = 0.000169, k = 31.398562
         8         9     1        0.142530   380089.586035    ;  uncertainty r = 0.000119, k = 9.930518
         8        24     1        0.138003   314356.147168    ;  uncertainty r = 0.000119, k = 7.989955
         9        10     1        0.140465   366430.143750    ;  uncertainty r = 0.000061, k = 4.132580
         9        22     1        0.144222   259713.909033    ;  uncertainty r = 0.000046, k = 7.507746
        10        11     1        0.139143   370089.432764    ;  uncertainty r = 0.000067, k = 3.802908
        10        33     1        0.108830   336180.160840    ;  uncertainty r = 0.000016, k = 1.084329
        11        12     1        0.140768   354078.916504    ;  uncertainty r = 0.000054, k = 4.012712
        11        34     1        0.108794   334437.482959    ;  uncertainty r = 0.000021, k = 1.439444
        12        35     1        0.108660   333504.076074    ;  uncertainty r = 0.000026, k = 1.834440
        13        14     1        0.133433   361983.060449    ;  uncertainty r = 0.000096, k = 18.007916
        13        18     1        0.140214   429394.287402    ;  uncertainty r = 0.000320, k = 40.991917
        14        15     1        0.132134   410970.182324    ;  uncertainty r = 0.000242, k = 13.899105
        15        16     1        0.139933   408092.354395    ;  uncertainty r = 0.000105, k = 16.896405
        15        36     1        0.109062   342620.134619    ;  uncertainty r = 0.000055, k = 1.808787
        16        17     1        0.134978   375774.350830    ;  uncertainty r = 0.000115, k = 21.169392
        17        18     1        0.135931   499350.440527    ;  uncertainty r = 0.000173, k = 17.611534
        18        19     1        0.140745   506663.911133    ;  uncertainty r = 0.000266, k = 35.823848
        19        37     1        0.101787   426008.092236    ;  uncertainty r = 0.000053, k = 2.072288
        19        38     1        0.101787   426008.092236    ;  uncertainty r = 0.000053, k = 2.072320
        20        39     1        0.102893   408930.686621    ;  uncertainty r = 0.000060, k = 6.495046
        20        40     1        0.102893   408930.686621    ;  uncertainty r = 0.000060, k = 6.495046
        20        47     1        0.102893   408930.686621    ;  uncertainty r = 0.000060, k = 6.495046
        21        41     1        0.109485   313302.332813    ;  uncertainty r = 0.000023, k = 3.037343
        21        42     1        0.109485   313302.332813    ;  uncertainty r = 0.000023, k = 3.037343
        21        43     1        0.109485   313302.332813    ;  uncertainty r = 0.000023, k = 3.037343
        22        23     1        0.137698   444268.070312    ;  uncertainty r = 0.000026, k = 5.365977
        22        44     1        0.108268   340410.612842    ;  uncertainty r = 0.000035, k = 1.514776
        23        24     1        0.138597   324449.715186    ;  uncertainty r = 0.000091, k = 10.561868
        23        45     1        0.108198   340864.841406    ;  uncertainty r = 0.000021, k = 1.502700
        24        46     1        0.101205   413577.648877    ;  uncertainty r = 0.000056, k = 4.217854

[ angles ]
;       ai        aj        ak funct           theta             cth
         1         2         3     1      109.827858      689.645408    ;  uncertainty theta = 0.002463, k = 0.163217
         1         2        25     1      107.087479      464.005702    ;  uncertainty theta = 0.001580, k = 0.039925
         1         2        26     1      107.087479      464.005702    ;  uncertainty theta = 0.001580, k = 0.039925
         1         6         5     1      109.827858      689.645408    ;  uncertainty theta = 0.002463, k = 0.163217
         1         6        31     1      107.087479      464.005702    ;  uncertainty theta = 0.001580, k = 0.039925
         1         6        32     1      107.087479      464.005702    ;  uncertainty theta = 0.001580, k = 0.039925
         1        16        15     1      120.595070      387.476955    ;  uncertainty theta = 0.008189, k = 0.222221
         1        16        17     1      121.905968      657.310001    ;  uncertainty theta = 0.004480, k = 0.082870
         2         1         6     1      106.583206      418.801252    ;  uncertainty theta = 0.017994, k = 0.197354
         2         1        16     1      110.612793      417.719181    ;  uncertainty theta = 0.002200, k = 0.093417
         2         3         4     1      110.151321      546.312444    ;  uncertainty theta = 0.003375, k = 0.086590
         2         3        27     1      108.267578      400.403552    ;  uncertainty theta = 0.001419, k = 0.109509
         2         3        28     1      108.267578      400.403552    ;  uncertainty theta = 0.001419, k = 0.109509
         3         2        25     1      108.654381      413.910512    ;  uncertainty theta = 0.003621, k = 0.120921
         3         2        26     1      108.654381      413.910512    ;  uncertainty theta = 0.003621, k = 0.120921
         3         4         5     1      110.679581      579.870504    ;  uncertainty theta = 0.006768, k = 0.197925
         3         4        20     1      107.283340      684.092874    ;  uncertainty theta = 0.005196, k = 0.323363
         3         4        21     1      111.976845      573.046350    ;  uncertainty theta = 0.003349, k = 0.044873
         4         3        27     1      107.183029      390.978284    ;  uncertainty theta = 0.002183, k = 0.173231
         4         3        28     1      107.183029      390.978284    ;  uncertainty theta = 0.002183, k = 0.173231
         4         5         6     1      110.151321      546.312444    ;  uncertainty theta = 0.003375, k = 0.086590
         4         5        29     1      107.183029      390.978284    ;  uncertainty theta = 0.002183, k = 0.173231
         4         5        30     1      107.183029      390.978284    ;  uncertainty theta = 0.002183, k = 0.173231
         4        20        39     1      110.464333      409.034616    ;  uncertainty theta = 0.003988, k = 0.162351
         4        20        40     1      110.464333      409.034616    ;  uncertainty theta = 0.003988, k = 0.162351
         4        20        47     1      110.464333      409.034616    ;  uncertainty theta = 0.003988, k = 0.162351
         4        21        41     1      107.456223      389.152764    ;  uncertainty theta = 0.000505, k = 0.034813
         4        21        42     1      107.456223      389.152764    ;  uncertainty theta = 0.000505, k = 0.034813
         4        21        43     1      107.456223      389.152764    ;  uncertainty theta = 0.000505, k = 0.034813
         5         4        20     1      107.283340      684.092874    ;  uncertainty theta = 0.005196, k = 0.323363
         5         4        21     1      111.976845      573.046350    ;  uncertainty theta = 0.003349, k = 0.044873
         5         6        31     1      108.654381      413.910512    ;  uncertainty theta = 0.003621, k = 0.120921
         5         6        32     1      108.654381      413.910512    ;  uncertainty theta = 0.003621, k = 0.120921
         6         1        16     1      110.612793      417.719181    ;  uncertainty theta = 0.002200, k = 0.093417
         6         5        29     1      108.267578      400.403552    ;  uncertainty theta = 0.001419, k = 0.109509
         6         5        30     1      108.267578      400.403552    ;  uncertainty theta = 0.001419, k = 0.109509
         7         8         9     1      122.043678      379.075756    ;  uncertainty theta = 0.004230, k = 0.320407
         7         8        24     1      127.831642      410.300714    ;  uncertainty theta = 0.004991, k = 0.482229
         7        12        11     1      124.129433      524.217035    ;  uncertainty theta = 0.004448, k = 0.234427
         7        12        35     1      118.203812      281.087218    ;  uncertainty theta = 0.003708, k = 0.138165
         7        13        14     1      118.852600      479.725006    ;  uncertainty theta = 0.008629, k = 0.190169
         7        13        18     1      120.740112      343.407469    ;  uncertainty theta = 0.003719, k = 0.283350
         8         7        12     1      118.182785      443.627025    ;  uncertainty theta = 0.003612, k = 0.249103
         8         7        13     1      120.827675      374.522043    ;  uncertainty theta = 0.003346, k = 0.337604
         8         9        10     1      116.819984      401.516172    ;  uncertainty theta = 0.003040, k = 0.206288
         8         9        22     1      106.778282      651.902646    ;  uncertainty theta = 0.002162, k = 0.178124
         8        24        23     1      106.096596      840.597177    ;  uncertainty theta = 0.004281, k = 0.105055
         8        24        46     1      117.112015      294.429528    ;  uncertainty theta = 0.003294, k = 0.106408
         9         8        24     1      108.264671      695.754842    ;  uncertainty theta = 0.001730, k = 0.226980
         9        10        11     1      118.041367      555.546918    ;  uncertainty theta = 0.001875, k = 0.091981
         9        10        33     1      121.592384      295.746030    ;  uncertainty theta = 0.002217, k = 0.041898
         9        22        23     1      106.897095      801.858020    ;  uncertainty theta = 0.003847, k = 0.104112
         9        22        44     1      125.039627      255.602284    ;  uncertainty theta = 0.002081, k = 0.095061
        10         9        22     1      132.975632      365.481044    ;  uncertainty theta = 0.004276, k = 0.166309
        10        11        12     1      121.944969      494.536944    ;  uncertainty theta = 0.001814, k = 0.116434
        10        11        34     1      120.093262      286.670460    ;  uncertainty theta = 0.002335, k = 0.033993
        11        10        33     1      120.845413      283.708730    ;  uncertainty theta = 0.001268, k = 0.018529
        11        12        35     1      119.937561      295.174190    ;  uncertainty theta = 0.003517, k = 0.006461
        12         7        13     1      122.087387      403.392767    ;  uncertainty theta = 0.004171, k = 0.073440
        12        11        34     1      119.409119      286.589029    ;  uncertainty theta = 0.001957, k = 0.022636
        13        14        15     1      123.802414      484.889950    ;  uncertainty theta = 0.007056, k = 0.190540
        13        18        17     1      121.296265      457.898598    ;  uncertainty theta = 0.009707, k = 0.353935
        13        18        19     1      122.118759      463.466773    ;  uncertainty theta = 0.005552, k = 0.240131
        14        13        18     1      118.562622      458.215226    ;  uncertainty theta = 0.006918, k = 0.410372
        14        15        16     1      120.199806      596.559197    ;  uncertainty theta = 0.004334, k = 0.102704
        14        15        36     1      117.362221      343.918467    ;  uncertainty theta = 0.005430, k = 0.095686
        15        16        17     1      118.916306      457.313032    ;  uncertainty theta = 0.003985, k = 0.109629
        16        15        36     1      122.335228      248.986737    ;  uncertainty theta = 0.003648, k = 0.179546
        16        17        18     1      118.844971      458.683354    ;  uncertainty theta = 0.004306, k = 0.237076
        17        18        19     1      126.429153      914.346816    ;  uncertainty theta = 0.004589, k = 0.097834
        18        19        37     1      117.325256      391.584918    ;  uncertainty theta = 0.002255, k = 0.170642
        18        19        38     1      117.325256      391.584918    ;  uncertainty theta = 0.002255, k = 0.170642
        20         4        21     1      107.732376      711.715791    ;  uncertainty theta = 0.003143, k = 0.202828
        22        23        24     1      110.749130      739.944575    ;  uncertainty theta = 0.003526, k = 0.076213
        22        23        45     1      128.551804      238.908293    ;  uncertainty theta = 0.003064, k = 0.094197
        23        22        44     1      123.497192      254.175111    ;  uncertainty theta = 0.002236, k = 0.103838
        23        24        46     1      116.279709      283.092807    ;  uncertainty theta = 0.004407, k = 0.125086
        24        23        45     1      117.688477      289.492119    ;  uncertainty theta = 0.003374, k = 0.130619
        25         2        26     1      105.594933      323.601813    ;  uncertainty theta = 0.003166, k = 0.045080
        27         3        28     1      106.069984      314.890850    ;  uncertainty theta = 0.002539, k = 0.094492
        29         5        30     1      106.069984      314.890850    ;  uncertainty theta = 0.002539, k = 0.094492
        31         6        32     1      105.594933      323.601813    ;  uncertainty theta = 0.003166, k = 0.045080
        37        19        38     1      108.308548      276.433240    ;  uncertainty theta = 0.001917, k = 0.098315
        39        20        40     1      108.017105      374.242252    ;  uncertainty theta = 0.003302, k = 0.129446
        39        20        47     1      108.017105      374.242252    ;  uncertainty theta = 0.003302, k = 0.129446
        40        20        47     1      108.017105      374.242252    ;  uncertainty theta = 0.003302, k = 0.129446
        41        21        42     1      105.936523      319.817118    ;  uncertainty theta = 0.000605, k = 0.051303
        41        21        43     1      105.936523      319.817118    ;  uncertainty theta = 0.000605, k = 0.051303
        42        21        43     1      105.936523      319.817118    ;  uncertainty theta = 0.000605, k = 0.051303

[ dihedrals ] ; propers for gromacs 4.5 or higher, use funct 9
;       ai        aj        ak        al funct           phase               k        pn
         1         2         3         4     9        0.000000        3.979946         1    ;  uncertainty k = 2.632185
         1         2         3         4     9      180.000000       -4.496693         2    ;  uncertainty k = 0.888467
         1         2         3         4     9        0.000000        1.984991         3    ;  uncertainty k = 0.266416
         1         2         3         4     9      180.000000       -0.392018         4    ;  uncertainty k = 0.253112
         1         2         3        27     9        0.000000       -2.064442         1    ;  uncertainty k = 0.843869
         1         2         3        27     9      180.000000        0.347541         2    ;  uncertainty k = 0.463906
         1         2         3        27     9        0.000000        1.311394         3    ;  uncertainty k = 0.326854
         1         2         3        27     9      180.000000       -0.253627         4    ;  uncertainty k = 0.071114
         1         2         3        28     9        0.000000       -2.064442         1    ;  uncertainty k = 0.843869
         1         2         3        28     9      180.000000        0.347541         2    ;  uncertainty k = 0.463906
         1         2         3        28     9        0.000000        1.311394         3    ;  uncertainty k = 0.326854
         1         2         3        28     9      180.000000       -0.253627         4    ;  uncertainty k = 0.071114
         1         6         5         4     9        0.000000        3.979946         1    ;  uncertainty k = 2.632185
         1         6         5         4     9      180.000000       -4.496693         2    ;  uncertainty k = 0.888467
         1         6         5         4     9        0.000000        1.984991         3    ;  uncertainty k = 0.266416
         1         6         5         4     9      180.000000       -0.392018         4    ;  uncertainty k = 0.253112
         1         6         5        29     9        0.000000       -2.064442         1    ;  uncertainty k = 0.843869
         1         6         5        29     9      180.000000        0.347541         2    ;  uncertainty k = 0.463906
         1         6         5        29     9        0.000000        1.311394         3    ;  uncertainty k = 0.326854
         1         6         5        29     9      180.000000       -0.253627         4    ;  uncertainty k = 0.071114
         1         6         5        30     9        0.000000       -2.064442         1    ;  uncertainty k = 0.843869
         1         6         5        30     9      180.000000        0.347541         2    ;  uncertainty k = 0.463906
         1         6         5        30     9        0.000000        1.311394         3    ;  uncertainty k = 0.326854
         1         6         5        30     9      180.000000       -0.253627         4    ;  uncertainty k = 0.071114
         1        16        15        14     9        0.000000        0.013644         1    ;  uncertainty k = 1.134452
         1        16        15        14     9      180.000000        5.046528         2    ;  uncertainty k = 1.186267
         1        16        15        14     9        0.000000        0.480594         3    ;  uncertainty k = 0.216725
         1        16        15        14     9      180.000000        0.947548         4    ;  uncertainty k = 0.415396
         1        16        15        36     9        0.000000        0.353760         1    ;  uncertainty k = 1.705279
         1        16        15        36     9      180.000000        3.599835         2    ;  uncertainty k = 0.681945
         1        16        15        36     9        0.000000        0.673324         3    ;  uncertainty k = 0.306284
         1        16        15        36     9      180.000000        0.625333         4    ;  uncertainty k = 0.274336
         1        16        17        18     9        0.000000        0.733513         1    ;  uncertainty k = 0.930126
         1        16        17        18     9      180.000000       13.494836         2    ;  uncertainty k = 0.424831
         1        16        17        18     9        0.000000        2.202225         3    ;  uncertainty k = 0.555192
         1        16        17        18     9      180.000000        1.301870         4    ;  uncertainty k = 0.437798
         2         1         6         5     9        0.000000       -6.239786         1    ;  uncertainty k = 2.361389
         2         1         6         5     9      180.000000        1.153427         2    ;  uncertainty k = 0.800282
         2         1         6         5     9        0.000000        1.096550         3    ;  uncertainty k = 0.417360
         2         1         6         5     9      180.000000       -0.421896         4    ;  uncertainty k = 0.152184
         2         1         6        31     9        0.000000       -6.143799         1    ;  uncertainty k = 1.877208
         2         1         6        31     9      180.000000        0.664612         2    ;  uncertainty k = 0.347378
         2         1         6        31     9        0.000000        0.733570         3    ;  uncertainty k = 0.044332
         2         1         6        31     9      180.000000       -0.093537         4    ;  uncertainty k = 0.072432
         2         1         6        32     9        0.000000       -6.143799         1    ;  uncertainty k = 1.877208
         2         1         6        32     9      180.000000        0.664612         2    ;  uncertainty k = 0.347378
         2         1         6        32     9        0.000000        0.733570         3    ;  uncertainty k = 0.044332
         2         1         6        32     9      180.000000       -0.093537         4    ;  uncertainty k = 0.072432
         2         1        16        15     9        0.000000        3.201795         1    ;  uncertainty k = 0.858471
         2         1        16        15     9      180.000000        6.821877         2    ;  uncertainty k = 0.213180
         2         1        16        15     9        0.000000        0.573745         3    ;  uncertainty k = 0.144135
         2         1        16        15     9      180.000000        0.080156         4    ;  uncertainty k = 0.193484
         2         1        16        17     9        0.000000        6.721031         1    ;  uncertainty k = 1.167031
         2         1        16        17     9      180.000000       10.395062         2    ;  uncertainty k = 0.189188
         2         1        16        17     9        0.000000        0.515935         3    ;  uncertainty k = 0.343837
         2         1        16        17     9      180.000000        0.022424         4    ;  uncertainty k = 0.117955
         2         3         4         5     9        0.000000       -2.025889         1    ;  uncertainty k = 2.008267
         2         3         4         5     9      180.000000        0.410334         2    ;  uncertainty k = 0.633526
         2         3         4         5     9        0.000000        0.616803         3    ;  uncertainty k = 0.450713
         2         3         4         5     9      180.000000       -1.017199         4    ;  uncertainty k = 0.208372
         2         3         4        20     9        0.000000       -5.245439         1    ;  uncertainty k = 1.390791
         2         3         4        20     9      180.000000       -1.241889         2    ;  uncertainty k = 1.510062
         2         3         4        20     9        0.000000        1.020300         3    ;  uncertainty k = 0.387143
         2         3         4        20     9      180.000000        0.214101         4    ;  uncertainty k = 0.146557
         2         3         4        21     9        0.000000       -4.849412         1    ;  uncertainty k = 0.866163
         2         3         4        21     9      180.000000        1.297477         2    ;  uncertainty k = 0.417124
         2         3         4        21     9        0.000000        0.498652         3    ;  uncertainty k = 0.311761
         2         3         4        21     9      180.000000       -0.189701         4    ;  uncertainty k = 0.108915
         3         2         1         6     9        0.000000       -6.239786         1    ;  uncertainty k = 2.361389
         3         2         1         6     9      180.000000        1.153427         2    ;  uncertainty k = 0.800282
         3         2         1         6     9        0.000000        1.096550         3    ;  uncertainty k = 0.417360
         3         2         1         6     9      180.000000       -0.421896         4    ;  uncertainty k = 0.152184
         3         2         1        16     9        0.000000       -2.822343         1    ;  uncertainty k = 0.638838
         3         2         1        16     9      180.000000        0.616608         2    ;  uncertainty k = 0.478045
         3         2         1        16     9        0.000000        0.114310         3    ;  uncertainty k = 0.176119
         3         2         1        16     9      180.000000        0.216396         4    ;  uncertainty k = 0.087398
         3         4         5         6     9        0.000000       -2.025889         1    ;  uncertainty k = 2.008267
         3         4         5         6     9      180.000000        0.410334         2    ;  uncertainty k = 0.633526
         3         4         5         6     9        0.000000        0.616803         3    ;  uncertainty k = 0.450713
         3         4         5         6     9      180.000000       -1.017199         4    ;  uncertainty k = 0.208372
         3         4         5        29     9        0.000000       -1.032719         1    ;  uncertainty k = 0.277220
         3         4         5        29     9      180.000000       -0.372391         2    ;  uncertainty k = 0.195211
         3         4         5        29     9        0.000000       -0.016948         3    ;  uncertainty k = 0.088967
         3         4         5        29     9      180.000000       -0.099463         4    ;  uncertainty k = 0.056988
         3         4         5        30     9        0.000000       -1.032719         1    ;  uncertainty k = 0.277220
         3         4         5        30     9      180.000000       -0.372391         2    ;  uncertainty k = 0.195211
         3         4         5        30     9        0.000000       -0.016948         3    ;  uncertainty k = 0.088967
         3         4         5        30     9      180.000000       -0.099463         4    ;  uncertainty k = 0.056988
         3         4        20        39     9        0.000000       -0.347105         1    ;  uncertainty k = 1.193618
         3         4        20        39     9      180.000000       -0.225842         2    ;  uncertainty k = 0.264572
         3         4        20        39     9        0.000000        0.751154         3    ;  uncertainty k = 0.137669
         3         4        20        39     9      180.000000       -0.116187         4    ;  uncertainty k = 0.103302
         3         4        20        40     9        0.000000       -0.347105         1    ;  uncertainty k = 1.193618
         3         4        20        40     9      180.000000       -0.225842         2    ;  uncertainty k = 0.264572
         3         4        20        40     9        0.000000        0.751154         3    ;  uncertainty k = 0.137669
         3         4        20        40     9      180.000000       -0.116187         4    ;  uncertainty k = 0.103302
         3         4        20        47     9        0.000000       -0.347105         1    ;  uncertainty k = 1.193618
         3         4        20        47     9      180.000000       -0.225842         2    ;  uncertainty k = 0.264572
         3         4        20        47     9        0.000000        0.751154         3    ;  uncertainty k = 0.137669
         3         4        20        47     9      180.000000       -0.116187         4    ;  uncertainty k = 0.103302
         3         4        21        41     9        0.000000       -0.895310         1    ;  uncertainty k = 0.339459
         3         4        21        41     9      180.000000       -0.491983         2    ;  uncertainty k = 0.208211
         3         4        21        41     9        0.000000        0.541904         3    ;  uncertainty k = 0.078615
         3         4        21        41     9      180.000000       -0.143850         4    ;  uncertainty k = 0.057472
         3         4        21        42     9        0.000000       -0.895310         1    ;  uncertainty k = 0.339459
         3         4        21        42     9      180.000000       -0.491983         2    ;  uncertainty k = 0.208211
         3         4        21        42     9        0.000000        0.541904         3    ;  uncertainty k = 0.078615
         3         4        21        42     9      180.000000       -0.143850         4    ;  uncertainty k = 0.057472
         3         4        21        43     9        0.000000       -0.895310         1    ;  uncertainty k = 0.339459
         3         4        21        43     9      180.000000       -0.491983         2    ;  uncertainty k = 0.208211
         3         4        21        43     9        0.000000        0.541904         3    ;  uncertainty k = 0.078615
         3         4        21        43     9      180.000000       -0.143850         4    ;  uncertainty k = 0.057472
         4         3         2        25     9        0.000000        3.022278         1    ;  uncertainty k = 1.203655
         4         3         2        25     9      180.000000       -2.768745         2    ;  uncertainty k = 0.230514
         4         3         2        25     9        0.000000       -0.000297         3    ;  uncertainty k = 0.140060
         4         3         2        25     9      180.000000        0.278749         4    ;  uncertainty k = 0.073392
         4         3         2        26     9        0.000000        3.022278         1    ;  uncertainty k = 1.203655
         4         3         2        26     9      180.000000       -2.768745         2    ;  uncertainty k = 0.230514
         4         3         2        26     9        0.000000       -0.000297         3    ;  uncertainty k = 0.140060
         4         3         2        26     9      180.000000        0.278749         4    ;  uncertainty k = 0.073392
         4         5         6        31     9        0.000000        3.022278         1    ;  uncertainty k = 1.203655
         4         5         6        31     9      180.000000       -2.768745         2    ;  uncertainty k = 0.230514
         4         5         6        31     9        0.000000       -0.000297         3    ;  uncertainty k = 0.140060
         4         5         6        31     9      180.000000        0.278749         4    ;  uncertainty k = 0.073392
         4         5         6        32     9        0.000000        3.022278         1    ;  uncertainty k = 1.203655
         4         5         6        32     9      180.000000       -2.768745         2    ;  uncertainty k = 0.230514
         4         5         6        32     9        0.000000       -0.000297         3    ;  uncertainty k = 0.140060
         4         5         6        32     9      180.000000        0.278749         4    ;  uncertainty k = 0.073392
         5         4         3        27     9        0.000000       -1.032719         1    ;  uncertainty k = 0.277220
         5         4         3        27     9      180.000000       -0.372391         2    ;  uncertainty k = 0.195211
         5         4         3        27     9        0.000000       -0.016948         3    ;  uncertainty k = 0.088967
         5         4         3        27     9      180.000000       -0.099463         4    ;  uncertainty k = 0.056988
         5         4         3        28     9        0.000000       -1.032719         1    ;  uncertainty k = 0.277220
         5         4         3        28     9      180.000000       -0.372391         2    ;  uncertainty k = 0.195211
         5         4         3        28     9        0.000000       -0.016948         3    ;  uncertainty k = 0.088967
         5         4         3        28     9      180.000000       -0.099463         4    ;  uncertainty k = 0.056988
         5         4        20        39     9        0.000000       -0.347105         1    ;  uncertainty k = 1.193618
         5         4        20        39     9      180.000000       -0.225842         2    ;  uncertainty k = 0.264572
         5         4        20        39     9        0.000000        0.751154         3    ;  uncertainty k = 0.137669
         5         4        20        39     9      180.000000       -0.116187         4    ;  uncertainty k = 0.103302
         5         4        20        40     9        0.000000       -0.347105         1    ;  uncertainty k = 1.193618
         5         4        20        40     9      180.000000       -0.225842         2    ;  uncertainty k = 0.264572
         5         4        20        40     9        0.000000        0.751154         3    ;  uncertainty k = 0.137669
         5         4        20        40     9      180.000000       -0.116187         4    ;  uncertainty k = 0.103302
         5         4        20        47     9        0.000000       -0.347105         1    ;  uncertainty k = 1.193618
         5         4        20        47     9      180.000000       -0.225842         2    ;  uncertainty k = 0.264572
         5         4        20        47     9        0.000000        0.751154         3    ;  uncertainty k = 0.137669
         5         4        20        47     9      180.000000       -0.116187         4    ;  uncertainty k = 0.103302
         5         4        21        41     9        0.000000       -0.895310         1    ;  uncertainty k = 0.339459
         5         4        21        41     9      180.000000       -0.491983         2    ;  uncertainty k = 0.208211
         5         4        21        41     9        0.000000        0.541904         3    ;  uncertainty k = 0.078615
         5         4        21        41     9      180.000000       -0.143850         4    ;  uncertainty k = 0.057472
         5         4        21        42     9        0.000000       -0.895310         1    ;  uncertainty k = 0.339459
         5         4        21        42     9      180.000000       -0.491983         2    ;  uncertainty k = 0.208211
         5         4        21        42     9        0.000000        0.541904         3    ;  uncertainty k = 0.078615
         5         4        21        42     9      180.000000       -0.143850         4    ;  uncertainty k = 0.057472
         5         4        21        43     9        0.000000       -0.895310         1    ;  uncertainty k = 0.339459
         5         4        21        43     9      180.000000       -0.491983         2    ;  uncertainty k = 0.208211
         5         4        21        43     9        0.000000        0.541904         3    ;  uncertainty k = 0.078615
         5         4        21        43     9      180.000000       -0.143850         4    ;  uncertainty k = 0.057472
         5         6         1        16     9        0.000000       -2.822343         1    ;  uncertainty k = 0.638838
         5         6         1        16     9      180.000000        0.616608         2    ;  uncertainty k = 0.478045
         5         6         1        16     9        0.000000        0.114310         3    ;  uncertainty k = 0.176119
         5         6         1        16     9      180.000000        0.216396         4    ;  uncertainty k = 0.087398
         6         1         2        25     9        0.000000       -6.143799         1    ;  uncertainty k = 1.877208
         6         1         2        25     9      180.000000        0.664612         2    ;  uncertainty k = 0.347378
         6         1         2        25     9        0.000000        0.733570         3    ;  uncertainty k = 0.044332
         6         1         2        25     9      180.000000       -0.093537         4    ;  uncertainty k = 0.072432
         6         1         2        26     9        0.000000       -6.143799         1    ;  uncertainty k = 1.877208
         6         1         2        26     9      180.000000        0.664612         2    ;  uncertainty k = 0.347378
         6         1         2        26     9        0.000000        0.733570         3    ;  uncertainty k = 0.044332
         6         1         2        26     9      180.000000       -0.093537         4    ;  uncertainty k = 0.072432
         6         1        16        15     9        0.000000        3.201795         1    ;  uncertainty k = 0.858471
         6         1        16        15     9      180.000000        6.821877         2    ;  uncertainty k = 0.213180
         6         1        16        15     9        0.000000        0.573745         3    ;  uncertainty k = 0.144135
         6         1        16        15     9      180.000000        0.080156         4    ;  uncertainty k = 0.193484
         6         1        16        17     9        0.000000        6.721031         1    ;  uncertainty k = 1.167031
         6         1        16        17     9      180.000000       10.395062         2    ;  uncertainty k = 0.189188
         6         1        16        17     9        0.000000        0.515935         3    ;  uncertainty k = 0.343837
         6         1        16        17     9      180.000000        0.022424         4    ;  uncertainty k = 0.117955
         6         5         4        20     9        0.000000       -5.245439         1    ;  uncertainty k = 1.390791
         6         5         4        20     9      180.000000       -1.241889         2    ;  uncertainty k = 1.510062
         6         5         4        20     9        0.000000        1.020300         3    ;  uncertainty k = 0.387143
         6         5         4        20     9      180.000000        0.214101         4    ;  uncertainty k = 0.146557
         6         5         4        21     9        0.000000       -4.849412         1    ;  uncertainty k = 0.866163
         6         5         4        21     9      180.000000        1.297477         2    ;  uncertainty k = 0.417124
         6         5         4        21     9        0.000000        0.498652         3    ;  uncertainty k = 0.311761
         6         5         4        21     9      180.000000       -0.189701         4    ;  uncertainty k = 0.108915
         7         8         9        10     9        0.000000       -0.704085         1    ;  uncertainty k = 0.823277
         7         8         9        10     9      180.000000        7.566569         2    ;  uncertainty k = 0.691513
         7         8         9        10     9        0.000000       -0.023761         3    ;  uncertainty k = 0.433405
         7         8         9        10     9      180.000000        0.941592         4    ;  uncertainty k = 0.343925
         7         8         9        22     9        0.000000       -0.127567         1    ;  uncertainty k = 0.216557
         7         8         9        22     9      180.000000        7.606716         2    ;  uncertainty k = 0.762756
         7         8         9        22     9        0.000000        0.068629         3    ;  uncertainty k = 0.571425
         7         8         9        22     9      180.000000        1.152382         4    ;  uncertainty k = 0.161340
         7         8        24        23     9        0.000000        1.126591         1    ;  uncertainty k = 0.646385
         7         8        24        23     9      180.000000        6.368816         2    ;  uncertainty k = 0.439657
         7         8        24        23     9        0.000000        0.277606         3    ;  uncertainty k = 0.780981
         7         8        24        23     9      180.000000        0.259153         4    ;  uncertainty k = 0.246471
         7         8        24        46     9        0.000000        2.523196         1    ;  uncertainty k = 1.726980
         7         8        24        46     9      180.000000        1.688293         2    ;  uncertainty k = 0.798616
         7         8        24        46     9        0.000000        0.749395         3    ;  uncertainty k = 0.370813
         7         8        24        46     9      180.000000        0.069802         4    ;  uncertainty k = 0.174773
         7        12        11        10     9        0.000000       -0.256296         1    ;  uncertainty k = 0.127646
         7        12        11        10     9      180.000000       11.760672         2    ;  uncertainty k = 0.463818
         7        12        11        10     9        0.000000       -0.640553         3    ;  uncertainty k = 0.536432
         7        12        11        10     9      180.000000        0.938882         4    ;  uncertainty k = 0.210384
         7        12        11        34     9        0.000000       -0.116560         1    ;  uncertainty k = 0.358735
         7        12        11        34     9      180.000000        7.251536         2    ;  uncertainty k = 0.411629
         7        12        11        34     9        0.000000        1.241696         3    ;  uncertainty k = 0.213202
         7        12        11        34     9      180.000000        1.747152         4    ;  uncertainty k = 0.196826
         7        13        14        15     9        0.000000        0.258608         1    ;  uncertainty k = 0.566882
         7        13        14        15     9      180.000000       15.561602         2    ;  uncertainty k = 0.419437
         7        13        14        15     9        0.000000        2.666353         3    ;  uncertainty k = 0.462408
         7        13        14        15     9      180.000000        1.586811         4    ;  uncertainty k = 0.341029
         7        13        18        17     9        0.000000       -0.309693         1    ;  uncertainty k = 0.712042
         7        13        18        17     9      180.000000        3.393193         2    ;  uncertainty k = 0.709425
         7        13        18        17     9        0.000000        0.103615         3    ;  uncertainty k = 0.412913
         7        13        18        17     9      180.000000        0.903768         4    ;  uncertainty k = 0.515093
         7        13        18        19     9        0.000000        0.677440         1    ;  uncertainty k = 1.458739
         7        13        18        19     9      180.000000        4.120135         2    ;  uncertainty k = 1.176494
         7        13        18        19     9        0.000000        0.642766         3    ;  uncertainty k = 0.581150
         7        13        18        19     9      180.000000        0.581332         4    ;  uncertainty k = 0.393078
         8         7        12        11     9        0.000000       -0.059613         1    ;  uncertainty k = 0.390721
         8         7        12        11     9      180.000000       13.677971         2    ;  uncertainty k = 0.385966
         8         7        12        11     9        0.000000       -0.066174         3    ;  uncertainty k = 0.383836
         8         7        12        11     9      180.000000        1.002323         4    ;  uncertainty k = 0.380352
         8         7        12        35     9        0.000000        0.350547         1    ;  uncertainty k = 0.392635
         8         7        12        35     9      180.000000        8.970548         2    ;  uncertainty k = 0.617174
         8         7        12        35     9        0.000000        1.316713         3    ;  uncertainty k = 0.233475
         8         7        12        35     9      180.000000        1.652268         4    ;  uncertainty k = 0.214461
         8         7        13        14     9        0.000000       -2.102666         1    ;  uncertainty k = 1.641231
         8         7        13        14     9      180.000000        5.858516         2    ;  uncertainty k = 0.636318
         8         7        13        14     9        0.000000       -0.190551         3    ;  uncertainty k = 0.455059
         8         7        13        14     9      180.000000        0.256709         4    ;  uncertainty k = 0.142918
         8         7        13        18     9        0.000000        4.705013         1    ;  uncertainty k = 0.577369
         8         7        13        18     9      180.000000        3.084034         2    ;  uncertainty k = 0.572697
         8         7        13        18     9        0.000000        1.095758         3    ;  uncertainty k = 0.586531
         8         7        13        18     9      180.000000        0.126333         4    ;  uncertainty k = 0.100902
         8         9        10        11     9        0.000000       -0.049415         1    ;  uncertainty k = 0.329845
         8         9        10        11     9      180.000000       13.817914         2    ;  uncertainty k = 0.293134
         8         9        10        11     9        0.000000       -1.876828         3    ;  uncertainty k = 0.417756
         8         9        10        11     9      180.000000        0.658893         4    ;  uncertainty k = 0.232170
         8         9        10        33     9        0.000000        0.245556         1    ;  uncertainty k = 0.560979
         8         9        10        33     9      180.000000        7.320635         2    ;  uncertainty k = 0.644117
         8         9        10        33     9        0.000000        1.319436         3    ;  uncertainty k = 0.335591
         8         9        10        33     9      180.000000        1.284527         4    ;  uncertainty k = 0.329819
         8         9        22        23     9        0.000000        0.411611         1    ;  uncertainty k = 0.622850
         8         9        22        23     9      180.000000       13.112063         2    ;  uncertainty k = 1.094205
         8         9        22        23     9        0.000000      -10.933628         3    ;  uncertainty k = 2.385185
         8         9        22        23     9      180.000000        1.839654         4    ;  uncertainty k = 0.790923
         8         9        22        44     9        0.000000        0.199459         1    ;  uncertainty k = 0.702079
         8         9        22        44     9      180.000000        8.637204         2    ;  uncertainty k = 0.504159
         8         9        22        44     9        0.000000        1.214074         3    ;  uncertainty k = 0.223968
         8         9        22        44     9      180.000000        0.250138         4    ;  uncertainty k = 0.257868
         8        24        23        22     9        0.000000       -0.060906         1    ;  uncertainty k = 0.479940
         8        24        23        22     9      180.000000       16.538255         2    ;  uncertainty k = 0.300021
         8        24        23        22     9        0.000000       -7.306920         3    ;  uncertainty k = 1.621501
         8        24        23        22     9      180.000000        0.765262         4    ;  uncertainty k = 0.567793
         8        24        23        45     9        0.000000        1.180814         1    ;  uncertainty k = 0.603740
         8        24        23        45     9      180.000000        7.217452         2    ;  uncertainty k = 1.005055
         8        24        23        45     9        0.000000        1.369988         3    ;  uncertainty k = 0.235903
         8        24        23        45     9      180.000000        0.135272         4    ;  uncertainty k = 0.219516
         9         8         7        12     9        0.000000       -0.202130         1    ;  uncertainty k = 0.235141
         9         8         7        12     9      180.000000        9.544502         2    ;  uncertainty k = 0.277804
         9         8         7        12     9        0.000000       -0.594038         3    ;  uncertainty k = 0.469313
         9         8         7        12     9      180.000000        0.966156         4    ;  uncertainty k = 0.177137
         9         8         7        13     9        0.000000        0.138127         1    ;  uncertainty k = 0.520181
         9         8         7        13     9      180.000000        7.173565         2    ;  uncertainty k = 0.790225
         9         8         7        13     9        0.000000        0.989030         3    ;  uncertainty k = 0.209596
         9         8         7        13     9      180.000000        1.348446         4    ;  uncertainty k = 0.294180
         9         8        24        23     9        0.000000        0.441433         1    ;  uncertainty k = 0.589949
         9         8        24        23     9      180.000000       17.246956         2    ;  uncertainty k = 0.723414
         9         8        24        23     9        0.000000       -7.835796         3    ;  uncertainty k = 1.749800
         9         8        24        23     9      180.000000        0.397032         4    ;  uncertainty k = 0.366798
         9         8        24        46     9        0.000000        4.458443         1    ;  uncertainty k = 1.764089
         9         8        24        46     9      180.000000        5.128253         2    ;  uncertainty k = 1.101573
         9         8        24        46     9        0.000000        1.195330         3    ;  uncertainty k = 0.031551
         9         8        24        46     9      180.000000        0.224137         4    ;  uncertainty k = 0.121524
         9        10        11        12     9        0.000000        0.029563         1    ;  uncertainty k = 0.390461
         9        10        11        12     9      180.000000       16.288449         2    ;  uncertainty k = 0.191282
         9        10        11        12     9        0.000000       -0.580823         3    ;  uncertainty k = 0.314540
         9        10        11        12     9      180.000000        0.653520         4    ;  uncertainty k = 0.312211
         9        10        11        34     9        0.000000        0.079879         1    ;  uncertainty k = 0.362518
         9        10        11        34     9      180.000000       11.229965         2    ;  uncertainty k = 0.356342
         9        10        11        34     9        0.000000        1.510934         3    ;  uncertainty k = 0.321542
         9        10        11        34     9      180.000000        1.634878         4    ;  uncertainty k = 0.225946
         9        22        23        24     9        0.000000       -0.196172         1    ;  uncertainty k = 0.310109
         9        22        23        24     9      180.000000       22.280765         2    ;  uncertainty k = 0.333255
         9        22        23        24     9        0.000000       -6.483172         3    ;  uncertainty k = 0.532529
         9        22        23        24     9      180.000000        1.357329         4    ;  uncertainty k = 0.378792
         9        22        23        45     9        0.000000        0.090584         1    ;  uncertainty k = 0.386633
         9        22        23        45     9      180.000000       13.268890         2    ;  uncertainty k = 0.110880
         9        22        23        45     9        0.000000        1.814306         3    ;  uncertainty k = 0.176808
         9        22        23        45     9      180.000000        0.955460         4    ;  uncertainty k = 0.217631
        10         9         8        24     9        0.000000       -0.050301         1    ;  uncertainty k = 0.621727
        10         9         8        24     9      180.000000        8.799940         2    ;  uncertainty k = 0.238880
        10         9         8        24     9        0.000000       -0.160644         3    ;  uncertainty k = 0.550241
        10         9         8        24     9      180.000000        1.253032         4    ;  uncertainty k = 0.190095
        10         9        22        23     9        0.000000        0.547906         1    ;  uncertainty k = 0.886006
        10         9        22        23     9      180.000000        6.684511         2    ;  uncertainty k = 1.095299
        10         9        22        23     9        0.000000        0.289337         3    ;  uncertainty k = 0.630290
        10         9        22        23     9      180.000000        0.930060         4    ;  uncertainty k = 0.160167
        10         9        22        44     9        0.000000        0.603988         1    ;  uncertainty k = 0.882381
        10         9        22        44     9      180.000000        3.939946         2    ;  uncertainty k = 0.841639
        10         9        22        44     9        0.000000        1.275392         3    ;  uncertainty k = 0.372246
        10         9        22        44     9      180.000000        0.087277         4    ;  uncertainty k = 0.127373
        10        11        12        35     9        0.000000       -0.134395         1    ;  uncertainty k = 0.161401
        10        11        12        35     9      180.000000        7.239842         2    ;  uncertainty k = 0.277826
        10        11        12        35     9        0.000000        1.302287         3    ;  uncertainty k = 0.180539
        10        11        12        35     9      180.000000        1.643967         4    ;  uncertainty k = 0.168041
        11        10         9        22     9        0.000000        0.190991         1    ;  uncertainty k = 0.198604
        11        10         9        22     9      180.000000        9.316632         2    ;  uncertainty k = 0.260867
        11        10         9        22     9        0.000000        0.773207         3    ;  uncertainty k = 0.270995
        11        10         9        22     9      180.000000        1.310350         4    ;  uncertainty k = 0.143305
        11        12         7        13     9        0.000000        0.158813         1    ;  uncertainty k = 0.135205
        11        12         7        13     9      180.000000        9.878138         2    ;  uncertainty k = 0.565499
        11        12         7        13     9        0.000000        1.132299         3    ;  uncertainty k = 0.199858
        11        12         7        13     9      180.000000        1.835141         4    ;  uncertainty k = 0.253049
        12         7         8        24     9        0.000000       -0.104652         1    ;  uncertainty k = 0.536044
        12         7         8        24     9      180.000000        8.218798         2    ;  uncertainty k = 0.661698
        12         7         8        24     9        0.000000        1.022641         3    ;  uncertainty k = 0.192020
        12         7         8        24     9      180.000000        1.242816         4    ;  uncertainty k = 0.210180
        12         7        13        14     9        0.000000        1.066529         1    ;  uncertainty k = 0.559042
        12         7        13        14     9      180.000000        5.693480         2    ;  uncertainty k = 0.426209
        12         7        13        14     9        0.000000        0.622742         3    ;  uncertainty k = 0.189518
        12         7        13        14     9      180.000000        0.335922         4    ;  uncertainty k = 0.198647
        12         7        13        18     9        0.000000        0.444637         1    ;  uncertainty k = 1.332263
        12         7        13        18     9      180.000000        3.397862         2    ;  uncertainty k = 0.187096
        12         7        13        18     9        0.000000        0.841489         3    ;  uncertainty k = 0.311139
        12         7        13        18     9      180.000000        0.186373         4    ;  uncertainty k = 0.126449
        12        11        10        33     9        0.000000        0.227473         1    ;  uncertainty k = 0.166730
        12        11        10        33     9      180.000000        8.374710         2    ;  uncertainty k = 0.451363
        12        11        10        33     9        0.000000        1.545268         3    ;  uncertainty k = 0.197462
        12        11        10        33     9      180.000000        1.861081         4    ;  uncertainty k = 0.211005
        13         7         8        24     9        0.000000        0.154008         1    ;  uncertainty k = 0.531093
        13         7         8        24     9      180.000000        6.295826         2    ;  uncertainty k = 0.985656
        13         7         8        24     9        0.000000        1.216727         3    ;  uncertainty k = 0.222888
        13         7         8        24     9      180.000000        1.332132         4    ;  uncertainty k = 0.306785
        13         7        12        35     9        0.000000       -0.274940         1    ;  uncertainty k = 0.323309
        13         7        12        35     9      180.000000        7.317670         2    ;  uncertainty k = 0.201563
        13         7        12        35     9        0.000000        0.779575         3    ;  uncertainty k = 0.329707
        13         7        12        35     9      180.000000        1.250759         4    ;  uncertainty k = 0.172019
        13        14        15        16     9        0.000000        0.319517         1    ;  uncertainty k = 1.190504
        13        14        15        16     9      180.000000       16.079427         2    ;  uncertainty k = 0.282287
        13        14        15        16     9        0.000000        1.030559         3    ;  uncertainty k = 0.421373
        13        14        15        16     9      180.000000        1.540018         4    ;  uncertainty k = 0.241349
        13        14        15        36     9        0.000000        0.246321         1    ;  uncertainty k = 0.508509
        13        14        15        36     9      180.000000       15.471772         2    ;  uncertainty k = 0.477663
        13        14        15        36     9        0.000000        2.246167         3    ;  uncertainty k = 0.504793
        13        14        15        36     9      180.000000        1.650500         4    ;  uncertainty k = 0.261253
        13        18        17        16     9        0.000000        1.886942         1    ;  uncertainty k = 1.383088
        13        18        17        16     9      180.000000        7.709144         2    ;  uncertainty k = 1.010103
        13        18        17        16     9        0.000000        1.292868         3    ;  uncertainty k = 0.480146
        13        18        17        16     9      180.000000        0.982562         4    ;  uncertainty k = 0.441483
        13        18        19        37     9        0.000000       11.931795         1    ;  uncertainty k = 0.345663
        13        18        19        37     9      180.000000        5.652549         2    ;  uncertainty k = 0.507808
        13        18        19        37     9        0.000000        0.973515         3    ;  uncertainty k = 0.221288
        13        18        19        37     9      180.000000        0.076862         4    ;  uncertainty k = 0.098487
        13        18        19        38     9        0.000000       11.931795         1    ;  uncertainty k = 0.345663
        13        18        19        38     9      180.000000        5.652549         2    ;  uncertainty k = 0.507808
        13        18        19        38     9        0.000000        0.973515         3    ;  uncertainty k = 0.221288
        13        18        19        38     9      180.000000        0.076862         4    ;  uncertainty k = 0.098487
        14        13        18        17     9        0.000000       -0.997641         1    ;  uncertainty k = 1.086932
        14        13        18        17     9      180.000000        4.134768         2    ;  uncertainty k = 1.886852
        14        13        18        17     9        0.000000       -0.595384         3    ;  uncertainty k = 0.730983
        14        13        18        17     9      180.000000        0.889918         4    ;  uncertainty k = 0.508250
        14        13        18        19     9        0.000000        0.591235         1    ;  uncertainty k = 0.790922
        14        13        18        19     9      180.000000        3.778818         2    ;  uncertainty k = 1.381414
        14        13        18        19     9        0.000000        0.367620         3    ;  uncertainty k = 0.250700
        14        13        18        19     9      180.000000        0.742251         4    ;  uncertainty k = 0.336198
        14        15        16        17     9        0.000000       -0.867141         1    ;  uncertainty k = 0.274749
        14        15        16        17     9      180.000000        6.120815         2    ;  uncertainty k = 1.189963
        14        15        16        17     9        0.000000       -0.616637         3    ;  uncertainty k = 0.539998
        14        15        16        17     9      180.000000        0.949106         4    ;  uncertainty k = 0.515917
        15        14        13        18     9        0.000000        0.643050         1    ;  uncertainty k = 1.166125
        15        14        13        18     9      180.000000       13.945770         2    ;  uncertainty k = 0.193898
        15        14        13        18     9        0.000000        1.630784         3    ;  uncertainty k = 0.547609
        15        14        13        18     9      180.000000        1.205887         4    ;  uncertainty k = 0.354675
        15        16        17        18     9        0.000000        1.040177         1    ;  uncertainty k = 0.786658
        15        16        17        18     9      180.000000        7.726278         2    ;  uncertainty k = 0.689171
        15        16        17        18     9        0.000000        1.181486         3    ;  uncertainty k = 0.414603
        15        16        17        18     9      180.000000        0.844426         4    ;  uncertainty k = 0.178788
        16         1         2        25     9        0.000000        0.234242         1    ;  uncertainty k = 0.506972
        16         1         2        25     9      180.000000       -0.772552         2    ;  uncertainty k = 0.174804
        16         1         2        25     9        0.000000        0.176841         3    ;  uncertainty k = 0.144443
        16         1         2        25     9      180.000000        0.227897         4    ;  uncertainty k = 0.066921
        16         1         2        26     9        0.000000        0.234242         1    ;  uncertainty k = 0.506972
        16         1         2        26     9      180.000000       -0.772552         2    ;  uncertainty k = 0.174804
        16         1         2        26     9        0.000000        0.176841         3    ;  uncertainty k = 0.144443
        16         1         2        26     9      180.000000        0.227897         4    ;  uncertainty k = 0.066921
        16         1         6        31     9        0.000000        0.234242         1    ;  uncertainty k = 0.506972
        16         1         6        31     9      180.000000       -0.772552         2    ;  uncertainty k = 0.174804
        16         1         6        31     9        0.000000        0.176841         3    ;  uncertainty k = 0.144443
        16         1         6        31     9      180.000000        0.227897         4    ;  uncertainty k = 0.066921
        16         1         6        32     9        0.000000        0.234242         1    ;  uncertainty k = 0.506972
        16         1         6        32     9      180.000000       -0.772552         2    ;  uncertainty k = 0.174804
        16         1         6        32     9        0.000000        0.176841         3    ;  uncertainty k = 0.144443
        16         1         6        32     9      180.000000        0.227897         4    ;  uncertainty k = 0.066921
        16        17        18        19     9        0.000000        0.644753         1    ;  uncertainty k = 1.130347
        16        17        18        19     9      180.000000       14.204057         2    ;  uncertainty k = 0.363896
        16        17        18        19     9        0.000000        2.567638         3    ;  uncertainty k = 0.460215
        16        17        18        19     9      180.000000        1.731088         4    ;  uncertainty k = 0.135166
        17        16        15        36     9        0.000000        0.416925         1    ;  uncertainty k = 1.170515
        17        16        15        36     9      180.000000        4.255317         2    ;  uncertainty k = 0.875820
        17        16        15        36     9        0.000000        0.905378         3    ;  uncertainty k = 0.477116
        17        16        15        36     9      180.000000        0.938900         4    ;  uncertainty k = 0.130802
        17        18        19        37     9        0.000000       19.981278         1    ;  uncertainty k = 0.176226
        17        18        19        37     9      180.000000       11.582234         2    ;  uncertainty k = 0.281952
        17        18        19        37     9        0.000000        0.478176         3    ;  uncertainty k = 0.063740
        17        18        19        37     9      180.000000       -0.339362         4    ;  uncertainty k = 0.260772
        17        18        19        38     9        0.000000       19.981278         1    ;  uncertainty k = 0.176226
        17        18        19        38     9      180.000000       11.582234         2    ;  uncertainty k = 0.281952
        17        18        19        38     9        0.000000        0.478176         3    ;  uncertainty k = 0.063740
        17        18        19        38     9      180.000000       -0.339362         4    ;  uncertainty k = 0.260772
        20         4         3        27     9        0.000000       -0.953768         1    ;  uncertainty k = 0.757469
        20         4         3        27     9      180.000000       -1.816826         2    ;  uncertainty k = 0.442932
        20         4         3        27     9        0.000000        0.532727         3    ;  uncertainty k = 0.157901
        20         4         3        27     9      180.000000       -0.244066         4    ;  uncertainty k = 0.144685
        20         4         3        28     9        0.000000       -0.953768         1    ;  uncertainty k = 0.757469
        20         4         3        28     9      180.000000       -1.816826         2    ;  uncertainty k = 0.442932
        20         4         3        28     9        0.000000        0.532727         3    ;  uncertainty k = 0.157901
        20         4         3        28     9      180.000000       -0.244066         4    ;  uncertainty k = 0.144685
        20         4         5        29     9        0.000000       -0.953768         1    ;  uncertainty k = 0.757469
        20         4         5        29     9      180.000000       -1.816826         2    ;  uncertainty k = 0.442932
        20         4         5        29     9        0.000000        0.532727         3    ;  uncertainty k = 0.157901
        20         4         5        29     9      180.000000       -0.244066         4    ;  uncertainty k = 0.144685
        20         4         5        30     9        0.000000       -0.953768         1    ;  uncertainty k = 0.757469
        20         4         5        30     9      180.000000       -1.816826         2    ;  uncertainty k = 0.442932
        20         4         5        30     9        0.000000        0.532727         3    ;  uncertainty k = 0.157901
        20         4         5        30     9      180.000000       -0.244066         4    ;  uncertainty k = 0.144685
        20         4        21        41     9        0.000000       -1.658331         1    ;  uncertainty k = 1.431247
        20         4        21        41     9      180.000000       -2.618283         2    ;  uncertainty k = 0.451254
        20         4        21        41     9        0.000000        0.778238         3    ;  uncertainty k = 0.254190
        20         4        21        41     9      180.000000       -0.194334         4    ;  uncertainty k = 0.172569
        20         4        21        42     9        0.000000       -1.658331         1    ;  uncertainty k = 1.431247
        20         4        21        42     9      180.000000       -2.618283         2    ;  uncertainty k = 0.451254
        20         4        21        42     9        0.000000        0.778238         3    ;  uncertainty k = 0.254190
        20         4        21        42     9      180.000000       -0.194334         4    ;  uncertainty k = 0.172569
        20         4        21        43     9        0.000000       -1.658331         1    ;  uncertainty k = 1.431247
        20         4        21        43     9      180.000000       -2.618283         2    ;  uncertainty k = 0.451254
        20         4        21        43     9        0.000000        0.778238         3    ;  uncertainty k = 0.254190
        20         4        21        43     9      180.000000       -0.194334         4    ;  uncertainty k = 0.172569
        21         4         3        27     9        0.000000       -0.343027         1    ;  uncertainty k = 0.403495
        21         4         3        27     9      180.000000       -0.061672         2    ;  uncertainty k = 0.389274
        21         4         3        27     9        0.000000        0.274791         3    ;  uncertainty k = 0.213692
        21         4         3        27     9      180.000000       -0.053928         4    ;  uncertainty k = 0.077785
        21         4         3        28     9        0.000000       -0.343027         1    ;  uncertainty k = 0.403495
        21         4         3        28     9      180.000000       -0.061672         2    ;  uncertainty k = 0.389274
        21         4         3        28     9        0.000000        0.274791         3    ;  uncertainty k = 0.213692
        21         4         3        28     9      180.000000       -0.053928         4    ;  uncertainty k = 0.077785
        21         4         5        29     9        0.000000       -0.343027         1    ;  uncertainty k = 0.403495
        21         4         5        29     9      180.000000       -0.061672         2    ;  uncertainty k = 0.389274
        21         4         5        29     9        0.000000        0.274791         3    ;  uncertainty k = 0.213692
        21         4         5        29     9      180.000000       -0.053928         4    ;  uncertainty k = 0.077785
        21         4         5        30     9        0.000000       -0.343027         1    ;  uncertainty k = 0.403495
        21         4         5        30     9      180.000000       -0.061672         2    ;  uncertainty k = 0.389274
        21         4         5        30     9        0.000000        0.274791         3    ;  uncertainty k = 0.213692
        21         4         5        30     9      180.000000       -0.053928         4    ;  uncertainty k = 0.077785
        21         4        20        39     9        0.000000        0.214190         1    ;  uncertainty k = 1.165374
        21         4        20        39     9      180.000000       -0.101716         2    ;  uncertainty k = 0.387076
        21         4        20        39     9        0.000000        0.750310         3    ;  uncertainty k = 0.221539
        21         4        20        39     9      180.000000       -0.027140         4    ;  uncertainty k = 0.139764
        21         4        20        40     9        0.000000        0.214190         1    ;  uncertainty k = 1.165374
        21         4        20        40     9      180.000000       -0.101716         2    ;  uncertainty k = 0.387076
        21         4        20        40     9        0.000000        0.750310         3    ;  uncertainty k = 0.221539
        21         4        20        40     9      180.000000       -0.027140         4    ;  uncertainty k = 0.139764
        21         4        20        47     9        0.000000        0.214190         1    ;  uncertainty k = 1.165374
        21         4        20        47     9      180.000000       -0.101716         2    ;  uncertainty k = 0.387076
        21         4        20        47     9        0.000000        0.750310         3    ;  uncertainty k = 0.221539
        21         4        20        47     9      180.000000       -0.027140         4    ;  uncertainty k = 0.139764
        22         9         8        24     9        0.000000       -0.325029         1    ;  uncertainty k = 0.427990
        22         9         8        24     9      180.000000       12.416054         2    ;  uncertainty k = 0.804447
        22         9         8        24     9        0.000000       -3.242595         3    ;  uncertainty k = 1.003969
        22         9         8        24     9      180.000000        1.550916         4    ;  uncertainty k = 0.661674
        22         9        10        33     9        0.000000        0.240966         1    ;  uncertainty k = 0.656289
        22         9        10        33     9      180.000000        5.443550         2    ;  uncertainty k = 0.489087
        22         9        10        33     9        0.000000        1.081563         3    ;  uncertainty k = 0.318485
        22         9        10        33     9      180.000000        0.741350         4    ;  uncertainty k = 0.314038
        22        23        24        46     9        0.000000        2.895574         1    ;  uncertainty k = 1.254613
        22        23        24        46     9      180.000000        8.598838         2    ;  uncertainty k = 0.558143
        22        23        24        46     9        0.000000        1.469851         3    ;  uncertainty k = 0.571335
        22        23        24        46     9      180.000000       -0.106697         4    ;  uncertainty k = 0.152023
        24        23        22        44     9        0.000000        0.455706         1    ;  uncertainty k = 0.662813
        24        23        22        44     9      180.000000       15.627264         2    ;  uncertainty k = 0.208126
        24        23        22        44     9        0.000000        1.658284         3    ;  uncertainty k = 0.607897
        24        23        22        44     9      180.000000        0.835641         4    ;  uncertainty k = 0.328618
        25         2         3        27     9        0.000000        0.135397         1    ;  uncertainty k = 0.251784
        25         2         3        27     9      180.000000        0.391241         2    ;  uncertainty k = 0.363553
        25         2         3        27     9        0.000000        0.145808         3    ;  uncertainty k = 0.091162
        25         2         3        27     9      180.000000       -0.141138         4    ;  uncertainty k = 0.140090
        25         2         3        28     9        0.000000        0.135397         1    ;  uncertainty k = 0.251784
        25         2         3        28     9      180.000000        0.391241         2    ;  uncertainty k = 0.363553
        25         2         3        28     9        0.000000        0.145808         3    ;  uncertainty k = 0.091162
        25         2         3        28     9      180.000000       -0.141138         4    ;  uncertainty k = 0.140090
        26         2         3        27     9        0.000000        0.135397         1    ;  uncertainty k = 0.251784
        26         2         3        27     9      180.000000        0.391241         2    ;  uncertainty k = 0.363553
        26         2         3        27     9        0.000000        0.145808         3    ;  uncertainty k = 0.091162
        26         2         3        27     9      180.000000       -0.141138         4    ;  uncertainty k = 0.140090
        26         2         3        28     9        0.000000        0.135397         1    ;  uncertainty k = 0.251784
        26         2         3        28     9      180.000000        0.391241         2    ;  uncertainty k = 0.363553
        26         2         3        28     9        0.000000        0.145808         3    ;  uncertainty k = 0.091162
        26         2         3        28     9      180.000000       -0.141138         4    ;  uncertainty k = 0.140090
        29         5         6        31     9        0.000000        0.135397         1    ;  uncertainty k = 0.251784
        29         5         6        31     9      180.000000        0.391241         2    ;  uncertainty k = 0.363553
        29         5         6        31     9        0.000000        0.145808         3    ;  uncertainty k = 0.091162
        29         5         6        31     9      180.000000       -0.141138         4    ;  uncertainty k = 0.140090
        29         5         6        32     9        0.000000        0.135397         1    ;  uncertainty k = 0.251784
        29         5         6        32     9      180.000000        0.391241         2    ;  uncertainty k = 0.363553
        29         5         6        32     9        0.000000        0.145808         3    ;  uncertainty k = 0.091162
        29         5         6        32     9      180.000000       -0.141138         4    ;  uncertainty k = 0.140090
        30         5         6        31     9        0.000000        0.135397         1    ;  uncertainty k = 0.251784
        30         5         6        31     9      180.000000        0.391241         2    ;  uncertainty k = 0.363553
        30         5         6        31     9        0.000000        0.145808         3    ;  uncertainty k = 0.091162
        30         5         6        31     9      180.000000       -0.141138         4    ;  uncertainty k = 0.140090
        30         5         6        32     9        0.000000        0.135397         1    ;  uncertainty k = 0.251784
        30         5         6        32     9      180.000000        0.391241         2    ;  uncertainty k = 0.363553
        30         5         6        32     9        0.000000        0.145808         3    ;  uncertainty k = 0.091162
        30         5         6        32     9      180.000000       -0.141138         4    ;  uncertainty k = 0.140090
        33        10        11        34     9        0.000000        0.012090         1    ;  uncertainty k = 0.037634
        33        10        11        34     9      180.000000        7.969742         2    ;  uncertainty k = 0.197123
        33        10        11        34     9        0.000000       -0.192607         3    ;  uncertainty k = 0.274331
        33        10        11        34     9      180.000000        0.132710         4    ;  uncertainty k = 0.192645
        34        11        12        35     9        0.000000       -0.092082         1    ;  uncertainty k = 0.214022
        34        11        12        35     9      180.000000        7.097118         2    ;  uncertainty k = 0.455414
        34        11        12        35     9        0.000000       -0.286587         3    ;  uncertainty k = 0.188312
        34        11        12        35     9      180.000000        0.208087         4    ;  uncertainty k = 0.071035
        44        22        23        45     9        0.000000       -0.013546         1    ;  uncertainty k = 0.484315
        44        22        23        45     9      180.000000        6.047103         2    ;  uncertainty k = 0.790189
        44        22        23        45     9        0.000000        1.160726         3    ;  uncertainty k = 0.441287
        44        22        23        45     9      180.000000        0.327167         4    ;  uncertainty k = 0.081527
        45        23        24        46     9        0.000000       -0.523743         1    ;  uncertainty k = 1.020340
        45        23        24        46     9      180.000000        1.530766         2    ;  uncertainty k = 0.366215
        45        23        24        46     9        0.000000        1.050503         3    ;  uncertainty k = 0.389272
        45        23        24        46     9      180.000000        0.096206         4    ;  uncertainty k = 0.143432

[ dihedrals ] ; impropers
;       ai        aj        ak        al funct           phase               k        pn
         7         8        12        13     4      180.000000        8.453674         2    ;  uncertainty k = 0.259581
         7        12        13         8     4      180.000000        8.453674         2    ;  uncertainty k = 0.259581
         7        13         8        12     4      180.000000        8.453674         2    ;  uncertainty k = 0.259581
         8         7         9        24     4      180.000000        1.314574         2    ;  uncertainty k = 0.824648
         8         9        24         7     4      180.000000        1.314574         2    ;  uncertainty k = 0.824648
         8        24         7         9     4      180.000000        1.314574         2    ;  uncertainty k = 0.824648
         9         8        10        22     4      180.000000        0.291080         2    ;  uncertainty k = 0.650876
         9        10        22         8     4      180.000000        0.291080         2    ;  uncertainty k = 0.650876
         9        22         8        10     4      180.000000        0.291080         2    ;  uncertainty k = 0.650876
        10         9        11        33     4      180.000000        4.669023         2    ;  uncertainty k = 0.138207
        10        11        33         9     4      180.000000        4.669023         2    ;  uncertainty k = 0.138207
        10        33         9        11     4      180.000000        4.669023         2    ;  uncertainty k = 0.138207
        11        10        12        34     4      180.000000        2.709166         2    ;  uncertainty k = 0.151468
        11        12        34        10     4      180.000000        2.709166         2    ;  uncertainty k = 0.151468
        11        34        10        12     4      180.000000        2.709166         2    ;  uncertainty k = 0.151468
        12         7        11        35     4      180.000000        3.746316         2    ;  uncertainty k = 0.169668
        12        11        35         7     4      180.000000        3.746316         2    ;  uncertainty k = 0.169668
        12        35         7        11     4      180.000000        3.746316         2    ;  uncertainty k = 0.169668
        13         7        14        18     4      180.000000       17.750778         2    ;  uncertainty k = 0.109857
        13        14        18         7     4      180.000000       17.750778         2    ;  uncertainty k = 0.109857
        13        18         7        14     4      180.000000       17.750778         2    ;  uncertainty k = 0.109857
        15        14        16        36     4      180.000000        7.914603         2    ;  uncertainty k = 0.300402
        15        16        36        14     4      180.000000        7.914603         2    ;  uncertainty k = 0.300402
        15        36        14        16     4      180.000000        7.914603         2    ;  uncertainty k = 0.300402
        16         1        15        17     4      180.000000       31.812979         2    ;  uncertainty k = 0.067118
        16        15        17         1     4      180.000000       31.812979         2    ;  uncertainty k = 0.067118
        16        17         1        15     4      180.000000       31.812979         2    ;  uncertainty k = 0.067118
        18        13        17        19     4      180.000000       31.519880         2    ;  uncertainty k = 0.088217
        18        17        19        13     4      180.000000       31.519880         2    ;  uncertainty k = 0.088217
        18        19        13        17     4      180.000000       31.519880         2    ;  uncertainty k = 0.088217
        19        18        37        38     4      180.000000        0.299887         2    ;  uncertainty k = 0.536696
        19        37        38        18     4      180.000000        0.299887         2    ;  uncertainty k = 0.536696
        19        38        18        37     4      180.000000        0.299887         2    ;  uncertainty k = 0.536696
        23        22        24        45     4      180.000000        1.585128         2    ;  uncertainty k = 0.500228
        23        24        45        22     4      180.000000        1.585128         2    ;  uncertainty k = 0.500228
        23        45        22        24     4      180.000000        1.585128         2    ;  uncertainty k = 0.500228

[ pairs ]
;       ai        aj funct
         1         4     1
         1        14     1
         1        18     1
         1        27     1
         1        28     1
         1        29     1
         1        30     1
         1        36     1
         2         5     1
         2        15     1
         2        17     1
         2        20     1
         2        21     1
         2        31     1
         2        32     1
         3         6     1
         3        16     1
         3        29     1
         3        30     1
         3        39     1
         3        40     1
         3        41     1
         3        42     1
         3        43     1
         3        47     1
         4        25     1
         4        26     1
         4        31     1
         4        32     1
         5        16     1
         5        27     1
         5        28     1
         5        39     1
         5        40     1
         5        41     1
         5        42     1
         5        43     1
         5        47     1
         6        15     1
         6        17     1
         6        20     1
         6        21     1
         6        25     1
         6        26     1
         7        10     1
         7        15     1
         7        17     1
         7        19     1
         7        22     1
         7        23     1
         7        34     1
         7        46     1
         8        11     1
         8        14     1
         8        18     1
         8        33     1
         8        35     1
         8        44     1
         8        45     1
         9        12     1
         9        13     1
         9        34     1
         9        45     1
         9        46     1
        10        23     1
        10        24     1
        10        35     1
        10        44     1
        11        13     1
        11        22     1
        12        14     1
        12        18     1
        12        24     1
        12        33     1
        13        16     1
        13        24     1
        13        35     1
        13        36     1
        13        37     1
        13        38     1
        14        17     1
        14        19     1
        15        18     1
        16        19     1
        16        25     1
        16        26     1
        16        31     1
        16        32     1
        17        36     1
        17        37     1
        17        38     1
        20        27     1
        20        28     1
        20        29     1
        20        30     1
        20        41     1
        20        42     1
        20        43     1
        21        27     1
        21        28     1
        21        29     1
        21        30     1
        21        39     1
        21        40     1
        21        47     1
        22        33     1
        22        46     1
        24        44     1
        25        27     1
        25        28     1
        26        27     1
        26        28     1
        29        31     1
        29        32     1
        30        31     1
        30        32     1
        33        34     1
        34        35     1
        44        45     1
        45        46     1
