; ITP file created by ByteFF-joint-25, 2026-02-17 09:34:20.841143

[ atomtypes ]
;name           bonded.type        at.num        mass        charge   ptype           sigma         epsilon
 n0bf                                   7      0.0000       0.00000       A     3.19022e-01     9.00812e-01    ;  uncertainty sigma = 0.000019, epsilon = 0.003245
 c1bf                                   6      0.0000       0.00000       A     3.39781e-01     4.50774e-01    ;  uncertainty sigma = 0.000015, epsilon = 0.000876
 c2bf                                   6      0.0000       0.00000       A     3.39772e-01     4.50453e-01    ;  uncertainty sigma = 0.000017, epsilon = 0.000752
 c3bf                                   6      0.0000       0.00000       A     3.39755e-01     4.50382e-01    ;  uncertainty sigma = 0.000020, epsilon = 0.000692
 c4bf                                   6      0.0000       0.00000       A     3.39772e-01     4.50453e-01    ;  uncertainty sigma = 0.000017, epsilon = 0.000752
 c5bf                                   6      0.0000       0.00000       A     3.39781e-01     4.50774e-01    ;  uncertainty sigma = 0.000015, epsilon = 0.000876
 c6bf                                   6      0.0000       0.00000       A     3.31536e-01     4.13504e-01    ;  uncertainty sigma = 0.000013, epsilon = 0.001275
 c7bf                                   6      0.0000       0.00000       A     3.31513e-01     4.13559e-01    ;  uncertainty sigma = 0.000010, epsilon = 0.000750
 c8bf                                   6      0.0000       0.00000       A     3.31517e-01     4.13418e-01    ;  uncertainty sigma = 0.000007, epsilon = 0.000490
 c9bf                                   6      0.0000       0.00000       A     3.31517e-01     4.13339e-01    ;  uncertainty sigma = 0.000004, epsilon = 0.000628
 c10bf                                  6      0.0000       0.00000       A     3.31515e-01     4.13294e-01    ;  uncertainty sigma = 0.000004, epsilon = 0.000592
 c11bf                                  6      0.0000       0.00000       A     3.31518e-01     4.13425e-01    ;  uncertainty sigma = 0.000005, epsilon = 0.000679
 c12bf                                  6      0.0000       0.00000       A     3.31505e-01     4.12808e-01    ;  uncertainty sigma = 0.000012, epsilon = 0.001383
 n13bf                                  7      0.0000       0.00000       A     3.38420e-01     3.93674e-01    ;  uncertainty sigma = 0.000026, epsilon = 0.000494
 c14bf                                  6      0.0000       0.00000       A     3.31519e-01     4.13219e-01    ;  uncertainty sigma = 0.000013, epsilon = 0.001540
 c15bf                                  6      0.0000       0.00000       A     3.31484e-01     4.13405e-01    ;  uncertainty sigma = 0.000017, epsilon = 0.000785
 n16bf                                  7      0.0000       0.00000       A     3.38423e-01     3.93513e-01    ;  uncertainty sigma = 0.000038, epsilon = 0.000709
 c17bf                                  6      0.0000       0.00000       A     3.31485e-01     4.12040e-01    ;  uncertainty sigma = 0.000022, epsilon = 0.001412
 cl18bf                                17      0.0000       0.00000       A     3.46639e-01     1.10469e+00    ;  uncertainty sigma = 0.000020, epsilon = 0.001458
 cl19bf                                17      0.0000       0.00000       A     3.46596e-01     1.10464e+00    ;  uncertainty sigma = 0.000016, epsilon = 0.003016
 n20bf                                  7      0.0000       0.00000       A     3.36870e-01     4.67721e-01    ;  uncertainty sigma = 0.000043, epsilon = 0.002784
 c21bf                                  6      0.0000       0.00000       A     3.39730e-01     4.51508e-01    ;  uncertainty sigma = 0.000026, epsilon = 0.001702
 h22bf                                  1      0.0000       0.00000       A     2.42211e-01     8.67185e-02    ;  uncertainty sigma = 0.000008, epsilon = 0.000726
 h23bf                                  1      0.0000       0.00000       A     2.42211e-01     8.67185e-02    ;  uncertainty sigma = 0.000008, epsilon = 0.000726
 h24bf                                  1      0.0000       0.00000       A     2.60033e-01     8.67678e-02    ;  uncertainty sigma = 0.000018, epsilon = 0.000572
 h25bf                                  1      0.0000       0.00000       A     2.60033e-01     8.67678e-02    ;  uncertainty sigma = 0.000018, epsilon = 0.000572
 h26bf                                  1      0.0000       0.00000       A     2.60033e-01     8.67678e-02    ;  uncertainty sigma = 0.000018, epsilon = 0.000572
 h27bf                                  1      0.0000       0.00000       A     2.60033e-01     8.67678e-02    ;  uncertainty sigma = 0.000018, epsilon = 0.000572
 h28bf                                  1      0.0000       0.00000       A     2.42211e-01     8.67185e-02    ;  uncertainty sigma = 0.000008, epsilon = 0.000726
 h29bf                                  1      0.0000       0.00000       A     2.42211e-01     8.67185e-02    ;  uncertainty sigma = 0.000008, epsilon = 0.000726
 h30bf                                  1      0.0000       0.00000       A     2.62556e-01     6.70339e-02    ;  uncertainty sigma = 0.000007, epsilon = 0.000600
 h31bf                                  1      0.0000       0.00000       A     2.62563e-01     6.70978e-02    ;  uncertainty sigma = 0.000011, epsilon = 0.000541
 h32bf                                  1      0.0000       0.00000       A     2.53617e-01     6.68290e-02    ;  uncertainty sigma = 0.000021, epsilon = 0.000903
 h33bf                                  1      0.0000       0.00000       A     1.10722e-01     4.12462e-02    ;  uncertainty sigma = 0.000082, epsilon = 0.000527
 h34bf                                  1      0.0000       0.00000       A     1.10722e-01     4.12462e-02    ;  uncertainty sigma = 0.000082, epsilon = 0.000527
 h35bf                                  1      0.0000       0.00000       A     2.62568e-01     6.69665e-02    ;  uncertainty sigma = 0.000007, epsilon = 0.000468
 h36bf                                  1      0.0000       0.00000       A     1.88769e-01     8.70374e-02    ;  uncertainty sigma = 0.000121, epsilon = 0.001471
 n37bf                                  7      0.0000       0.00000       A     2.76716e-01     4.79089e+00    ;  uncertainty sigma = 0.000049, epsilon = 0.020254
 h38bf                                  1      0.0000       0.00000       A     1.88769e-01     8.70374e-02    ;  uncertainty sigma = 0.000121, epsilon = 0.001471
 h39bf                                  1      0.0000       0.00000       A     1.10677e-01     4.09874e-02    ;  uncertainty sigma = 0.000101, epsilon = 0.000320
 h40bf                                  1      0.0000       0.00000       A     1.10677e-01     4.09873e-02    ;  uncertainty sigma = 0.000101, epsilon = 0.000320
 h41bf                                  1      0.0000       0.00000       A     2.60054e-01     8.62660e-02    ;  uncertainty sigma = 0.000026, epsilon = 0.001672
 h42bf                                  1      0.0000       0.00000       A     1.10677e-01     4.09873e-02    ;  uncertainty sigma = 0.000101, epsilon = 0.000320

[ moleculetype ]
;name             nrexcl
 MOL                   3

[ atoms ]
;       nr            type      resi   res      atom      cgnr      charge          mass ; qtot
         1            n0bf         1   UNL        n0         1    -0.78965       14.0070 ; qtot   -0.790
         2            c1bf         1   UNL        c1         2     0.21808       12.0110 ; qtot   -0.572
         3            c2bf         1   UNL        c2         3    -0.09304       12.0110 ; qtot   -0.665
         4            c3bf         1   UNL        c3         4    -0.09007       12.0110 ; qtot   -0.755
         5            c4bf         1   UNL        c4         5    -0.09304       12.0110 ; qtot   -0.848
         6            c5bf         1   UNL        c5         6     0.21808       12.0110 ; qtot   -0.630
         7            c6bf         1   UNL        c6         7    -0.10693       12.0110 ; qtot   -0.737
         8            c7bf         1   UNL        c7         8     0.05136       12.0110 ; qtot   -0.685
         9            c8bf         1   UNL        c8         9     0.02451       12.0110 ; qtot   -0.661
        10            c9bf         1   UNL        c9        10    -0.10171       12.0110 ; qtot   -0.762
        11           c10bf         1   UNL       c10        11    -0.12241       12.0110 ; qtot   -0.885
        12           c11bf         1   UNL       c11        12    -0.10124       12.0110 ; qtot   -0.986
        13           c12bf         1   UNL       c12        13     0.24281       12.0110 ; qtot   -0.743
        14           n13bf         1   UNL       n13        14    -0.57523       14.0070 ; qtot   -1.318
        15           c14bf         1   UNL       c14        15     0.18680       12.0110 ; qtot   -1.132
        16           c15bf         1   UNL       c15        16     0.61466       12.0110 ; qtot   -0.517
        17           n16bf         1   UNL       n16        17    -0.80600       14.0070 ; qtot   -1.323
        18           c17bf         1   UNL       c17        18     0.59046       12.0110 ; qtot   -0.733
        19          cl18bf         1   UNL      cl18        19    -0.08348       35.4530 ; qtot   -0.816
        20          cl19bf         1   UNL      cl19        20    -0.07905       35.4530 ; qtot   -0.895
        21           n20bf         1   UNL       n20        21    -0.91364       14.0070 ; qtot   -1.809
        22           c21bf         1   UNL       c21        22     0.15090       12.0110 ; qtot   -1.658
        23           h22bf         1   UNL       h22        23     0.05802        1.0080 ; qtot   -1.600
        24           h23bf         1   UNL       h23        24     0.05802        1.0080 ; qtot   -1.542
        25           h24bf         1   UNL       h24        25     0.06598        1.0080 ; qtot   -1.476
        26           h25bf         1   UNL       h25        26     0.06598        1.0080 ; qtot   -1.410
        27           h26bf         1   UNL       h26        27     0.06598        1.0080 ; qtot   -1.344
        28           h27bf         1   UNL       h27        28     0.06598        1.0080 ; qtot   -1.278
        29           h28bf         1   UNL       h28        29     0.05802        1.0080 ; qtot   -1.220
        30           h29bf         1   UNL       h29        30     0.05802        1.0080 ; qtot   -1.162
        31           h30bf         1   UNL       h30        31     0.15499        1.0080 ; qtot   -1.007
        32           h31bf         1   UNL       h31        32     0.15054        1.0080 ; qtot   -0.856
        33           h32bf         1   UNL       h32        33     0.03009        1.0080 ; qtot   -0.826
        34           h33bf         1   UNL       h33        34     0.41702        1.0080 ; qtot   -0.409
        35           h34bf         1   UNL       h34        35     0.41702        1.0080 ; qtot    0.008
        36           h35bf         1   UNL       h35        36     0.14497        1.0080 ; qtot    0.153
        37           h36bf         1   UNL       h36        37     0.11091        1.0080 ; qtot    0.264
        38           n37bf         1   UNL       n37        38    -0.85371       14.0070 ; qtot   -0.590
        39           h38bf         1   UNL       h38        39     0.11091        1.0080 ; qtot   -0.479
        40           h39bf         1   UNL       h39        40     0.46609        1.0080 ; qtot   -0.013
        41           h40bf         1   UNL       h40        41     0.46609        1.0080 ; qtot    0.453
        42           h41bf         1   UNL       h41        42     0.08082        1.0080 ; qtot    0.534
        43           h42bf         1   UNL       h42        43     0.46609        1.0080 ; qtot    1.000

[ bonds ]
;       ai        aj funct               r               k
         1         2     1        0.145264   249537.013428    ;  uncertainty r = 0.000127, k = 3.817396
         1         6     1        0.145264   249537.013428    ;  uncertainty r = 0.000127, k = 3.817396
         1        16     1        0.137811   300547.542627    ;  uncertainty r = 0.000140, k = 14.746348
         2         3     1        0.153687   210016.842749    ;  uncertainty r = 0.000102, k = 6.310000
         2        23     1        0.109649   307128.404639    ;  uncertainty r = 0.000036, k = 1.379829
         2        24     1        0.109649   307128.404639    ;  uncertainty r = 0.000036, k = 1.379829
         3         4     1        0.153967   207614.375342    ;  uncertainty r = 0.000115, k = 4.596173
         3        25     1        0.109618   309128.496582    ;  uncertainty r = 0.000040, k = 2.583519
         3        26     1        0.109618   309128.496582    ;  uncertainty r = 0.000040, k = 2.583519
         4         5     1        0.153967   207614.375342    ;  uncertainty r = 0.000115, k = 4.596173
         4        22     1        0.153356   192569.621484    ;  uncertainty r = 0.000352, k = 8.173325
         4        42     1        0.109772   304417.053125    ;  uncertainty r = 0.000059, k = 4.326328
         5         6     1        0.153687   210016.842749    ;  uncertainty r = 0.000102, k = 6.310000
         5        27     1        0.109618   309128.496582    ;  uncertainty r = 0.000040, k = 2.583519
         5        28     1        0.109618   309128.496582    ;  uncertainty r = 0.000040, k = 2.583519
         6        29     1        0.109649   307128.404639    ;  uncertainty r = 0.000036, k = 1.379829
         6        30     1        0.109649   307128.404639    ;  uncertainty r = 0.000036, k = 1.379829
         7         8     1        0.140177   324779.782324    ;  uncertainty r = 0.000122, k = 6.865597
         7        12     1        0.140005   347541.263281    ;  uncertainty r = 0.000040, k = 3.883215
         7        13     1        0.148660   288818.297217    ;  uncertainty r = 0.000136, k = 10.736914
         8         9     1        0.140081   338158.290869    ;  uncertainty r = 0.000066, k = 1.557491
         8        20     1        0.174228   186667.254932    ;  uncertainty r = 0.000057, k = 4.731528
         9        10     1        0.139432   364703.069043    ;  uncertainty r = 0.000027, k = 3.877522
         9        19     1        0.174626   190975.416357    ;  uncertainty r = 0.000065, k = 1.953772
        10        11     1        0.139275   380193.470996    ;  uncertainty r = 0.000019, k = 0.375568
        10        31     1        0.108658   335617.322949    ;  uncertainty r = 0.000011, k = 0.544911
        11        12     1        0.139222   371106.856738    ;  uncertainty r = 0.000025, k = 1.271468
        11        36     1        0.108744   332681.040576    ;  uncertainty r = 0.000006, k = 1.317305
        12        32     1        0.108655   332465.507373    ;  uncertainty r = 0.000021, k = 1.100526
        13        14     1        0.133280   379205.287012    ;  uncertainty r = 0.000128, k = 16.163312
        13        18     1        0.139641   410097.119629    ;  uncertainty r = 0.000500, k = 21.910522
        14        15     1        0.132161   412924.026562    ;  uncertainty r = 0.000172, k = 12.217142
        15        16     1        0.139948   409481.011328    ;  uncertainty r = 0.000101, k = 17.555676
        15        33     1        0.109053   342858.038330    ;  uncertainty r = 0.000055, k = 1.857082
        16        17     1        0.135000   375593.343799    ;  uncertainty r = 0.000105, k = 21.004427
        17        18     1        0.135845   495535.860352    ;  uncertainty r = 0.000186, k = 17.158609
        18        21     1        0.140747   500285.864844    ;  uncertainty r = 0.000245, k = 33.620714
        21        34     1        0.101788   426937.489795    ;  uncertainty r = 0.000055, k = 2.235148
        21        35     1        0.101788   426937.489795    ;  uncertainty r = 0.000055, k = 2.235148
        22        37     1        0.109042   314566.496338    ;  uncertainty r = 0.000028, k = 3.494475
        22        38     1        0.151779   186582.803711    ;  uncertainty r = 0.000124, k = 22.357409
        22        39     1        0.109042   314566.496338    ;  uncertainty r = 0.000028, k = 3.494475
        38        40     1        0.102930   407921.357910    ;  uncertainty r = 0.000043, k = 2.398373
        38        41     1        0.102930   407921.357910    ;  uncertainty r = 0.000043, k = 2.398373
        38        43     1        0.102930   407921.357910    ;  uncertainty r = 0.000043, k = 2.398381

[ angles ]
;       ai        aj        ak funct           theta             cth
         1         2         3     1      109.553360      696.955597    ;  uncertainty theta = 0.001082, k = 0.027586
         1         2        23     1      106.761856      458.761976    ;  uncertainty theta = 0.001847, k = 0.020976
         1         2        24     1      106.761856      458.761976    ;  uncertainty theta = 0.001847, k = 0.020976
         1         6         5     1      109.553360      696.955597    ;  uncertainty theta = 0.001082, k = 0.027586
         1         6        29     1      106.761856      458.761976    ;  uncertainty theta = 0.001847, k = 0.020976
         1         6        30     1      106.761856      458.761976    ;  uncertainty theta = 0.001847, k = 0.020976
         1        16        15     1      120.580200      382.298667    ;  uncertainty theta = 0.008645, k = 0.253210
         1        16        17     1      122.001503      646.441088    ;  uncertainty theta = 0.004954, k = 0.116220
         2         1         6     1      108.032433      408.969209    ;  uncertainty theta = 0.014666, k = 0.106347
         2         1        16     1      110.834496      413.031206    ;  uncertainty theta = 0.002756, k = 0.122060
         2         3         4     1      110.204239      562.847020    ;  uncertainty theta = 0.001454, k = 0.163989
         2         3        25     1      107.959579      397.600727    ;  uncertainty theta = 0.001445, k = 0.073081
         2         3        26     1      107.959579      397.600727    ;  uncertainty theta = 0.001445, k = 0.073081
         3         2        23     1      109.087746      413.781231    ;  uncertainty theta = 0.002612, k = 0.073860
         3         2        24     1      109.087746      413.781231    ;  uncertainty theta = 0.002612, k = 0.073860
         3         4         5     1      109.773758      591.283549    ;  uncertainty theta = 0.003105, k = 0.127688
         3         4        22     1      109.398949      541.428280    ;  uncertainty theta = 0.004471, k = 0.211674
         3         4        42     1      108.270592      405.904405    ;  uncertainty theta = 0.001618, k = 0.057922
         4         3        25     1      108.538879      395.045388    ;  uncertainty theta = 0.002426, k = 0.095640
         4         3        26     1      108.538879      395.045388    ;  uncertainty theta = 0.002426, k = 0.095640
         4         5         6     1      110.204239      562.847020    ;  uncertainty theta = 0.001454, k = 0.163989
         4         5        27     1      108.538879      395.045388    ;  uncertainty theta = 0.002426, k = 0.095640
         4         5        28     1      108.538879      395.045388    ;  uncertainty theta = 0.002426, k = 0.095640
         4        22        37     1      110.708191      396.580902    ;  uncertainty theta = 0.003081, k = 0.080329
         4        22        38     1      111.254761      716.581121    ;  uncertainty theta = 0.004251, k = 0.241302
         4        22        39     1      110.708191      396.580902    ;  uncertainty theta = 0.003081, k = 0.080329
         5         4        22     1      109.398949      541.428280    ;  uncertainty theta = 0.004471, k = 0.211674
         5         4        42     1      108.270592      405.904405    ;  uncertainty theta = 0.001618, k = 0.057922
         5         6        29     1      109.087746      413.781231    ;  uncertainty theta = 0.002612, k = 0.073860
         5         6        30     1      109.087746      413.781231    ;  uncertainty theta = 0.002612, k = 0.073860
         6         1        16     1      110.834496      413.031206    ;  uncertainty theta = 0.002756, k = 0.122060
         6         5        27     1      107.959579      397.600727    ;  uncertainty theta = 0.001445, k = 0.073081
         6         5        28     1      107.959579      397.600727    ;  uncertainty theta = 0.001445, k = 0.073081
         7         8         9     1      123.942505      372.717272    ;  uncertainty theta = 0.005115, k = 0.175974
         7         8        20     1      117.586830      413.590022    ;  uncertainty theta = 0.003942, k = 0.085910
         7        12        11     1      121.207626      521.809300    ;  uncertainty theta = 0.002262, k = 0.031311
         7        12        32     1      118.435608      273.218405    ;  uncertainty theta = 0.003073, k = 0.075225
         7        13        14     1      118.799637      444.363898    ;  uncertainty theta = 0.006818, k = 0.204968
         7        13        18     1      120.516724      330.809662    ;  uncertainty theta = 0.006276, k = 0.323842
         8         7        12     1      121.723633      401.712712    ;  uncertainty theta = 0.004510, k = 0.226386
         8         7        13     1      120.507469      371.014297    ;  uncertainty theta = 0.001942, k = 0.165056
         8         9        10     1      121.600662      355.472030    ;  uncertainty theta = 0.004430, k = 0.117176
         8         9        19     1      120.568947      449.474768    ;  uncertainty theta = 0.001428, k = 0.087847
         9         8        20     1      120.137085      453.066019    ;  uncertainty theta = 0.003161, k = 0.095973
         9        10        11     1      118.521408      504.243759    ;  uncertainty theta = 0.003727, k = 0.077042
         9        10        31     1      119.895508      282.330875    ;  uncertainty theta = 0.002549, k = 0.077648
        10         9        19     1      120.234840      454.908777    ;  uncertainty theta = 0.002092, k = 0.126480
        10        11        12     1      119.323929      506.342974    ;  uncertainty theta = 0.002723, k = 0.050820
        10        11        36     1      120.122826      285.662511    ;  uncertainty theta = 0.000443, k = 0.032129
        11        10        31     1      121.361893      281.867473    ;  uncertainty theta = 0.001546, k = 0.022762
        11        12        32     1      120.750656      291.201861    ;  uncertainty theta = 0.001707, k = 0.042747
        12         7        13     1      121.398338      403.779398    ;  uncertainty theta = 0.001785, k = 0.104109
        12        11        36     1      120.387840      283.633077    ;  uncertainty theta = 0.001257, k = 0.017514
        13        14        15     1      123.274437      490.882999    ;  uncertainty theta = 0.009631, k = 0.168991
        13        18        17     1      120.787155      463.612431    ;  uncertainty theta = 0.007438, k = 0.235620
        13        18        21     1      122.328979      460.740208    ;  uncertainty theta = 0.007449, k = 0.446227
        14        13        18     1      118.869080      474.986053    ;  uncertainty theta = 0.007373, k = 0.306044
        14        15        16     1      120.183266      597.306923    ;  uncertainty theta = 0.004582, k = 0.107136
        14        15        33     1      117.268967      344.332774    ;  uncertainty theta = 0.004792, k = 0.078588
        15        16        17     1      118.995529      458.367779    ;  uncertainty theta = 0.003760, k = 0.125549
        16        15        33     1      122.337013      249.202509    ;  uncertainty theta = 0.003761, k = 0.182710
        16        17        18     1      118.746964      458.926052    ;  uncertainty theta = 0.004664, k = 0.229709
        17        18        21     1      126.385147      909.462078    ;  uncertainty theta = 0.004905, k = 0.131757
        18        21        34     1      117.319260      387.717865    ;  uncertainty theta = 0.001928, k = 0.166909
        18        21        35     1      117.319260      387.717865    ;  uncertainty theta = 0.001928, k = 0.166909
        22         4        42     1      105.201637      395.195418    ;  uncertainty theta = 0.002895, k = 0.102811
        22        38        40     1      110.369240      425.288061    ;  uncertainty theta = 0.003523, k = 0.071569
        22        38        41     1      110.369240      425.288061    ;  uncertainty theta = 0.003523, k = 0.071569
        22        38        43     1      110.369240      425.288061    ;  uncertainty theta = 0.003523, k = 0.071569
        23         2        24     1      105.304832      325.117919    ;  uncertainty theta = 0.001727, k = 0.066671
        25         3        26     1      105.241089      314.423967    ;  uncertainty theta = 0.001528, k = 0.043143
        27         5        28     1      105.241089      314.423967    ;  uncertainty theta = 0.001528, k = 0.043143
        29         6        30     1      105.304832      325.117919    ;  uncertainty theta = 0.001727, k = 0.066671
        34        21        35     1      108.264320      277.112176    ;  uncertainty theta = 0.001999, k = 0.081832
        37        22        38     1      105.241493      461.734240    ;  uncertainty theta = 0.001668, k = 0.119606
        37        22        39     1      108.202194      318.171794    ;  uncertainty theta = 0.003073, k = 0.078290
        38        22        39     1      105.241493      461.734240    ;  uncertainty theta = 0.001668, k = 0.119606
        40        38        41     1      108.551819      382.415085    ;  uncertainty theta = 0.003870, k = 0.044389
        40        38        43     1      108.551819      382.415085    ;  uncertainty theta = 0.003870, k = 0.044389
        41        38        43     1      108.551819      382.415085    ;  uncertainty theta = 0.003870, k = 0.044389

[ dihedrals ] ; propers for gromacs 4.5 or higher, use funct 9
;       ai        aj        ak        al funct           phase               k        pn
         1         2         3         4     9        0.000000        2.426492         1    ;  uncertainty k = 1.041261
         1         2         3         4     9      180.000000       -3.351932         2    ;  uncertainty k = 0.898607
         1         2         3         4     9        0.000000        2.117787         3    ;  uncertainty k = 0.350210
         1         2         3         4     9      180.000000       -0.516805         4    ;  uncertainty k = 0.181015
         1         2         3        25     9        0.000000       -1.878415         1    ;  uncertainty k = 0.716149
         1         2         3        25     9      180.000000       -0.005469         2    ;  uncertainty k = 0.356193
         1         2         3        25     9        0.000000        1.285811         3    ;  uncertainty k = 0.225071
         1         2         3        25     9      180.000000       -0.311402         4    ;  uncertainty k = 0.070886
         1         2         3        26     9        0.000000       -1.878415         1    ;  uncertainty k = 0.716149
         1         2         3        26     9      180.000000       -0.005469         2    ;  uncertainty k = 0.356193
         1         2         3        26     9        0.000000        1.285811         3    ;  uncertainty k = 0.225071
         1         2         3        26     9      180.000000       -0.311402         4    ;  uncertainty k = 0.070886
         1         6         5         4     9        0.000000        2.426492         1    ;  uncertainty k = 1.041261
         1         6         5         4     9      180.000000       -3.351932         2    ;  uncertainty k = 0.898607
         1         6         5         4     9        0.000000        2.117787         3    ;  uncertainty k = 0.350210
         1         6         5         4     9      180.000000       -0.516805         4    ;  uncertainty k = 0.181015
         1         6         5        27     9        0.000000       -1.878415         1    ;  uncertainty k = 0.716149
         1         6         5        27     9      180.000000       -0.005469         2    ;  uncertainty k = 0.356193
         1         6         5        27     9        0.000000        1.285811         3    ;  uncertainty k = 0.225071
         1         6         5        27     9      180.000000       -0.311402         4    ;  uncertainty k = 0.070886
         1         6         5        28     9        0.000000       -1.878415         1    ;  uncertainty k = 0.716149
         1         6         5        28     9      180.000000       -0.005469         2    ;  uncertainty k = 0.356193
         1         6         5        28     9        0.000000        1.285811         3    ;  uncertainty k = 0.225071
         1         6         5        28     9      180.000000       -0.311402         4    ;  uncertainty k = 0.070886
         1        16        15        14     9        0.000000       -0.064586         1    ;  uncertainty k = 1.020173
         1        16        15        14     9      180.000000        5.000205         2    ;  uncertainty k = 1.188768
         1        16        15        14     9        0.000000        0.403162         3    ;  uncertainty k = 0.195682
         1        16        15        14     9      180.000000        0.907681         4    ;  uncertainty k = 0.398927
         1        16        15        33     9        0.000000        0.535099         1    ;  uncertainty k = 1.793082
         1        16        15        33     9      180.000000        3.612696         2    ;  uncertainty k = 0.649620
         1        16        15        33     9        0.000000        0.683714         3    ;  uncertainty k = 0.347005
         1        16        15        33     9      180.000000        0.635397         4    ;  uncertainty k = 0.300148
         1        16        17        18     9        0.000000        0.688270         1    ;  uncertainty k = 0.907894
         1        16        17        18     9      180.000000       13.490566         2    ;  uncertainty k = 0.474862
         1        16        17        18     9        0.000000        2.231426         3    ;  uncertainty k = 0.535893
         1        16        17        18     9      180.000000        1.303510         4    ;  uncertainty k = 0.435538
         2         1         6         5     9        0.000000       -6.223373         1    ;  uncertainty k = 2.460055
         2         1         6         5     9      180.000000        1.342606         2    ;  uncertainty k = 0.618215
         2         1         6         5     9        0.000000        1.090961         3    ;  uncertainty k = 0.387680
         2         1         6         5     9      180.000000       -0.456033         4    ;  uncertainty k = 0.197734
         2         1         6        29     9        0.000000       -6.288841         1    ;  uncertainty k = 1.948261
         2         1         6        29     9      180.000000        0.684530         2    ;  uncertainty k = 0.203263
         2         1         6        29     9        0.000000        0.830248         3    ;  uncertainty k = 0.065016
         2         1         6        29     9      180.000000       -0.093097         4    ;  uncertainty k = 0.088857
         2         1         6        30     9        0.000000       -6.288841         1    ;  uncertainty k = 1.948261
         2         1         6        30     9      180.000000        0.684530         2    ;  uncertainty k = 0.203263
         2         1         6        30     9        0.000000        0.830248         3    ;  uncertainty k = 0.065016
         2         1         6        30     9      180.000000       -0.093097         4    ;  uncertainty k = 0.088857
         2         1        16        15     9        0.000000        3.612927         1    ;  uncertainty k = 0.725081
         2         1        16        15     9      180.000000        7.455486         2    ;  uncertainty k = 0.174270
         2         1        16        15     9        0.000000        0.597742         3    ;  uncertainty k = 0.188301
         2         1        16        15     9      180.000000        0.022114         4    ;  uncertainty k = 0.125785
         2         1        16        17     9        0.000000        5.840831         1    ;  uncertainty k = 1.171813
         2         1        16        17     9      180.000000       10.853166         2    ;  uncertainty k = 0.177336
         2         1        16        17     9        0.000000        0.452626         3    ;  uncertainty k = 0.343487
         2         1        16        17     9      180.000000       -0.017180         4    ;  uncertainty k = 0.083998
         2         3         4         5     9        0.000000       -6.017134         1    ;  uncertainty k = 0.800992
         2         3         4         5     9      180.000000        0.434518         2    ;  uncertainty k = 0.870743
         2         3         4         5     9        0.000000        1.355563         3    ;  uncertainty k = 0.091122
         2         3         4         5     9      180.000000       -1.271323         4    ;  uncertainty k = 0.297162
         2         3         4        22     9        0.000000       -3.876054         1    ;  uncertainty k = 1.293010
         2         3         4        22     9      180.000000       -0.199344         2    ;  uncertainty k = 0.383346
         2         3         4        22     9        0.000000        0.895598         3    ;  uncertainty k = 0.238303
         2         3         4        22     9      180.000000       -0.355947         4    ;  uncertainty k = 0.146942
         2         3         4        42     9        0.000000       -2.033804         1    ;  uncertainty k = 0.500877
         2         3         4        42     9      180.000000       -0.337697         2    ;  uncertainty k = 0.427017
         2         3         4        42     9        0.000000       -0.019542         3    ;  uncertainty k = 0.142918
         2         3         4        42     9      180.000000       -0.136144         4    ;  uncertainty k = 0.095111
         3         2         1         6     9        0.000000       -6.223373         1    ;  uncertainty k = 2.460055
         3         2         1         6     9      180.000000        1.342606         2    ;  uncertainty k = 0.618215
         3         2         1         6     9        0.000000        1.090961         3    ;  uncertainty k = 0.387680
         3         2         1         6     9      180.000000       -0.456033         4    ;  uncertainty k = 0.197734
         3         2         1        16     9        0.000000       -2.437812         1    ;  uncertainty k = 0.767996
         3         2         1        16     9      180.000000        0.553438         2    ;  uncertainty k = 0.404595
         3         2         1        16     9        0.000000        0.118599         3    ;  uncertainty k = 0.195768
         3         2         1        16     9      180.000000        0.231178         4    ;  uncertainty k = 0.088590
         3         4         5         6     9        0.000000       -6.017134         1    ;  uncertainty k = 0.800992
         3         4         5         6     9      180.000000        0.434518         2    ;  uncertainty k = 0.870743
         3         4         5         6     9        0.000000        1.355563         3    ;  uncertainty k = 0.091122
         3         4         5         6     9      180.000000       -1.271323         4    ;  uncertainty k = 0.297162
         3         4         5        27     9        0.000000       -1.407568         1    ;  uncertainty k = 0.132418
         3         4         5        27     9      180.000000       -0.358167         2    ;  uncertainty k = 0.160291
         3         4         5        27     9        0.000000        0.407001         3    ;  uncertainty k = 0.151629
         3         4         5        27     9      180.000000       -0.131913         4    ;  uncertainty k = 0.034971
         3         4         5        28     9        0.000000       -1.407568         1    ;  uncertainty k = 0.132418
         3         4         5        28     9      180.000000       -0.358167         2    ;  uncertainty k = 0.160291
         3         4         5        28     9        0.000000        0.407001         3    ;  uncertainty k = 0.151629
         3         4         5        28     9      180.000000       -0.131913         4    ;  uncertainty k = 0.034971
         3         4        22        37     9        0.000000       -1.607975         1    ;  uncertainty k = 0.423594
         3         4        22        37     9      180.000000        0.012592         2    ;  uncertainty k = 0.202870
         3         4        22        37     9        0.000000        0.670326         3    ;  uncertainty k = 0.098046
         3         4        22        37     9      180.000000       -0.190952         4    ;  uncertainty k = 0.053710
         3         4        22        38     9        0.000000       -2.708737         1    ;  uncertainty k = 1.699650
         3         4        22        38     9      180.000000       -1.016754         2    ;  uncertainty k = 0.556207
         3         4        22        38     9        0.000000        1.559229         3    ;  uncertainty k = 0.131390
         3         4        22        38     9      180.000000       -0.293609         4    ;  uncertainty k = 0.140171
         3         4        22        39     9        0.000000       -1.607975         1    ;  uncertainty k = 0.423594
         3         4        22        39     9      180.000000        0.012592         2    ;  uncertainty k = 0.202870
         3         4        22        39     9        0.000000        0.670326         3    ;  uncertainty k = 0.098046
         3         4        22        39     9      180.000000       -0.190952         4    ;  uncertainty k = 0.053710
         4         3         2        23     9        0.000000        2.860718         1    ;  uncertainty k = 0.923743
         4         3         2        23     9      180.000000       -2.531507         2    ;  uncertainty k = 0.322524
         4         3         2        23     9        0.000000        0.058138         3    ;  uncertainty k = 0.216403
         4         3         2        23     9      180.000000        0.312627         4    ;  uncertainty k = 0.089001
         4         3         2        24     9        0.000000        2.860718         1    ;  uncertainty k = 0.923743
         4         3         2        24     9      180.000000       -2.531507         2    ;  uncertainty k = 0.322524
         4         3         2        24     9        0.000000        0.058138         3    ;  uncertainty k = 0.216403
         4         3         2        24     9      180.000000        0.312627         4    ;  uncertainty k = 0.089001
         4         5         6        29     9        0.000000        2.860718         1    ;  uncertainty k = 0.923743
         4         5         6        29     9      180.000000       -2.531507         2    ;  uncertainty k = 0.322524
         4         5         6        29     9        0.000000        0.058138         3    ;  uncertainty k = 0.216403
         4         5         6        29     9      180.000000        0.312627         4    ;  uncertainty k = 0.089001
         4         5         6        30     9        0.000000        2.860718         1    ;  uncertainty k = 0.923743
         4         5         6        30     9      180.000000       -2.531507         2    ;  uncertainty k = 0.322524
         4         5         6        30     9        0.000000        0.058138         3    ;  uncertainty k = 0.216403
         4         5         6        30     9      180.000000        0.312627         4    ;  uncertainty k = 0.089001
         4        22        38        40     9        0.000000       -0.199283         1    ;  uncertainty k = 1.266208
         4        22        38        40     9      180.000000       -0.255926         2    ;  uncertainty k = 0.353485
         4        22        38        40     9        0.000000        1.086289         3    ;  uncertainty k = 0.120306
         4        22        38        40     9      180.000000        0.012577         4    ;  uncertainty k = 0.088424
         4        22        38        41     9        0.000000       -0.199283         1    ;  uncertainty k = 1.266208
         4        22        38        41     9      180.000000       -0.255926         2    ;  uncertainty k = 0.353485
         4        22        38        41     9        0.000000        1.086289         3    ;  uncertainty k = 0.120306
         4        22        38        41     9      180.000000        0.012577         4    ;  uncertainty k = 0.088424
         4        22        38        43     9        0.000000       -0.199283         1    ;  uncertainty k = 1.266208
         4        22        38        43     9      180.000000       -0.255926         2    ;  uncertainty k = 0.353485
         4        22        38        43     9        0.000000        1.086289         3    ;  uncertainty k = 0.120306
         4        22        38        43     9      180.000000        0.012577         4    ;  uncertainty k = 0.088424
         5         4         3        25     9        0.000000       -1.407568         1    ;  uncertainty k = 0.132418
         5         4         3        25     9      180.000000       -0.358167         2    ;  uncertainty k = 0.160291
         5         4         3        25     9        0.000000        0.407001         3    ;  uncertainty k = 0.151629
         5         4         3        25     9      180.000000       -0.131913         4    ;  uncertainty k = 0.034971
         5         4         3        26     9        0.000000       -1.407568         1    ;  uncertainty k = 0.132418
         5         4         3        26     9      180.000000       -0.358167         2    ;  uncertainty k = 0.160291
         5         4         3        26     9        0.000000        0.407001         3    ;  uncertainty k = 0.151629
         5         4         3        26     9      180.000000       -0.131913         4    ;  uncertainty k = 0.034971
         5         4        22        37     9        0.000000       -1.607975         1    ;  uncertainty k = 0.423594
         5         4        22        37     9      180.000000        0.012592         2    ;  uncertainty k = 0.202870
         5         4        22        37     9        0.000000        0.670326         3    ;  uncertainty k = 0.098046
         5         4        22        37     9      180.000000       -0.190952         4    ;  uncertainty k = 0.053710
         5         4        22        38     9        0.000000       -2.708737         1    ;  uncertainty k = 1.699650
         5         4        22        38     9      180.000000       -1.016754         2    ;  uncertainty k = 0.556207
         5         4        22        38     9        0.000000        1.559229         3    ;  uncertainty k = 0.131390
         5         4        22        38     9      180.000000       -0.293609         4    ;  uncertainty k = 0.140171
         5         4        22        39     9        0.000000       -1.607975         1    ;  uncertainty k = 0.423594
         5         4        22        39     9      180.000000        0.012592         2    ;  uncertainty k = 0.202870
         5         4        22        39     9        0.000000        0.670326         3    ;  uncertainty k = 0.098046
         5         4        22        39     9      180.000000       -0.190952         4    ;  uncertainty k = 0.053710
         5         6         1        16     9        0.000000       -2.437812         1    ;  uncertainty k = 0.767996
         5         6         1        16     9      180.000000        0.553438         2    ;  uncertainty k = 0.404595
         5         6         1        16     9        0.000000        0.118599         3    ;  uncertainty k = 0.195768
         5         6         1        16     9      180.000000        0.231178         4    ;  uncertainty k = 0.088590
         6         1         2        23     9        0.000000       -6.288841         1    ;  uncertainty k = 1.948261
         6         1         2        23     9      180.000000        0.684530         2    ;  uncertainty k = 0.203263
         6         1         2        23     9        0.000000        0.830248         3    ;  uncertainty k = 0.065016
         6         1         2        23     9      180.000000       -0.093097         4    ;  uncertainty k = 0.088857
         6         1         2        24     9        0.000000       -6.288841         1    ;  uncertainty k = 1.948261
         6         1         2        24     9      180.000000        0.684530         2    ;  uncertainty k = 0.203263
         6         1         2        24     9        0.000000        0.830248         3    ;  uncertainty k = 0.065016
         6         1         2        24     9      180.000000       -0.093097         4    ;  uncertainty k = 0.088857
         6         1        16        15     9        0.000000        3.612927         1    ;  uncertainty k = 0.725081
         6         1        16        15     9      180.000000        7.455486         2    ;  uncertainty k = 0.174270
         6         1        16        15     9        0.000000        0.597742         3    ;  uncertainty k = 0.188301
         6         1        16        15     9      180.000000        0.022114         4    ;  uncertainty k = 0.125785
         6         1        16        17     9        0.000000        5.840831         1    ;  uncertainty k = 1.171813
         6         1        16        17     9      180.000000       10.853166         2    ;  uncertainty k = 0.177336
         6         1        16        17     9        0.000000        0.452626         3    ;  uncertainty k = 0.343487
         6         1        16        17     9      180.000000       -0.017180         4    ;  uncertainty k = 0.083998
         6         5         4        22     9        0.000000       -3.876054         1    ;  uncertainty k = 1.293010
         6         5         4        22     9      180.000000       -0.199344         2    ;  uncertainty k = 0.383346
         6         5         4        22     9        0.000000        0.895598         3    ;  uncertainty k = 0.238303
         6         5         4        22     9      180.000000       -0.355947         4    ;  uncertainty k = 0.146942
         6         5         4        42     9        0.000000       -2.033804         1    ;  uncertainty k = 0.500877
         6         5         4        42     9      180.000000       -0.337697         2    ;  uncertainty k = 0.427017
         6         5         4        42     9        0.000000       -0.019542         3    ;  uncertainty k = 0.142918
         6         5         4        42     9      180.000000       -0.136144         4    ;  uncertainty k = 0.095111
         7         8         9        10     9        0.000000       -0.177499         1    ;  uncertainty k = 0.370875
         7         8         9        10     9      180.000000        5.426425         2    ;  uncertainty k = 0.887864
         7         8         9        10     9        0.000000        0.573772         3    ;  uncertainty k = 0.195975
         7         8         9        10     9      180.000000        1.372045         4    ;  uncertainty k = 0.303842
         7         8         9        19     9        0.000000        0.278727         1    ;  uncertainty k = 0.177608
         7         8         9        19     9      180.000000        6.861533         2    ;  uncertainty k = 0.653115
         7         8         9        19     9        0.000000        1.488328         3    ;  uncertainty k = 0.242790
         7         8         9        19     9      180.000000        1.767640         4    ;  uncertainty k = 0.160731
         7        12        11        10     9        0.000000       -0.005599         1    ;  uncertainty k = 0.172523
         7        12        11        10     9      180.000000       13.704312         2    ;  uncertainty k = 0.400244
         7        12        11        10     9        0.000000       -0.889092         3    ;  uncertainty k = 0.376748
         7        12        11        10     9      180.000000        0.753251         4    ;  uncertainty k = 0.237798
         7        12        11        36     9        0.000000        0.093122         1    ;  uncertainty k = 0.117432
         7        12        11        36     9      180.000000        7.226568         2    ;  uncertainty k = 0.324536
         7        12        11        36     9        0.000000        1.392509         3    ;  uncertainty k = 0.116126
         7        12        11        36     9      180.000000        1.851123         4    ;  uncertainty k = 0.123042
         7        13        14        15     9        0.000000        0.225606         1    ;  uncertainty k = 0.481381
         7        13        14        15     9      180.000000       16.696443         2    ;  uncertainty k = 0.477771
         7        13        14        15     9        0.000000        2.689435         3    ;  uncertainty k = 0.318553
         7        13        14        15     9      180.000000        1.637253         4    ;  uncertainty k = 0.280820
         7        13        18        17     9        0.000000       -0.358133         1    ;  uncertainty k = 0.827621
         7        13        18        17     9      180.000000        4.045104         2    ;  uncertainty k = 0.631749
         7        13        18        17     9        0.000000        0.054811         3    ;  uncertainty k = 0.397944
         7        13        18        17     9      180.000000        0.845164         4    ;  uncertainty k = 0.533399
         7        13        18        21     9        0.000000        0.267835         1    ;  uncertainty k = 1.114651
         7        13        18        21     9      180.000000        4.598102         2    ;  uncertainty k = 0.944135
         7        13        18        21     9        0.000000        0.529149         3    ;  uncertainty k = 0.418032
         7        13        18        21     9      180.000000        0.574058         4    ;  uncertainty k = 0.382592
         8         7        12        11     9        0.000000       -0.150260         1    ;  uncertainty k = 0.127681
         8         7        12        11     9      180.000000       10.405348         2    ;  uncertainty k = 0.361980
         8         7        12        11     9        0.000000       -0.060431         3    ;  uncertainty k = 0.254828
         8         7        12        11     9      180.000000        1.300558         4    ;  uncertainty k = 0.346919
         8         7        12        32     9        0.000000        0.199757         1    ;  uncertainty k = 0.276976
         8         7        12        32     9      180.000000        7.081720         2    ;  uncertainty k = 0.434721
         8         7        12        32     9        0.000000        1.286504         3    ;  uncertainty k = 0.262013
         8         7        12        32     9      180.000000        1.668077         4    ;  uncertainty k = 0.166942
         8         7        13        14     9        0.000000       -1.385229         1    ;  uncertainty k = 1.219677
         8         7        13        14     9      180.000000        4.721926         2    ;  uncertainty k = 0.364907
         8         7        13        14     9        0.000000        1.151009         3    ;  uncertainty k = 0.499482
         8         7        13        14     9      180.000000        0.168008         4    ;  uncertainty k = 0.174005
         8         7        13        18     9        0.000000        3.094978         1    ;  uncertainty k = 2.118637
         8         7        13        18     9      180.000000        2.743077         2    ;  uncertainty k = 0.794758
         8         7        13        18     9        0.000000        0.960122         3    ;  uncertainty k = 0.509319
         8         7        13        18     9      180.000000        0.259586         4    ;  uncertainty k = 0.213607
         8         9        10        11     9        0.000000        0.002852         1    ;  uncertainty k = 0.111935
         8         9        10        11     9      180.000000        9.686774         2    ;  uncertainty k = 0.296867
         8         9        10        11     9        0.000000        0.091223         3    ;  uncertainty k = 0.576898
         8         9        10        11     9      180.000000        1.248193         4    ;  uncertainty k = 0.301793
         8         9        10        31     9        0.000000        0.160469         1    ;  uncertainty k = 0.115845
         8         9        10        31     9      180.000000        6.143170         2    ;  uncertainty k = 0.584636
         8         9        10        31     9        0.000000        1.422833         3    ;  uncertainty k = 0.370866
         8         9        10        31     9      180.000000        1.585209         4    ;  uncertainty k = 0.191219
         9         8         7        12     9        0.000000        0.042409         1    ;  uncertainty k = 0.622904
         9         8         7        12     9      180.000000        6.724525         2    ;  uncertainty k = 0.595450
         9         8         7        12     9        0.000000        0.406971         3    ;  uncertainty k = 0.392989
         9         8         7        12     9      180.000000        1.314518         4    ;  uncertainty k = 0.278626
         9         8         7        13     9        0.000000       -0.002001         1    ;  uncertainty k = 0.377117
         9         8         7        13     9      180.000000        5.924601         2    ;  uncertainty k = 0.428546
         9         8         7        13     9        0.000000        1.457695         3    ;  uncertainty k = 0.417754
         9         8         7        13     9      180.000000        1.794051         4    ;  uncertainty k = 0.117701
         9        10        11        12     9        0.000000        0.032379         1    ;  uncertainty k = 0.116696
         9        10        11        12     9      180.000000       14.345522         2    ;  uncertainty k = 0.160340
         9        10        11        12     9        0.000000       -1.087256         3    ;  uncertainty k = 0.625240
         9        10        11        12     9      180.000000        0.770564         4    ;  uncertainty k = 0.260775
         9        10        11        36     9        0.000000        0.039035         1    ;  uncertainty k = 0.138062
         9        10        11        36     9      180.000000        7.573957         2    ;  uncertainty k = 0.326463
         9        10        11        36     9        0.000000        1.498646         3    ;  uncertainty k = 0.240396
         9        10        11        36     9      180.000000        1.852602         4    ;  uncertainty k = 0.140866
        10         9         8        20     9        0.000000        0.141596         1    ;  uncertainty k = 0.227101
        10         9         8        20     9      180.000000        7.003529         2    ;  uncertainty k = 0.264439
        10         9         8        20     9        0.000000        1.459862         3    ;  uncertainty k = 0.224785
        10         9         8        20     9      180.000000        1.666452         4    ;  uncertainty k = 0.137453
        10        11        12        32     9        0.000000        0.069646         1    ;  uncertainty k = 0.067795
        10        11        12        32     9      180.000000        7.812867         2    ;  uncertainty k = 0.200631
        10        11        12        32     9        0.000000        1.367062         3    ;  uncertainty k = 0.299642
        10        11        12        32     9      180.000000        1.835394         4    ;  uncertainty k = 0.152349
        11        10         9        19     9        0.000000        0.138880         1    ;  uncertainty k = 0.273316
        11        10         9        19     9      180.000000        9.611408         2    ;  uncertainty k = 0.646931
        11        10         9        19     9        0.000000        1.485930         3    ;  uncertainty k = 0.454577
        11        10         9        19     9      180.000000        1.742540         4    ;  uncertainty k = 0.176936
        11        12         7        13     9        0.000000        0.185426         1    ;  uncertainty k = 0.238800
        11        12         7        13     9      180.000000        8.706652         2    ;  uncertainty k = 0.671242
        11        12         7        13     9        0.000000        1.234979         3    ;  uncertainty k = 0.376143
        11        12         7        13     9      180.000000        1.938054         4    ;  uncertainty k = 0.238927
        12         7         8        20     9        0.000000       -0.040062         1    ;  uncertainty k = 0.201861
        12         7         8        20     9      180.000000        7.931022         2    ;  uncertainty k = 0.437251
        12         7         8        20     9        0.000000        1.364870         3    ;  uncertainty k = 0.334778
        12         7         8        20     9      180.000000        1.575617         4    ;  uncertainty k = 0.162413
        12         7        13        14     9        0.000000        0.888580         1    ;  uncertainty k = 0.647956
        12         7        13        14     9      180.000000        5.317853         2    ;  uncertainty k = 0.349917
        12         7        13        14     9        0.000000        0.411949         3    ;  uncertainty k = 0.295119
        12         7        13        14     9      180.000000        0.295707         4    ;  uncertainty k = 0.167526
        12         7        13        18     9        0.000000       -0.356460         1    ;  uncertainty k = 0.673274
        12         7        13        18     9      180.000000        3.702017         2    ;  uncertainty k = 0.317147
        12         7        13        18     9        0.000000        0.483618         3    ;  uncertainty k = 0.309432
        12         7        13        18     9      180.000000        0.254703         4    ;  uncertainty k = 0.156035
        12        11        10        31     9        0.000000        0.131595         1    ;  uncertainty k = 0.106145
        12        11        10        31     9      180.000000        7.555672         2    ;  uncertainty k = 0.306483
        12        11        10        31     9        0.000000        1.476388         3    ;  uncertainty k = 0.228295
        12        11        10        31     9      180.000000        1.782294         4    ;  uncertainty k = 0.178684
        13         7         8        20     9        0.000000       -0.328358         1    ;  uncertainty k = 0.760863
        13         7         8        20     9      180.000000        7.665027         2    ;  uncertainty k = 0.337712
        13         7         8        20     9        0.000000        1.167818         3    ;  uncertainty k = 0.276355
        13         7         8        20     9      180.000000        1.465957         4    ;  uncertainty k = 0.230971
        13         7        12        32     9        0.000000       -0.215801         1    ;  uncertainty k = 0.297827
        13         7        12        32     9      180.000000        7.232976         2    ;  uncertainty k = 0.252937
        13         7        12        32     9        0.000000        0.708703         3    ;  uncertainty k = 0.360465
        13         7        12        32     9      180.000000        1.274872         4    ;  uncertainty k = 0.216330
        13        14        15        16     9        0.000000        0.141980         1    ;  uncertainty k = 1.053912
        13        14        15        16     9      180.000000       16.214785         2    ;  uncertainty k = 0.286136
        13        14        15        16     9        0.000000        0.968630         3    ;  uncertainty k = 0.468837
        13        14        15        16     9      180.000000        1.578090         4    ;  uncertainty k = 0.183754
        13        14        15        33     9        0.000000        0.433102         1    ;  uncertainty k = 0.699242
        13        14        15        33     9      180.000000       15.878097         2    ;  uncertainty k = 0.427551
        13        14        15        33     9        0.000000        2.216903         3    ;  uncertainty k = 0.449923
        13        14        15        33     9      180.000000        1.692273         4    ;  uncertainty k = 0.235895
        13        18        17        16     9        0.000000        1.688545         1    ;  uncertainty k = 1.287212
        13        18        17        16     9      180.000000        8.271309         2    ;  uncertainty k = 0.727572
        13        18        17        16     9        0.000000        1.301921         3    ;  uncertainty k = 0.423204
        13        18        17        16     9      180.000000        1.045953         4    ;  uncertainty k = 0.439917
        13        18        21        34     9        0.000000       10.378094         1    ;  uncertainty k = 0.339024
        13        18        21        34     9      180.000000        5.935876         2    ;  uncertainty k = 0.368198
        13        18        21        34     9        0.000000        0.897319         3    ;  uncertainty k = 0.235681
        13        18        21        34     9      180.000000        0.078378         4    ;  uncertainty k = 0.094013
        13        18        21        35     9        0.000000       10.378094         1    ;  uncertainty k = 0.339024
        13        18        21        35     9      180.000000        5.935876         2    ;  uncertainty k = 0.368198
        13        18        21        35     9        0.000000        0.897319         3    ;  uncertainty k = 0.235681
        13        18        21        35     9      180.000000        0.078378         4    ;  uncertainty k = 0.094013
        14        13        18        17     9        0.000000       -0.914188         1    ;  uncertainty k = 0.976716
        14        13        18        17     9      180.000000        4.365827         2    ;  uncertainty k = 1.572805
        14        13        18        17     9        0.000000       -0.609400         3    ;  uncertainty k = 0.650186
        14        13        18        17     9      180.000000        0.782617         4    ;  uncertainty k = 0.489140
        14        13        18        21     9        0.000000        0.421676         1    ;  uncertainty k = 0.757592
        14        13        18        21     9      180.000000        4.363535         2    ;  uncertainty k = 1.151769
        14        13        18        21     9        0.000000        0.368322         3    ;  uncertainty k = 0.384250
        14        13        18        21     9      180.000000        0.667868         4    ;  uncertainty k = 0.286427
        14        15        16        17     9        0.000000       -0.844144         1    ;  uncertainty k = 0.206415
        14        15        16        17     9      180.000000        6.181156         2    ;  uncertainty k = 1.131747
        14        15        16        17     9        0.000000       -0.629544         3    ;  uncertainty k = 0.509306
        14        15        16        17     9      180.000000        0.976878         4    ;  uncertainty k = 0.500999
        15        14        13        18     9        0.000000        0.845409         1    ;  uncertainty k = 0.869489
        15        14        13        18     9      180.000000       14.909967         2    ;  uncertainty k = 0.145765
        15        14        13        18     9        0.000000        1.590232         3    ;  uncertainty k = 0.554123
        15        14        13        18     9      180.000000        1.309474         4    ;  uncertainty k = 0.249135
        15        16        17        18     9        0.000000        1.160063         1    ;  uncertainty k = 0.748994
        15        16        17        18     9      180.000000        7.719984         2    ;  uncertainty k = 0.668144
        15        16        17        18     9        0.000000        1.166746         3    ;  uncertainty k = 0.422770
        15        16        17        18     9      180.000000        0.848420         4    ;  uncertainty k = 0.189663
        16         1         2        23     9        0.000000        0.227915         1    ;  uncertainty k = 0.544867
        16         1         2        23     9      180.000000       -0.859643         2    ;  uncertainty k = 0.188548
        16         1         2        23     9        0.000000        0.141920         3    ;  uncertainty k = 0.122588
        16         1         2        23     9      180.000000        0.250925         4    ;  uncertainty k = 0.045719
        16         1         2        24     9        0.000000        0.227915         1    ;  uncertainty k = 0.544867
        16         1         2        24     9      180.000000       -0.859643         2    ;  uncertainty k = 0.188548
        16         1         2        24     9        0.000000        0.141920         3    ;  uncertainty k = 0.122588
        16         1         2        24     9      180.000000        0.250925         4    ;  uncertainty k = 0.045719
        16         1         6        29     9        0.000000        0.227915         1    ;  uncertainty k = 0.544867
        16         1         6        29     9      180.000000       -0.859643         2    ;  uncertainty k = 0.188548
        16         1         6        29     9        0.000000        0.141920         3    ;  uncertainty k = 0.122588
        16         1         6        29     9      180.000000        0.250925         4    ;  uncertainty k = 0.045719
        16         1         6        30     9        0.000000        0.227915         1    ;  uncertainty k = 0.544867
        16         1         6        30     9      180.000000       -0.859643         2    ;  uncertainty k = 0.188548
        16         1         6        30     9        0.000000        0.141920         3    ;  uncertainty k = 0.122588
        16         1         6        30     9      180.000000        0.250925         4    ;  uncertainty k = 0.045719
        16        17        18        21     9        0.000000        0.658518         1    ;  uncertainty k = 1.169543
        16        17        18        21     9      180.000000       14.296398         2    ;  uncertainty k = 0.384975
        16        17        18        21     9        0.000000        2.598387         3    ;  uncertainty k = 0.483382
        16        17        18        21     9      180.000000        1.762014         4    ;  uncertainty k = 0.137928
        17        16        15        33     9        0.000000        0.389595         1    ;  uncertainty k = 1.176176
        17        16        15        33     9      180.000000        4.255686         2    ;  uncertainty k = 0.878635
        17        16        15        33     9        0.000000        0.907757         3    ;  uncertainty k = 0.470192
        17        16        15        33     9      180.000000        0.946671         4    ;  uncertainty k = 0.125569
        17        18        21        34     9        0.000000       20.146712         1    ;  uncertainty k = 0.163869
        17        18        21        34     9      180.000000       11.513246         2    ;  uncertainty k = 0.249739
        17        18        21        34     9        0.000000        0.516507         3    ;  uncertainty k = 0.075339
        17        18        21        34     9      180.000000       -0.344967         4    ;  uncertainty k = 0.235722
        17        18        21        35     9        0.000000       20.146712         1    ;  uncertainty k = 0.163869
        17        18        21        35     9      180.000000       11.513246         2    ;  uncertainty k = 0.249739
        17        18        21        35     9        0.000000        0.516507         3    ;  uncertainty k = 0.075339
        17        18        21        35     9      180.000000       -0.344967         4    ;  uncertainty k = 0.235722
        19         9         8        20     9        0.000000        0.127028         1    ;  uncertainty k = 0.458559
        19         9         8        20     9      180.000000        7.584079         2    ;  uncertainty k = 0.298205
        19         9         8        20     9        0.000000        1.208450         3    ;  uncertainty k = 0.256922
        19         9         8        20     9      180.000000        1.439487         4    ;  uncertainty k = 0.242719
        19         9        10        31     9        0.000000       -0.183324         1    ;  uncertainty k = 0.309109
        19         9        10        31     9      180.000000        7.615952         2    ;  uncertainty k = 0.378043
        19         9        10        31     9        0.000000        0.553325         3    ;  uncertainty k = 0.272076
        19         9        10        31     9      180.000000        1.023076         4    ;  uncertainty k = 0.167401
        22         4         3        25     9        0.000000       -0.507896         1    ;  uncertainty k = 1.092284
        22         4         3        25     9      180.000000       -1.191567         2    ;  uncertainty k = 0.173391
        22         4         3        25     9        0.000000        0.687668         3    ;  uncertainty k = 0.071301
        22         4         3        25     9      180.000000       -0.215950         4    ;  uncertainty k = 0.118439
        22         4         3        26     9        0.000000       -0.507896         1    ;  uncertainty k = 1.092284
        22         4         3        26     9      180.000000       -1.191567         2    ;  uncertainty k = 0.173391
        22         4         3        26     9        0.000000        0.687668         3    ;  uncertainty k = 0.071301
        22         4         3        26     9      180.000000       -0.215950         4    ;  uncertainty k = 0.118439
        22         4         5        27     9        0.000000       -0.507896         1    ;  uncertainty k = 1.092284
        22         4         5        27     9      180.000000       -1.191567         2    ;  uncertainty k = 0.173391
        22         4         5        27     9        0.000000        0.687668         3    ;  uncertainty k = 0.071301
        22         4         5        27     9      180.000000       -0.215950         4    ;  uncertainty k = 0.118439
        22         4         5        28     9        0.000000       -0.507896         1    ;  uncertainty k = 1.092284
        22         4         5        28     9      180.000000       -1.191567         2    ;  uncertainty k = 0.173391
        22         4         5        28     9        0.000000        0.687668         3    ;  uncertainty k = 0.071301
        22         4         5        28     9      180.000000       -0.215950         4    ;  uncertainty k = 0.118439
        23         2         3        25     9        0.000000        0.058634         1    ;  uncertainty k = 0.072339
        23         2         3        25     9      180.000000        0.439046         2    ;  uncertainty k = 0.298156
        23         2         3        25     9        0.000000        0.182105         3    ;  uncertainty k = 0.064170
        23         2         3        25     9      180.000000       -0.178861         4    ;  uncertainty k = 0.102671
        23         2         3        26     9        0.000000        0.058634         1    ;  uncertainty k = 0.072339
        23         2         3        26     9      180.000000        0.439046         2    ;  uncertainty k = 0.298156
        23         2         3        26     9        0.000000        0.182105         3    ;  uncertainty k = 0.064170
        23         2         3        26     9      180.000000       -0.178861         4    ;  uncertainty k = 0.102671
        24         2         3        25     9        0.000000        0.058634         1    ;  uncertainty k = 0.072339
        24         2         3        25     9      180.000000        0.439046         2    ;  uncertainty k = 0.298156
        24         2         3        25     9        0.000000        0.182105         3    ;  uncertainty k = 0.064170
        24         2         3        25     9      180.000000       -0.178861         4    ;  uncertainty k = 0.102671
        24         2         3        26     9        0.000000        0.058634         1    ;  uncertainty k = 0.072339
        24         2         3        26     9      180.000000        0.439046         2    ;  uncertainty k = 0.298156
        24         2         3        26     9        0.000000        0.182105         3    ;  uncertainty k = 0.064170
        24         2         3        26     9      180.000000       -0.178861         4    ;  uncertainty k = 0.102671
        25         3         4        42     9        0.000000        1.776294         1    ;  uncertainty k = 0.352256
        25         3         4        42     9      180.000000       -0.101709         2    ;  uncertainty k = 0.245735
        25         3         4        42     9        0.000000       -0.143682         3    ;  uncertainty k = 0.053352
        25         3         4        42     9      180.000000        0.041078         4    ;  uncertainty k = 0.025047
        26         3         4        42     9        0.000000        1.776294         1    ;  uncertainty k = 0.352256
        26         3         4        42     9      180.000000       -0.101709         2    ;  uncertainty k = 0.245735
        26         3         4        42     9        0.000000       -0.143682         3    ;  uncertainty k = 0.053352
        26         3         4        42     9      180.000000        0.041078         4    ;  uncertainty k = 0.025047
        27         5         4        42     9        0.000000        1.776294         1    ;  uncertainty k = 0.352256
        27         5         4        42     9      180.000000       -0.101709         2    ;  uncertainty k = 0.245735
        27         5         4        42     9        0.000000       -0.143682         3    ;  uncertainty k = 0.053352
        27         5         4        42     9      180.000000        0.041078         4    ;  uncertainty k = 0.025047
        27         5         6        29     9        0.000000        0.058634         1    ;  uncertainty k = 0.072339
        27         5         6        29     9      180.000000        0.439046         2    ;  uncertainty k = 0.298156
        27         5         6        29     9        0.000000        0.182105         3    ;  uncertainty k = 0.064170
        27         5         6        29     9      180.000000       -0.178861         4    ;  uncertainty k = 0.102671
        27         5         6        30     9        0.000000        0.058634         1    ;  uncertainty k = 0.072339
        27         5         6        30     9      180.000000        0.439046         2    ;  uncertainty k = 0.298156
        27         5         6        30     9        0.000000        0.182105         3    ;  uncertainty k = 0.064170
        27         5         6        30     9      180.000000       -0.178861         4    ;  uncertainty k = 0.102671
        28         5         4        42     9        0.000000        1.776294         1    ;  uncertainty k = 0.352256
        28         5         4        42     9      180.000000       -0.101709         2    ;  uncertainty k = 0.245735
        28         5         4        42     9        0.000000       -0.143682         3    ;  uncertainty k = 0.053352
        28         5         4        42     9      180.000000        0.041078         4    ;  uncertainty k = 0.025047
        28         5         6        29     9        0.000000        0.058634         1    ;  uncertainty k = 0.072339
        28         5         6        29     9      180.000000        0.439046         2    ;  uncertainty k = 0.298156
        28         5         6        29     9        0.000000        0.182105         3    ;  uncertainty k = 0.064170
        28         5         6        29     9      180.000000       -0.178861         4    ;  uncertainty k = 0.102671
        28         5         6        30     9        0.000000        0.058634         1    ;  uncertainty k = 0.072339
        28         5         6        30     9      180.000000        0.439046         2    ;  uncertainty k = 0.298156
        28         5         6        30     9        0.000000        0.182105         3    ;  uncertainty k = 0.064170
        28         5         6        30     9      180.000000       -0.178861         4    ;  uncertainty k = 0.102671
        31        10        11        36     9        0.000000       -0.063231         1    ;  uncertainty k = 0.143919
        31        10        11        36     9      180.000000        7.894391         2    ;  uncertainty k = 0.469259
        31        10        11        36     9        0.000000       -0.422798         3    ;  uncertainty k = 0.255830
        31        10        11        36     9      180.000000        0.044530         4    ;  uncertainty k = 0.174749
        32        12        11        36     9        0.000000       -0.025737         1    ;  uncertainty k = 0.216295
        32        12        11        36     9      180.000000        7.946947         2    ;  uncertainty k = 0.428487
        32        12        11        36     9        0.000000       -0.407574         3    ;  uncertainty k = 0.245417
        32        12        11        36     9      180.000000        0.167857         4    ;  uncertainty k = 0.135379
        37        22         4        42     9        0.000000        0.670124         1    ;  uncertainty k = 0.424400
        37        22         4        42     9      180.000000       -0.180381         2    ;  uncertainty k = 0.265810
        37        22         4        42     9        0.000000       -0.078487         3    ;  uncertainty k = 0.121706
        37        22         4        42     9      180.000000       -0.080791         4    ;  uncertainty k = 0.066199
        37        22        38        40     9        0.000000       -0.143048         1    ;  uncertainty k = 0.652009
        37        22        38        40     9      180.000000       -0.289243         2    ;  uncertainty k = 0.312231
        37        22        38        40     9        0.000000        0.631775         3    ;  uncertainty k = 0.075432
        37        22        38        40     9      180.000000        0.032843         4    ;  uncertainty k = 0.068372
        37        22        38        41     9        0.000000       -0.143048         1    ;  uncertainty k = 0.652009
        37        22        38        41     9      180.000000       -0.289243         2    ;  uncertainty k = 0.312231
        37        22        38        41     9        0.000000        0.631775         3    ;  uncertainty k = 0.075432
        37        22        38        41     9      180.000000        0.032843         4    ;  uncertainty k = 0.068372
        37        22        38        43     9        0.000000       -0.143048         1    ;  uncertainty k = 0.652009
        37        22        38        43     9      180.000000       -0.289243         2    ;  uncertainty k = 0.312231
        37        22        38        43     9        0.000000        0.631775         3    ;  uncertainty k = 0.075432
        37        22        38        43     9      180.000000        0.032843         4    ;  uncertainty k = 0.068372
        38        22         4        42     9        0.000000       -1.212687         1    ;  uncertainty k = 1.407350
        38        22         4        42     9      180.000000       -3.114825         2    ;  uncertainty k = 0.614056
        38        22         4        42     9        0.000000        0.774509         3    ;  uncertainty k = 0.333530
        38        22         4        42     9      180.000000       -0.107317         4    ;  uncertainty k = 0.126583
        39        22         4        42     9        0.000000        0.670124         1    ;  uncertainty k = 0.424400
        39        22         4        42     9      180.000000       -0.180381         2    ;  uncertainty k = 0.265810
        39        22         4        42     9        0.000000       -0.078487         3    ;  uncertainty k = 0.121706
        39        22         4        42     9      180.000000       -0.080791         4    ;  uncertainty k = 0.066199
        39        22        38        40     9        0.000000       -0.143048         1    ;  uncertainty k = 0.652009
        39        22        38        40     9      180.000000       -0.289243         2    ;  uncertainty k = 0.312231
        39        22        38        40     9        0.000000        0.631775         3    ;  uncertainty k = 0.075432
        39        22        38        40     9      180.000000        0.032843         4    ;  uncertainty k = 0.068372
        39        22        38        41     9        0.000000       -0.143048         1    ;  uncertainty k = 0.652009
        39        22        38        41     9      180.000000       -0.289243         2    ;  uncertainty k = 0.312231
        39        22        38        41     9        0.000000        0.631775         3    ;  uncertainty k = 0.075432
        39        22        38        41     9      180.000000        0.032843         4    ;  uncertainty k = 0.068372
        39        22        38        43     9        0.000000       -0.143048         1    ;  uncertainty k = 0.652009
        39        22        38        43     9      180.000000       -0.289243         2    ;  uncertainty k = 0.312231
        39        22        38        43     9        0.000000        0.631775         3    ;  uncertainty k = 0.075432
        39        22        38        43     9      180.000000        0.032843         4    ;  uncertainty k = 0.068372

[ dihedrals ] ; impropers
;       ai        aj        ak        al funct           phase               k        pn
         7         8        12        13     4      180.000000       14.389887         2    ;  uncertainty k = 0.054211
         7        12        13         8     4      180.000000       14.389887         2    ;  uncertainty k = 0.054211
         7        13         8        12     4      180.000000       14.389887         2    ;  uncertainty k = 0.054211
         8         7         9        20     4      180.000000       13.864435         2    ;  uncertainty k = 0.052310
         8         9        20         7     4      180.000000       13.864435         2    ;  uncertainty k = 0.052310
         8        20         7         9     4      180.000000       13.864435         2    ;  uncertainty k = 0.052310
         9         8        10        19     4      180.000000       13.291986         2    ;  uncertainty k = 0.070510
         9        10        19         8     4      180.000000       13.291986         2    ;  uncertainty k = 0.070510
         9        19         8        10     4      180.000000       13.291986         2    ;  uncertainty k = 0.070510
        10         9        11        31     4      180.000000        3.899337         2    ;  uncertainty k = 0.119505
        10        11        31         9     4      180.000000        3.899337         2    ;  uncertainty k = 0.119505
        10        31         9        11     4      180.000000        3.899337         2    ;  uncertainty k = 0.119505
        11        10        12        36     4      180.000000        4.055680         2    ;  uncertainty k = 0.065234
        11        12        36        10     4      180.000000        4.055680         2    ;  uncertainty k = 0.065234
        11        36        10        12     4      180.000000        4.055680         2    ;  uncertainty k = 0.065234
        12         7        11        32     4      180.000000        4.000194         2    ;  uncertainty k = 0.105935
        12        11        32         7     4      180.000000        4.000194         2    ;  uncertainty k = 0.105935
        12        32         7        11     4      180.000000        4.000194         2    ;  uncertainty k = 0.105935
        13         7        14        18     4      180.000000       17.254257         2    ;  uncertainty k = 0.100045
        13        14        18         7     4      180.000000       17.254257         2    ;  uncertainty k = 0.100045
        13        18         7        14     4      180.000000       17.254257         2    ;  uncertainty k = 0.100045
        15        14        16        33     4      180.000000        7.869147         2    ;  uncertainty k = 0.288351
        15        16        33        14     4      180.000000        7.869147         2    ;  uncertainty k = 0.288351
        15        33        14        16     4      180.000000        7.869147         2    ;  uncertainty k = 0.288351
        16         1        15        17     4      180.000000       31.915146         2    ;  uncertainty k = 0.074987
        16        15        17         1     4      180.000000       31.915146         2    ;  uncertainty k = 0.074987
        16        17         1        15     4      180.000000       31.915146         2    ;  uncertainty k = 0.074987
        18        13        17        21     4      180.000000       31.676986         2    ;  uncertainty k = 0.067609
        18        17        21        13     4      180.000000       31.676986         2    ;  uncertainty k = 0.067609
        18        21        13        17     4      180.000000       31.676986         2    ;  uncertainty k = 0.067609
        21        18        34        35     4      180.000000        0.701899         2    ;  uncertainty k = 1.010590
        21        34        35        18     4      180.000000        0.701899         2    ;  uncertainty k = 1.010590
        21        35        18        34     4      180.000000        0.701899         2    ;  uncertainty k = 1.010590

[ pairs ]
;       ai        aj funct
         1         4     1
         1        14     1
         1        18     1
         1        25     1
         1        26     1
         1        27     1
         1        28     1
         1        33     1
         2         5     1
         2        15     1
         2        17     1
         2        22     1
         2        29     1
         2        30     1
         2        42     1
         3         6     1
         3        16     1
         3        27     1
         3        28     1
         3        37     1
         3        38     1
         3        39     1
         4        23     1
         4        24     1
         4        29     1
         4        30     1
         4        40     1
         4        41     1
         4        43     1
         5        16     1
         5        25     1
         5        26     1
         5        37     1
         5        38     1
         5        39     1
         6        15     1
         6        17     1
         6        22     1
         6        23     1
         6        24     1
         6        42     1
         7        10     1
         7        15     1
         7        17     1
         7        19     1
         7        21     1
         7        36     1
         8        11     1
         8        14     1
         8        18     1
         8        31     1
         8        32     1
         9        12     1
         9        13     1
         9        36     1
        10        20     1
        10        32     1
        11        13     1
        11        19     1
        12        14     1
        12        18     1
        12        20     1
        12        31     1
        13        16     1
        13        20     1
        13        32     1
        13        33     1
        13        34     1
        13        35     1
        14        17     1
        14        21     1
        15        18     1
        16        21     1
        16        23     1
        16        24     1
        16        29     1
        16        30     1
        17        33     1
        17        34     1
        17        35     1
        19        20     1
        19        31     1
        22        25     1
        22        26     1
        22        27     1
        22        28     1
        23        25     1
        23        26     1
        24        25     1
        24        26     1
        25        42     1
        26        42     1
        27        29     1
        27        30     1
        27        42     1
        28        29     1
        28        30     1
        28        42     1
        31        36     1
        32        36     1
        37        40     1
        37        41     1
        37        42     1
        37        43     1
        38        42     1
        39        40     1
        39        41     1
        39        42     1
        39        43     1
