; ITP file created by ByteFF-joint-25, 2026-02-17 09:36:02.658235

[ atomtypes ]
;name           bonded.type        at.num        mass        charge   ptype           sigma         epsilon
 n0bf                                   7      0.0000       0.00000       A     3.18998e-01     8.99142e-01    ;  uncertainty sigma = 0.000029, epsilon = 0.002716
 c1bf                                   6      0.0000       0.00000       A     3.39780e-01     4.50260e-01    ;  uncertainty sigma = 0.000020, epsilon = 0.001089
 c2bf                                   6      0.0000       0.00000       A     3.39771e-01     4.51072e-01    ;  uncertainty sigma = 0.000022, epsilon = 0.000654
 c3bf                                   6      0.0000       0.00000       A     3.39788e-01     4.49780e-01    ;  uncertainty sigma = 0.000038, epsilon = 0.001520
 c4bf                                   6      0.0000       0.00000       A     3.39771e-01     4.51072e-01    ;  uncertainty sigma = 0.000022, epsilon = 0.000654
 c5bf                                   6      0.0000       0.00000       A     3.39780e-01     4.50260e-01    ;  uncertainty sigma = 0.000020, epsilon = 0.001089
 c6bf                                   6      0.0000       0.00000       A     3.31542e-01     4.12803e-01    ;  uncertainty sigma = 0.000006, epsilon = 0.000965
 c7bf                                   6      0.0000       0.00000       A     3.31522e-01     4.13408e-01    ;  uncertainty sigma = 0.000008, epsilon = 0.000601
 c8bf                                   6      0.0000       0.00000       A     3.31511e-01     4.13298e-01    ;  uncertainty sigma = 0.000006, epsilon = 0.000523
 c9bf                                   6      0.0000       0.00000       A     3.31523e-01     4.13235e-01    ;  uncertainty sigma = 0.000004, epsilon = 0.000744
 c10bf                                  6      0.0000       0.00000       A     3.31526e-01     4.13670e-01    ;  uncertainty sigma = 0.000003, epsilon = 0.000772
 c11bf                                  6      0.0000       0.00000       A     3.31517e-01     4.13229e-01    ;  uncertainty sigma = 0.000008, epsilon = 0.000803
 c12bf                                  6      0.0000       0.00000       A     3.31555e-01     4.12760e-01    ;  uncertainty sigma = 0.000016, epsilon = 0.001861
 c13bf                                  6      0.0000       0.00000       A     3.31510e-01     4.13299e-01    ;  uncertainty sigma = 0.000009, epsilon = 0.000627
 n14bf                                  7      0.0000       0.00000       A     3.38405e-01     3.93997e-01    ;  uncertainty sigma = 0.000020, epsilon = 0.001343
 c15bf                                  6      0.0000       0.00000       A     3.31540e-01     4.14244e-01    ;  uncertainty sigma = 0.000012, epsilon = 0.001149
 n16bf                                  7      0.0000       0.00000       A     3.38461e-01     3.93887e-01    ;  uncertainty sigma = 0.000038, epsilon = 0.001240
 c17bf                                  6      0.0000       0.00000       A     3.31536e-01     4.12147e-01    ;  uncertainty sigma = 0.000013, epsilon = 0.001746
 cl18bf                                17      0.0000       0.00000       A     3.46607e-01     1.10413e+00    ;  uncertainty sigma = 0.000023, epsilon = 0.001362
 cl19bf                                17      0.0000       0.00000       A     3.46608e-01     1.10488e+00    ;  uncertainty sigma = 0.000013, epsilon = 0.002160
 n20bf                                  7      0.0000       0.00000       A     3.36871e-01     4.68770e-01    ;  uncertainty sigma = 0.000036, epsilon = 0.004307
 c21bf                                  6      0.0000       0.00000       A     3.39744e-01     4.51058e-01    ;  uncertainty sigma = 0.000018, epsilon = 0.000674
 n22bf                                  7      0.0000       0.00000       A     2.77101e-01     4.77733e+00    ;  uncertainty sigma = 0.000102, epsilon = 0.025603
 h23bf                                  1      0.0000       0.00000       A     2.42224e-01     8.69291e-02    ;  uncertainty sigma = 0.000024, epsilon = 0.000777
 h24bf                                  1      0.0000       0.00000       A     2.42224e-01     8.69292e-02    ;  uncertainty sigma = 0.000024, epsilon = 0.000777
 h25bf                                  1      0.0000       0.00000       A     2.60047e-01     8.66235e-02    ;  uncertainty sigma = 0.000026, epsilon = 0.001019
 h26bf                                  1      0.0000       0.00000       A     2.60047e-01     8.66235e-02    ;  uncertainty sigma = 0.000026, epsilon = 0.001019
 h27bf                                  1      0.0000       0.00000       A     2.60047e-01     8.66235e-02    ;  uncertainty sigma = 0.000026, epsilon = 0.001019
 h28bf                                  1      0.0000       0.00000       A     2.60047e-01     8.66235e-02    ;  uncertainty sigma = 0.000026, epsilon = 0.001019
 h29bf                                  1      0.0000       0.00000       A     2.42224e-01     8.69292e-02    ;  uncertainty sigma = 0.000024, epsilon = 0.000777
 h30bf                                  1      0.0000       0.00000       A     2.42224e-01     8.69292e-02    ;  uncertainty sigma = 0.000024, epsilon = 0.000777
 h31bf                                  1      0.0000       0.00000       A     2.62567e-01     6.71895e-02    ;  uncertainty sigma = 0.000007, epsilon = 0.000549
 o32bf                                  8      0.0000       0.00000       A     3.15633e-01     3.02809e-01    ;  uncertainty sigma = 0.000024, epsilon = 0.001163
 h33bf                                  1      0.0000       0.00000       A     2.62558e-01     6.71706e-02    ;  uncertainty sigma = 0.000008, epsilon = 0.000732
 h34bf                                  1      0.0000       0.00000       A     1.10718e-01     4.12967e-02    ;  uncertainty sigma = 0.000085, epsilon = 0.000435
 h35bf                                  1      0.0000       0.00000       A     1.10718e-01     4.12967e-02    ;  uncertainty sigma = 0.000085, epsilon = 0.000435
 c36bf                                  6      0.0000       0.00000       A     3.39790e-01     4.50985e-01    ;  uncertainty sigma = 0.000004, epsilon = 0.000763
 h37bf                                  1      0.0000       0.00000       A     2.42205e-01     8.67537e-02    ;  uncertainty sigma = 0.000015, epsilon = 0.000624
 h38bf                                  1      0.0000       0.00000       A     2.42205e-01     8.67537e-02    ;  uncertainty sigma = 0.000015, epsilon = 0.000624
 h39bf                                  1      0.0000       0.00000       A     2.42205e-01     8.67537e-02    ;  uncertainty sigma = 0.000015, epsilon = 0.000624
 h40bf                                  1      0.0000       0.00000       A     2.60029e-01     8.68919e-02    ;  uncertainty sigma = 0.000018, epsilon = 0.000792
 h41bf                                  1      0.0000       0.00000       A     2.60029e-01     8.68919e-02    ;  uncertainty sigma = 0.000018, epsilon = 0.000792
 h42bf                                  1      0.0000       0.00000       A     2.60029e-01     8.68919e-02    ;  uncertainty sigma = 0.000018, epsilon = 0.000792
 h43bf                                  1      0.0000       0.00000       A     1.10744e-01     4.05586e-02    ;  uncertainty sigma = 0.000197, epsilon = 0.001138
 h44bf                                  1      0.0000       0.00000       A     1.10744e-01     4.05585e-02    ;  uncertainty sigma = 0.000197, epsilon = 0.001139
 h45bf                                  1      0.0000       0.00000       A     1.10744e-01     4.05585e-02    ;  uncertainty sigma = 0.000197, epsilon = 0.001139
 h46bf                                  1      0.0000       0.00000       A     2.53681e-01     6.68790e-02    ;  uncertainty sigma = 0.000034, epsilon = 0.000846

[ moleculetype ]
;name             nrexcl
 MOL                   3

[ atoms ]
;       nr            type      resi   res      atom      cgnr      charge          mass ; qtot
         1            n0bf         1   UNL        n0         1    -0.78098       14.0070 ; qtot   -0.781
         2            c1bf         1   UNL        c1         2     0.23266       12.0110 ; qtot   -0.548
         3            c2bf         1   UNL        c2         3    -0.11952       12.0110 ; qtot   -0.668
         4            c3bf         1   UNL        c3         4     0.18766       12.0110 ; qtot   -0.480
         5            c4bf         1   UNL        c4         5    -0.11952       12.0110 ; qtot   -0.600
         6            c5bf         1   UNL        c5         6     0.23266       12.0110 ; qtot   -0.367
         7            c6bf         1   UNL        c6         7     0.03672       12.0110 ; qtot   -0.330
         8            c7bf         1   UNL        c7         8     0.01641       12.0110 ; qtot   -0.314
         9            c8bf         1   UNL        c8         9     0.06847       12.0110 ; qtot   -0.245
        10            c9bf         1   UNL        c9        10    -0.17610       12.0110 ; qtot   -0.422
        11           c10bf         1   UNL       c10        11     0.15035       12.0110 ; qtot   -0.271
        12           c11bf         1   UNL       c11        12    -0.17250       12.0110 ; qtot   -0.444
        13           c12bf         1   UNL       c12        13    -0.38157       12.0110 ; qtot   -0.825
        14           c13bf         1   UNL       c13        14     0.51033       12.0110 ; qtot   -0.315
        15           n14bf         1   UNL       n14        15    -0.79558       14.0070 ; qtot   -1.111
        16           c15bf         1   UNL       c15        16     0.93520       12.0110 ; qtot   -0.175
        17           n16bf         1   UNL       n16        17    -0.85387       14.0070 ; qtot   -1.029
        18           c17bf         1   UNL       c17        18     0.72640       12.0110 ; qtot   -0.303
        19          cl18bf         1   UNL      cl18        19    -0.08034       35.4530 ; qtot   -0.383
        20          cl19bf         1   UNL      cl19        20    -0.08290       35.4530 ; qtot   -0.466
        21           n20bf         1   UNL       n20        21    -0.92216       14.0070 ; qtot   -1.388
        22           c21bf         1   UNL       c21        22    -0.13034       12.0110 ; qtot   -1.519
        23           n22bf         1   UNL       n22        23    -0.86673       14.0070 ; qtot   -2.385
        24           h23bf         1   UNL       h23        24     0.07772        1.0080 ; qtot   -2.308
        25           h24bf         1   UNL       h24        25     0.07772        1.0080 ; qtot   -2.230
        26           h25bf         1   UNL       h25        26     0.08339        1.0080 ; qtot   -2.146
        27           h26bf         1   UNL       h26        27     0.08339        1.0080 ; qtot   -2.063
        28           h27bf         1   UNL       h27        28     0.08339        1.0080 ; qtot   -1.980
        29           h28bf         1   UNL       h28        29     0.08339        1.0080 ; qtot   -1.896
        30           h29bf         1   UNL       h29        30     0.07772        1.0080 ; qtot   -1.819
        31           h30bf         1   UNL       h30        31     0.07772        1.0080 ; qtot   -1.741
        32           h31bf         1   UNL       h31        32     0.16182        1.0080 ; qtot   -1.579
        33           o32bf         1   UNL       o32        33    -0.32000       15.9990 ; qtot   -1.899
        34           h33bf         1   UNL       h33        34     0.15228        1.0080 ; qtot   -1.747
        35           h34bf         1   UNL       h34        35     0.42318        1.0080 ; qtot   -1.324
        36           h35bf         1   UNL       h35        36     0.42318        1.0080 ; qtot   -0.900
        37           c36bf         1   UNL       c36        37     0.12208       12.0110 ; qtot   -0.778
        38           h37bf         1   UNL       h37        38     0.04263        1.0080 ; qtot   -0.736
        39           h38bf         1   UNL       h38        39     0.04263        1.0080 ; qtot   -0.693
        40           h39bf         1   UNL       h39        40     0.04263        1.0080 ; qtot   -0.650
        41           h40bf         1   UNL       h40        41     0.07734        1.0080 ; qtot   -0.573
        42           h41bf         1   UNL       h41        42     0.07734        1.0080 ; qtot   -0.496
        43           h42bf         1   UNL       h42        43     0.07734        1.0080 ; qtot   -0.418
        44           h43bf         1   UNL       h43        44     0.46464        1.0080 ; qtot    0.046
        45           h44bf         1   UNL       h44        45     0.46464        1.0080 ; qtot    0.511
        46           h45bf         1   UNL       h45        46     0.46464        1.0080 ; qtot    0.976
        47           h46bf         1   UNL       h46        47     0.02444        1.0080 ; qtot    1.000

[ bonds ]
;       ai        aj funct               r               k
         1         2     1        0.144968   251114.185303    ;  uncertainty r = 0.000170, k = 12.476815
         1         6     1        0.144968   251114.185303    ;  uncertainty r = 0.000170, k = 12.476815
         1        16     1        0.138274   305702.999805    ;  uncertainty r = 0.000340, k = 19.136871
         2         3     1        0.154006   208103.168384    ;  uncertainty r = 0.000229, k = 14.884643
         2        24     1        0.109449   306948.597852    ;  uncertainty r = 0.000047, k = 1.171914
         2        25     1        0.109449   306948.572314    ;  uncertainty r = 0.000047, k = 1.171886
         3         4     1        0.153723   202820.664087    ;  uncertainty r = 0.000184, k = 7.066040
         3        26     1        0.109581   310499.532910    ;  uncertainty r = 0.000037, k = 1.905381
         3        27     1        0.109581   310499.532910    ;  uncertainty r = 0.000037, k = 1.905381
         4         5     1        0.153723   202820.664087    ;  uncertainty r = 0.000184, k = 7.066040
         4        22     1        0.152893   210290.409033    ;  uncertainty r = 0.000125, k = 13.841204
         4        23     1        0.155122   197292.186353    ;  uncertainty r = 0.000211, k = 49.108609
         5         6     1        0.154006   208103.168384    ;  uncertainty r = 0.000229, k = 14.884643
         5        28     1        0.109581   310499.532910    ;  uncertainty r = 0.000037, k = 1.905381
         5        29     1        0.109581   310499.532910    ;  uncertainty r = 0.000037, k = 1.905381
         6        30     1        0.109449   306948.572314    ;  uncertainty r = 0.000047, k = 1.171886
         6        31     1        0.109449   306948.572314    ;  uncertainty r = 0.000047, k = 1.171886
         7         8     1        0.140286   331849.552295    ;  uncertainty r = 0.000089, k = 10.105748
         7        12     1        0.139926   345284.931982    ;  uncertainty r = 0.000085, k = 4.412312
         7        13     1        0.148014   290928.198730    ;  uncertainty r = 0.000179, k = 9.059355
         8         9     1        0.139943   338094.933301    ;  uncertainty r = 0.000055, k = 1.805579
         8        20     1        0.174423   187962.037451    ;  uncertainty r = 0.000078, k = 3.710936
         9        10     1        0.139221   362475.696826    ;  uncertainty r = 0.000036, k = 3.439498
         9        19     1        0.174512   191325.619507    ;  uncertainty r = 0.000073, k = 2.731828
        10        11     1        0.139705   367519.046094    ;  uncertainty r = 0.000034, k = 4.717371
        10        32     1        0.108680   339748.920801    ;  uncertainty r = 0.000013, k = 2.070324
        11        12     1        0.139657   361221.135254    ;  uncertainty r = 0.000080, k = 5.769598
        11        33     1        0.136172   320881.082910    ;  uncertainty r = 0.000052, k = 5.380599
        12        34     1        0.108791   338460.420410    ;  uncertainty r = 0.000022, k = 1.636834
        13        14     1        0.140170   415947.160645    ;  uncertainty r = 0.000053, k = 20.628230
        13        18     1        0.142492   436859.857031    ;  uncertainty r = 0.000147, k = 25.782754
        14        15     1        0.134349   424378.135156    ;  uncertainty r = 0.000314, k = 14.939532
        14        47     1        0.108839   326187.643164    ;  uncertainty r = 0.000016, k = 4.409353
        15        16     1        0.136231   473058.811719    ;  uncertainty r = 0.000131, k = 8.961163
        16        17     1        0.137045   459532.111328    ;  uncertainty r = 0.000097, k = 20.238173
        17        18     1        0.137136   553885.601563    ;  uncertainty r = 0.000345, k = 18.138779
        18        21     1        0.141147   543861.979688    ;  uncertainty r = 0.000306, k = 32.823372
        21        35     1        0.101885   428718.371191    ;  uncertainty r = 0.000039, k = 2.239571
        21        36     1        0.101885   428718.371191    ;  uncertainty r = 0.000039, k = 2.239571
        22        41     1        0.109485   313302.332813    ;  uncertainty r = 0.000023, k = 3.037335
        22        42     1        0.109485   313302.332813    ;  uncertainty r = 0.000023, k = 3.037335
        22        43     1        0.109485   313302.332813    ;  uncertainty r = 0.000023, k = 3.037335
        23        44     1        0.102893   408930.686621    ;  uncertainty r = 0.000060, k = 6.495000
        23        45     1        0.102893   408930.686621    ;  uncertainty r = 0.000060, k = 6.495000
        23        46     1        0.102893   408930.686621    ;  uncertainty r = 0.000060, k = 6.495000
        33        37     1        0.142034   253196.455664    ;  uncertainty r = 0.000056, k = 2.036256
        37        38     1        0.109623   311224.914502    ;  uncertainty r = 0.000009, k = 1.869755
        37        39     1        0.109623   311224.914502    ;  uncertainty r = 0.000009, k = 1.869755
        37        40     1        0.109623   311224.914502    ;  uncertainty r = 0.000009, k = 1.869766

[ angles ]
;       ai        aj        ak funct           theta             cth
         1         2         3     1      109.321327      693.713214    ;  uncertainty theta = 0.000907, k = 0.187356
         1         2        24     1      106.440819      457.938787    ;  uncertainty theta = 0.002047, k = 0.076265
         1         2        25     1      106.440819      457.938915    ;  uncertainty theta = 0.002047, k = 0.076265
         1         6         5     1      109.321327      693.713214    ;  uncertainty theta = 0.000907, k = 0.187356
         1         6        30     1      106.440819      457.938915    ;  uncertainty theta = 0.002047, k = 0.076265
         1         6        31     1      106.440819      457.938915    ;  uncertainty theta = 0.002047, k = 0.076265
         1        16        15     1      119.855728      554.739435    ;  uncertainty theta = 0.007013, k = 0.163857
         1        16        17     1      120.020409      594.592265    ;  uncertainty theta = 0.005578, k = 0.163935
         2         1         6     1      107.733925      419.581347    ;  uncertainty theta = 0.015928, k = 0.113518
         2         1        16     1      110.313477      436.064849    ;  uncertainty theta = 0.005991, k = 0.091291
         2         3         4     1      110.246353      546.471476    ;  uncertainty theta = 0.002854, k = 0.106854
         2         3        26     1      108.185547      399.606060    ;  uncertainty theta = 0.001628, k = 0.129027
         2         3        27     1      108.185547      399.606060    ;  uncertainty theta = 0.001628, k = 0.129027
         3         2        24     1      108.883324      414.526276    ;  uncertainty theta = 0.003534, k = 0.109425
         3         2        25     1      108.883324      414.526276    ;  uncertainty theta = 0.003534, k = 0.109425
         3         4         5     1      110.758156      579.433309    ;  uncertainty theta = 0.006554, k = 0.204301
         3         4        22     1      111.951096      573.556198    ;  uncertainty theta = 0.003615, k = 0.042900
         3         4        23     1      107.278976      685.371964    ;  uncertainty theta = 0.005309, k = 0.324781
         4         3        26     1      107.188622      391.727607    ;  uncertainty theta = 0.002259, k = 0.172798
         4         3        27     1      107.188622      391.727607    ;  uncertainty theta = 0.002259, k = 0.172798
         4         5         6     1      110.246353      546.471476    ;  uncertainty theta = 0.002854, k = 0.106854
         4         5        28     1      107.188622      391.727607    ;  uncertainty theta = 0.002259, k = 0.172798
         4         5        29     1      107.188622      391.727607    ;  uncertainty theta = 0.002259, k = 0.172798
         4        22        41     1      107.456223      389.152796    ;  uncertainty theta = 0.000505, k = 0.034813
         4        22        42     1      107.456223      389.152796    ;  uncertainty theta = 0.000505, k = 0.034813
         4        22        43     1      107.456223      389.152796    ;  uncertainty theta = 0.000505, k = 0.034813
         4        23        44     1      110.464333      409.034552    ;  uncertainty theta = 0.003988, k = 0.162351
         4        23        45     1      110.464333      409.034552    ;  uncertainty theta = 0.003988, k = 0.162351
         4        23        46     1      110.464333      409.034552    ;  uncertainty theta = 0.003988, k = 0.162351
         5         4        22     1      111.951096      573.556198    ;  uncertainty theta = 0.003615, k = 0.042900
         5         4        23     1      107.278976      685.371964    ;  uncertainty theta = 0.005309, k = 0.324781
         5         6        30     1      108.883324      414.526276    ;  uncertainty theta = 0.003534, k = 0.109425
         5         6        31     1      108.883324      414.526276    ;  uncertainty theta = 0.003534, k = 0.109425
         6         1        16     1      110.313477      436.064849    ;  uncertainty theta = 0.005991, k = 0.091291
         6         5        28     1      108.185547      399.606060    ;  uncertainty theta = 0.001628, k = 0.129027
         6         5        29     1      108.185547      399.606060    ;  uncertainty theta = 0.001628, k = 0.129027
         7         8         9     1      122.915695      367.941896    ;  uncertainty theta = 0.003885, k = 0.155438
         7         8        20     1      118.021523      414.287887    ;  uncertainty theta = 0.003204, k = 0.102428
         7        12        11     1      120.901733      512.866045    ;  uncertainty theta = 0.002126, k = 0.106743
         7        12        34     1      119.059021      271.939123    ;  uncertainty theta = 0.004023, k = 0.045253
         7        13        14     1      123.310791      400.225878    ;  uncertainty theta = 0.004887, k = 0.252601
         7        13        18     1      121.294823      353.794752    ;  uncertainty theta = 0.003139, k = 0.363944
         8         7        12     1      122.245728      400.396944    ;  uncertainty theta = 0.002520, k = 0.280133
         8         7        13     1      120.821388      389.987572    ;  uncertainty theta = 0.007189, k = 0.116200
         8         9        10     1      122.777786      356.669560    ;  uncertainty theta = 0.005184, k = 0.296262
         8         9        19     1      120.684608      450.864401    ;  uncertainty theta = 0.001125, k = 0.117777
         9         8        20     1      120.292435      450.220707    ;  uncertainty theta = 0.002622, k = 0.174910
         9        10        11     1      118.448586      497.043635    ;  uncertainty theta = 0.002655, k = 0.041217
         9        10        32     1      120.545250      281.936551    ;  uncertainty theta = 0.001808, k = 0.098466
        10         9        19     1      119.950729      454.191089    ;  uncertainty theta = 0.001843, k = 0.150422
        10        11        12     1      120.857101      374.937244    ;  uncertainty theta = 0.004828, k = 0.048680
        10        11        33     1      119.257980      414.123141    ;  uncertainty theta = 0.003746, k = 0.100035
        11        10        32     1      120.642151      269.049727    ;  uncertainty theta = 0.003604, k = 0.060756
        11        12        34     1      119.948715      273.209084    ;  uncertainty theta = 0.003434, k = 0.051454
        11        33        37     1      109.497437      511.562599    ;  uncertainty theta = 0.001540, k = 0.057388
        12         7        13     1      121.809982      422.712005    ;  uncertainty theta = 0.007167, k = 0.104508
        12        11        33     1      119.484154      423.802567    ;  uncertainty theta = 0.003278, k = 0.090283
        13        14        15     1      124.068039      717.755317    ;  uncertainty theta = 0.002863, k = 0.165320
        13        14        47     1      119.502975      262.714848    ;  uncertainty theta = 0.003684, k = 0.130508
        13        18        17     1      122.306068      541.081614    ;  uncertainty theta = 0.008127, k = 0.154817
        13        18        21     1      125.346458      513.680583    ;  uncertainty theta = 0.003404, k = 0.206353
        14        13        18     1      117.121864      438.500259    ;  uncertainty theta = 0.015046, k = 0.903998
        14        15        16     1      115.553734      414.220246    ;  uncertainty theta = 0.006755, k = 0.240495
        15        14        47     1      116.537865      323.396782    ;  uncertainty theta = 0.004078, k = 0.146978
        15        16        17     1      128.528290      730.251199    ;  uncertainty theta = 0.003716, k = 0.077391
        16        17        18     1      122.433716      478.394938    ;  uncertainty theta = 0.005735, k = 0.203370
        17        18        21     1      125.528793      903.169543    ;  uncertainty theta = 0.004935, k = 0.070068
        18        21        35     1      118.192444      415.370341    ;  uncertainty theta = 0.001830, k = 0.144657
        18        21        36     1      118.192444      415.370341    ;  uncertainty theta = 0.001830, k = 0.144657
        22         4        23     1      107.732376      711.715791    ;  uncertainty theta = 0.003143, k = 0.202828
        24         2        25     1      105.643227      323.899224    ;  uncertainty theta = 0.003009, k = 0.029640
        26         3        27     1      106.079796      314.629573    ;  uncertainty theta = 0.002798, k = 0.097750
        28         5        29     1      106.079796      314.629573    ;  uncertainty theta = 0.002798, k = 0.097750
        30         6        31     1      105.643227      323.899193    ;  uncertainty theta = 0.003009, k = 0.029639
        33        37        38     1      108.729530      446.118234    ;  uncertainty theta = 0.001416, k = 0.022293
        33        37        39     1      108.729530      446.118234    ;  uncertainty theta = 0.001416, k = 0.022293
        33        37        40     1      108.729530      446.118234    ;  uncertainty theta = 0.001416, k = 0.022293
        35        21        36     1      107.953087      275.511605    ;  uncertainty theta = 0.001193, k = 0.067996
        38        37        39     1      109.081810      330.154348    ;  uncertainty theta = 0.001818, k = 0.013784
        38        37        40     1      109.081810      330.154348    ;  uncertainty theta = 0.001818, k = 0.013784
        39        37        40     1      109.081810      330.154348    ;  uncertainty theta = 0.001818, k = 0.013784
        41        22        42     1      105.936523      319.817118    ;  uncertainty theta = 0.000605, k = 0.051303
        41        22        43     1      105.936523      319.817118    ;  uncertainty theta = 0.000605, k = 0.051303
        42        22        43     1      105.936523      319.817118    ;  uncertainty theta = 0.000605, k = 0.051303
        44        23        45     1      108.017105      374.242188    ;  uncertainty theta = 0.003302, k = 0.129445
        44        23        46     1      108.017105      374.242188    ;  uncertainty theta = 0.003302, k = 0.129445
        45        23        46     1      108.017105      374.242188    ;  uncertainty theta = 0.003302, k = 0.129445

[ dihedrals ] ; propers for gromacs 4.5 or higher, use funct 9
;       ai        aj        ak        al funct           phase               k        pn
         1         2         3         4     9        0.000000        3.479798         1    ;  uncertainty k = 2.631244
         1         2         3         4     9      180.000000       -4.414622         2    ;  uncertainty k = 0.895312
         1         2         3         4     9        0.000000        1.951911         3    ;  uncertainty k = 0.250639
         1         2         3         4     9      180.000000       -0.432234         4    ;  uncertainty k = 0.279775
         1         2         3        26     9        0.000000       -1.904474         1    ;  uncertainty k = 1.110760
         1         2         3        26     9      180.000000        0.320117         2    ;  uncertainty k = 0.432126
         1         2         3        26     9        0.000000        1.283060         3    ;  uncertainty k = 0.346520
         1         2         3        26     9      180.000000       -0.248889         4    ;  uncertainty k = 0.091362
         1         2         3        27     9        0.000000       -1.904474         1    ;  uncertainty k = 1.110760
         1         2         3        27     9      180.000000        0.320117         2    ;  uncertainty k = 0.432126
         1         2         3        27     9        0.000000        1.283060         3    ;  uncertainty k = 0.346520
         1         2         3        27     9      180.000000       -0.248889         4    ;  uncertainty k = 0.091362
         1         6         5         4     9        0.000000        3.479798         1    ;  uncertainty k = 2.631244
         1         6         5         4     9      180.000000       -4.414622         2    ;  uncertainty k = 0.895312
         1         6         5         4     9        0.000000        1.951911         3    ;  uncertainty k = 0.250639
         1         6         5         4     9      180.000000       -0.432234         4    ;  uncertainty k = 0.279775
         1         6         5        28     9        0.000000       -1.904474         1    ;  uncertainty k = 1.110760
         1         6         5        28     9      180.000000        0.320117         2    ;  uncertainty k = 0.432126
         1         6         5        28     9        0.000000        1.283060         3    ;  uncertainty k = 0.346520
         1         6         5        28     9      180.000000       -0.248889         4    ;  uncertainty k = 0.091362
         1         6         5        29     9        0.000000       -1.904474         1    ;  uncertainty k = 1.110760
         1         6         5        29     9      180.000000        0.320117         2    ;  uncertainty k = 0.432126
         1         6         5        29     9        0.000000        1.283060         3    ;  uncertainty k = 0.346520
         1         6         5        29     9      180.000000       -0.248889         4    ;  uncertainty k = 0.091362
         1        16        15        14     9        0.000000        0.817911         1    ;  uncertainty k = 1.768174
         1        16        15        14     9      180.000000        9.917841         2    ;  uncertainty k = 0.165986
         1        16        15        14     9        0.000000        1.510591         3    ;  uncertainty k = 0.582878
         1        16        15        14     9      180.000000        0.782228         4    ;  uncertainty k = 0.175612
         1        16        17        18     9        0.000000        0.748193         1    ;  uncertainty k = 1.163722
         1        16        17        18     9      180.000000        9.986482         2    ;  uncertainty k = 0.538236
         1        16        17        18     9        0.000000        1.552615         3    ;  uncertainty k = 0.309373
         1        16        17        18     9      180.000000        0.788152         4    ;  uncertainty k = 0.256847
         2         1         6         5     9        0.000000       -6.396972         1    ;  uncertainty k = 2.175871
         2         1         6         5     9      180.000000        1.538837         2    ;  uncertainty k = 0.773480
         2         1         6         5     9        0.000000        1.176905         3    ;  uncertainty k = 0.288771
         2         1         6         5     9      180.000000       -0.468910         4    ;  uncertainty k = 0.183517
         2         1         6        30     9        0.000000       -6.047317         1    ;  uncertainty k = 1.982148
         2         1         6        30     9      180.000000        0.993137         2    ;  uncertainty k = 0.489808
         2         1         6        30     9        0.000000        0.822683         3    ;  uncertainty k = 0.044513
         2         1         6        30     9      180.000000       -0.076732         4    ;  uncertainty k = 0.063310
         2         1         6        31     9        0.000000       -6.047317         1    ;  uncertainty k = 1.982148
         2         1         6        31     9      180.000000        0.993137         2    ;  uncertainty k = 0.489808
         2         1         6        31     9        0.000000        0.822683         3    ;  uncertainty k = 0.044513
         2         1         6        31     9      180.000000       -0.076732         4    ;  uncertainty k = 0.063310
         2         1        16        15     9        0.000000        4.882806         1    ;  uncertainty k = 1.131647
         2         1        16        15     9      180.000000       11.319773         2    ;  uncertainty k = 0.167099
         2         1        16        15     9        0.000000        0.481285         3    ;  uncertainty k = 0.234024
         2         1        16        15     9      180.000000       -0.188826         4    ;  uncertainty k = 0.100452
         2         1        16        17     9        0.000000        6.565187         1    ;  uncertainty k = 0.899569
         2         1        16        17     9      180.000000       11.421566         2    ;  uncertainty k = 0.120461
         2         1        16        17     9        0.000000        0.503067         3    ;  uncertainty k = 0.148505
         2         1        16        17     9      180.000000       -0.224790         4    ;  uncertainty k = 0.103442
         2         3         4         5     9        0.000000       -1.995783         1    ;  uncertainty k = 1.854288
         2         3         4         5     9      180.000000        0.461225         2    ;  uncertainty k = 0.623979
         2         3         4         5     9        0.000000        0.633424         3    ;  uncertainty k = 0.430864
         2         3         4         5     9      180.000000       -1.000697         4    ;  uncertainty k = 0.199219
         2         3         4        22     9        0.000000       -4.846865         1    ;  uncertainty k = 0.953609
         2         3         4        22     9      180.000000        1.255314         2    ;  uncertainty k = 0.483534
         2         3         4        22     9        0.000000        0.497225         3    ;  uncertainty k = 0.328814
         2         3         4        22     9      180.000000       -0.186222         4    ;  uncertainty k = 0.107604
         2         3         4        23     9        0.000000       -4.922188         1    ;  uncertainty k = 1.419896
         2         3         4        23     9      180.000000       -1.288663         2    ;  uncertainty k = 1.614290
         2         3         4        23     9        0.000000        1.032740         3    ;  uncertainty k = 0.323244
         2         3         4        23     9      180.000000        0.204775         4    ;  uncertainty k = 0.137621
         3         2         1         6     9        0.000000       -6.396972         1    ;  uncertainty k = 2.175871
         3         2         1         6     9      180.000000        1.538837         2    ;  uncertainty k = 0.773480
         3         2         1         6     9        0.000000        1.176905         3    ;  uncertainty k = 0.288771
         3         2         1         6     9      180.000000       -0.468910         4    ;  uncertainty k = 0.183517
         3         2         1        16     9        0.000000       -3.658729         1    ;  uncertainty k = 0.848563
         3         2         1        16     9      180.000000        0.873178         2    ;  uncertainty k = 0.535365
         3         2         1        16     9        0.000000        0.040815         3    ;  uncertainty k = 0.264461
         3         2         1        16     9      180.000000        0.238036         4    ;  uncertainty k = 0.151405
         3         4         5         6     9        0.000000       -1.995783         1    ;  uncertainty k = 1.854288
         3         4         5         6     9      180.000000        0.461225         2    ;  uncertainty k = 0.623979
         3         4         5         6     9        0.000000        0.633424         3    ;  uncertainty k = 0.430864
         3         4         5         6     9      180.000000       -1.000697         4    ;  uncertainty k = 0.199219
         3         4         5        28     9        0.000000       -1.041765         1    ;  uncertainty k = 0.265450
         3         4         5        28     9      180.000000       -0.356594         2    ;  uncertainty k = 0.191548
         3         4         5        28     9        0.000000       -0.007680         3    ;  uncertainty k = 0.093809
         3         4         5        28     9      180.000000       -0.100570         4    ;  uncertainty k = 0.058705
         3         4         5        29     9        0.000000       -1.041765         1    ;  uncertainty k = 0.265450
         3         4         5        29     9      180.000000       -0.356594         2    ;  uncertainty k = 0.191548
         3         4         5        29     9        0.000000       -0.007680         3    ;  uncertainty k = 0.093809
         3         4         5        29     9      180.000000       -0.100570         4    ;  uncertainty k = 0.058705
         3         4        22        41     9        0.000000       -0.914078         1    ;  uncertainty k = 0.356128
         3         4        22        41     9      180.000000       -0.481016         2    ;  uncertainty k = 0.207164
         3         4        22        41     9        0.000000        0.542169         3    ;  uncertainty k = 0.077000
         3         4        22        41     9      180.000000       -0.146042         4    ;  uncertainty k = 0.059767
         3         4        22        42     9        0.000000       -0.914078         1    ;  uncertainty k = 0.356128
         3         4        22        42     9      180.000000       -0.481016         2    ;  uncertainty k = 0.207164
         3         4        22        42     9        0.000000        0.542169         3    ;  uncertainty k = 0.077000
         3         4        22        42     9      180.000000       -0.146042         4    ;  uncertainty k = 0.059767
         3         4        22        43     9        0.000000       -0.914078         1    ;  uncertainty k = 0.356128
         3         4        22        43     9      180.000000       -0.481016         2    ;  uncertainty k = 0.207164
         3         4        22        43     9        0.000000        0.542169         3    ;  uncertainty k = 0.077000
         3         4        22        43     9      180.000000       -0.146042         4    ;  uncertainty k = 0.059767
         3         4        23        44     9        0.000000       -0.378619         1    ;  uncertainty k = 1.202867
         3         4        23        44     9      180.000000       -0.218969         2    ;  uncertainty k = 0.263350
         3         4        23        44     9        0.000000        0.752335         3    ;  uncertainty k = 0.133800
         3         4        23        44     9      180.000000       -0.117477         4    ;  uncertainty k = 0.099713
         3         4        23        45     9        0.000000       -0.378619         1    ;  uncertainty k = 1.202867
         3         4        23        45     9      180.000000       -0.218969         2    ;  uncertainty k = 0.263350
         3         4        23        45     9        0.000000        0.752335         3    ;  uncertainty k = 0.133800
         3         4        23        45     9      180.000000       -0.117477         4    ;  uncertainty k = 0.099713
         3         4        23        46     9        0.000000       -0.378619         1    ;  uncertainty k = 1.202867
         3         4        23        46     9      180.000000       -0.218969         2    ;  uncertainty k = 0.263350
         3         4        23        46     9        0.000000        0.752335         3    ;  uncertainty k = 0.133800
         3         4        23        46     9      180.000000       -0.117477         4    ;  uncertainty k = 0.099713
         4         3         2        24     9        0.000000        2.805145         1    ;  uncertainty k = 1.342925
         4         3         2        24     9      180.000000       -2.640033         2    ;  uncertainty k = 0.200970
         4         3         2        24     9        0.000000        0.068377         3    ;  uncertainty k = 0.137352
         4         3         2        24     9      180.000000        0.232543         4    ;  uncertainty k = 0.063819
         4         3         2        25     9        0.000000        2.805145         1    ;  uncertainty k = 1.342925
         4         3         2        25     9      180.000000       -2.640033         2    ;  uncertainty k = 0.200969
         4         3         2        25     9        0.000000        0.068378         3    ;  uncertainty k = 0.137352
         4         3         2        25     9      180.000000        0.232543         4    ;  uncertainty k = 0.063819
         4         5         6        30     9        0.000000        2.805145         1    ;  uncertainty k = 1.342925
         4         5         6        30     9      180.000000       -2.640033         2    ;  uncertainty k = 0.200969
         4         5         6        30     9        0.000000        0.068378         3    ;  uncertainty k = 0.137352
         4         5         6        30     9      180.000000        0.232543         4    ;  uncertainty k = 0.063819
         4         5         6        31     9        0.000000        2.805145         1    ;  uncertainty k = 1.342925
         4         5         6        31     9      180.000000       -2.640033         2    ;  uncertainty k = 0.200969
         4         5         6        31     9        0.000000        0.068378         3    ;  uncertainty k = 0.137352
         4         5         6        31     9      180.000000        0.232543         4    ;  uncertainty k = 0.063819
         5         4         3        26     9        0.000000       -1.041765         1    ;  uncertainty k = 0.265450
         5         4         3        26     9      180.000000       -0.356594         2    ;  uncertainty k = 0.191548
         5         4         3        26     9        0.000000       -0.007680         3    ;  uncertainty k = 0.093809
         5         4         3        26     9      180.000000       -0.100570         4    ;  uncertainty k = 0.058705
         5         4         3        27     9        0.000000       -1.041765         1    ;  uncertainty k = 0.265450
         5         4         3        27     9      180.000000       -0.356594         2    ;  uncertainty k = 0.191548
         5         4         3        27     9        0.000000       -0.007680         3    ;  uncertainty k = 0.093809
         5         4         3        27     9      180.000000       -0.100570         4    ;  uncertainty k = 0.058705
         5         4        22        41     9        0.000000       -0.914078         1    ;  uncertainty k = 0.356128
         5         4        22        41     9      180.000000       -0.481016         2    ;  uncertainty k = 0.207164
         5         4        22        41     9        0.000000        0.542169         3    ;  uncertainty k = 0.077000
         5         4        22        41     9      180.000000       -0.146042         4    ;  uncertainty k = 0.059767
         5         4        22        42     9        0.000000       -0.914078         1    ;  uncertainty k = 0.356128
         5         4        22        42     9      180.000000       -0.481016         2    ;  uncertainty k = 0.207164
         5         4        22        42     9        0.000000        0.542169         3    ;  uncertainty k = 0.077000
         5         4        22        42     9      180.000000       -0.146042         4    ;  uncertainty k = 0.059767
         5         4        22        43     9        0.000000       -0.914078         1    ;  uncertainty k = 0.356128
         5         4        22        43     9      180.000000       -0.481016         2    ;  uncertainty k = 0.207164
         5         4        22        43     9        0.000000        0.542169         3    ;  uncertainty k = 0.077000
         5         4        22        43     9      180.000000       -0.146042         4    ;  uncertainty k = 0.059767
         5         4        23        44     9        0.000000       -0.378619         1    ;  uncertainty k = 1.202867
         5         4        23        44     9      180.000000       -0.218969         2    ;  uncertainty k = 0.263350
         5         4        23        44     9        0.000000        0.752335         3    ;  uncertainty k = 0.133800
         5         4        23        44     9      180.000000       -0.117477         4    ;  uncertainty k = 0.099713
         5         4        23        45     9        0.000000       -0.378619         1    ;  uncertainty k = 1.202867
         5         4        23        45     9      180.000000       -0.218969         2    ;  uncertainty k = 0.263350
         5         4        23        45     9        0.000000        0.752335         3    ;  uncertainty k = 0.133800
         5         4        23        45     9      180.000000       -0.117477         4    ;  uncertainty k = 0.099713
         5         4        23        46     9        0.000000       -0.378619         1    ;  uncertainty k = 1.202867
         5         4        23        46     9      180.000000       -0.218969         2    ;  uncertainty k = 0.263350
         5         4        23        46     9        0.000000        0.752335         3    ;  uncertainty k = 0.133800
         5         4        23        46     9      180.000000       -0.117477         4    ;  uncertainty k = 0.099713
         5         6         1        16     9        0.000000       -3.658729         1    ;  uncertainty k = 0.848563
         5         6         1        16     9      180.000000        0.873178         2    ;  uncertainty k = 0.535365
         5         6         1        16     9        0.000000        0.040815         3    ;  uncertainty k = 0.264461
         5         6         1        16     9      180.000000        0.238036         4    ;  uncertainty k = 0.151405
         6         1         2        24     9        0.000000       -6.047317         1    ;  uncertainty k = 1.982148
         6         1         2        24     9      180.000000        0.993139         2    ;  uncertainty k = 0.489808
         6         1         2        24     9        0.000000        0.822682         3    ;  uncertainty k = 0.044513
         6         1         2        24     9      180.000000       -0.076732         4    ;  uncertainty k = 0.063310
         6         1         2        25     9        0.000000       -6.047317         1    ;  uncertainty k = 1.982148
         6         1         2        25     9      180.000000        0.993137         2    ;  uncertainty k = 0.489808
         6         1         2        25     9        0.000000        0.822683         3    ;  uncertainty k = 0.044513
         6         1         2        25     9      180.000000       -0.076732         4    ;  uncertainty k = 0.063310
         6         1        16        15     9        0.000000        4.882806         1    ;  uncertainty k = 1.131647
         6         1        16        15     9      180.000000       11.319773         2    ;  uncertainty k = 0.167099
         6         1        16        15     9        0.000000        0.481285         3    ;  uncertainty k = 0.234024
         6         1        16        15     9      180.000000       -0.188826         4    ;  uncertainty k = 0.100452
         6         1        16        17     9        0.000000        6.565187         1    ;  uncertainty k = 0.899569
         6         1        16        17     9      180.000000       11.421566         2    ;  uncertainty k = 0.120461
         6         1        16        17     9        0.000000        0.503067         3    ;  uncertainty k = 0.148505
         6         1        16        17     9      180.000000       -0.224790         4    ;  uncertainty k = 0.103442
         6         5         4        22     9        0.000000       -4.846865         1    ;  uncertainty k = 0.953609
         6         5         4        22     9      180.000000        1.255314         2    ;  uncertainty k = 0.483534
         6         5         4        22     9        0.000000        0.497225         3    ;  uncertainty k = 0.328814
         6         5         4        22     9      180.000000       -0.186222         4    ;  uncertainty k = 0.107604
         6         5         4        23     9        0.000000       -4.922188         1    ;  uncertainty k = 1.419896
         6         5         4        23     9      180.000000       -1.288663         2    ;  uncertainty k = 1.614290
         6         5         4        23     9        0.000000        1.032740         3    ;  uncertainty k = 0.323244
         6         5         4        23     9      180.000000        0.204775         4    ;  uncertainty k = 0.137621
         7         8         9        10     9        0.000000       -0.317458         1    ;  uncertainty k = 0.225927
         7         8         9        10     9      180.000000        5.960881         2    ;  uncertainty k = 0.885096
         7         8         9        10     9        0.000000        0.447260         3    ;  uncertainty k = 0.232948
         7         8         9        10     9      180.000000        1.303696         4    ;  uncertainty k = 0.386872
         7         8         9        19     9        0.000000        0.089398         1    ;  uncertainty k = 0.232554
         7         8         9        19     9      180.000000        6.720705         2    ;  uncertainty k = 0.671942
         7         8         9        19     9        0.000000        1.393863         3    ;  uncertainty k = 0.253142
         7         8         9        19     9      180.000000        1.750637         4    ;  uncertainty k = 0.124827
         7        12        11        10     9        0.000000       -0.036039         1    ;  uncertainty k = 0.407180
         7        12        11        10     9      180.000000        8.219353         2    ;  uncertainty k = 0.764453
         7        12        11        10     9        0.000000        0.191628         3    ;  uncertainty k = 0.298414
         7        12        11        10     9      180.000000        1.306704         4    ;  uncertainty k = 0.361569
         7        12        11        33     9        0.000000        0.009730         1    ;  uncertainty k = 0.257803
         7        12        11        33     9      180.000000        9.808003         2    ;  uncertainty k = 0.591710
         7        12        11        33     9        0.000000        1.057590         3    ;  uncertainty k = 0.278382
         7        12        11        33     9      180.000000        1.627817         4    ;  uncertainty k = 0.120446
         7        13        14        15     9        0.000000        0.335434         1    ;  uncertainty k = 0.486319
         7        13        14        15     9      180.000000       12.618602         2    ;  uncertainty k = 0.435331
         7        13        14        15     9        0.000000        0.994189         3    ;  uncertainty k = 0.319691
         7        13        14        15     9      180.000000        1.432722         4    ;  uncertainty k = 0.252355
         7        13        14        47     9        0.000000       -0.584625         1    ;  uncertainty k = 0.729294
         7        13        14        47     9      180.000000        6.676083         2    ;  uncertainty k = 0.503582
         7        13        14        47     9        0.000000        0.935742         3    ;  uncertainty k = 0.153185
         7        13        14        47     9      180.000000        1.182932         4    ;  uncertainty k = 0.120431
         7        13        18        17     9        0.000000        0.646761         1    ;  uncertainty k = 0.559920
         7        13        18        17     9      180.000000        6.627094         2    ;  uncertainty k = 1.129460
         7        13        18        17     9        0.000000        0.687860         3    ;  uncertainty k = 0.180207
         7        13        18        17     9      180.000000        1.341091         4    ;  uncertainty k = 0.395749
         7        13        18        21     9        0.000000        0.172044         1    ;  uncertainty k = 1.292088
         7        13        18        21     9      180.000000        7.046388         2    ;  uncertainty k = 0.857117
         7        13        18        21     9        0.000000        0.615391         3    ;  uncertainty k = 0.341662
         7        13        18        21     9      180.000000        0.889827         4    ;  uncertainty k = 0.216107
         8         7        12        11     9        0.000000       -0.117652         1    ;  uncertainty k = 0.363622
         8         7        12        11     9      180.000000       10.295368         2    ;  uncertainty k = 0.513280
         8         7        12        11     9        0.000000        0.222206         3    ;  uncertainty k = 0.226711
         8         7        12        11     9      180.000000        1.256303         4    ;  uncertainty k = 0.354359
         8         7        12        34     9        0.000000        0.250116         1    ;  uncertainty k = 0.405907
         8         7        12        34     9      180.000000        7.235875         2    ;  uncertainty k = 0.444329
         8         7        12        34     9        0.000000        1.518716         3    ;  uncertainty k = 0.289944
         8         7        12        34     9      180.000000        1.711361         4    ;  uncertainty k = 0.120795
         8         7        13        14     9        0.000000        1.299410         1    ;  uncertainty k = 1.234318
         8         7        13        14     9      180.000000        3.757581         2    ;  uncertainty k = 0.410901
         8         7        13        14     9        0.000000        0.443105         3    ;  uncertainty k = 0.116530
         8         7        13        14     9      180.000000        0.323612         4    ;  uncertainty k = 0.088017
         8         7        13        18     9        0.000000        3.593199         1    ;  uncertainty k = 1.204481
         8         7        13        18     9      180.000000        3.388998         2    ;  uncertainty k = 0.543980
         8         7        13        18     9        0.000000        1.256241         3    ;  uncertainty k = 0.506199
         8         7        13        18     9      180.000000        0.435365         4    ;  uncertainty k = 0.085740
         8         9        10        11     9        0.000000        0.101441         1    ;  uncertainty k = 0.162664
         8         9        10        11     9      180.000000        9.296398         2    ;  uncertainty k = 0.423968
         8         9        10        11     9        0.000000        0.342538         3    ;  uncertainty k = 0.405349
         8         9        10        11     9      180.000000        1.304303         4    ;  uncertainty k = 0.297112
         8         9        10        32     9        0.000000        0.313700         1    ;  uncertainty k = 0.212859
         8         9        10        32     9      180.000000        6.364401         2    ;  uncertainty k = 0.576764
         8         9        10        32     9        0.000000        1.572853         3    ;  uncertainty k = 0.417784
         8         9        10        32     9      180.000000        1.651985         4    ;  uncertainty k = 0.131758
         9         8         7        12     9        0.000000       -0.135150         1    ;  uncertainty k = 0.449329
         9         8         7        12     9      180.000000        6.996826         2    ;  uncertainty k = 0.856539
         9         8         7        12     9        0.000000        0.393890         3    ;  uncertainty k = 0.477106
         9         8         7        12     9      180.000000        1.216136         4    ;  uncertainty k = 0.321628
         9         8         7        13     9        0.000000       -0.003263         1    ;  uncertainty k = 0.520364
         9         8         7        13     9      180.000000        6.579356         2    ;  uncertainty k = 0.439243
         9         8         7        13     9        0.000000        1.355906         3    ;  uncertainty k = 0.284736
         9         8         7        13     9      180.000000        1.596868         4    ;  uncertainty k = 0.225838
         9        10        11        12     9        0.000000       -0.104282         1    ;  uncertainty k = 0.370455
         9        10        11        12     9      180.000000        8.617496         2    ;  uncertainty k = 0.711602
         9        10        11        12     9        0.000000        0.046766         3    ;  uncertainty k = 0.399876
         9        10        11        12     9      180.000000        1.230462         4    ;  uncertainty k = 0.347525
         9        10        11        33     9        0.000000       -0.028178         1    ;  uncertainty k = 0.193353
         9        10        11        33     9      180.000000       10.563136         2    ;  uncertainty k = 0.475582
         9        10        11        33     9        0.000000        1.113673         3    ;  uncertainty k = 0.181730
         9        10        11        33     9      180.000000        1.586170         4    ;  uncertainty k = 0.174112
        10         9         8        20     9        0.000000        0.130856         1    ;  uncertainty k = 0.198554
        10         9         8        20     9      180.000000        7.140197         2    ;  uncertainty k = 0.321052
        10         9         8        20     9        0.000000        1.460044         3    ;  uncertainty k = 0.240791
        10         9         8        20     9      180.000000        1.680328         4    ;  uncertainty k = 0.112624
        10        11        12        34     9        0.000000        0.196589         1    ;  uncertainty k = 0.268178
        10        11        12        34     9      180.000000        6.132955         2    ;  uncertainty k = 0.401340
        10        11        12        34     9        0.000000        1.436986         3    ;  uncertainty k = 0.286079
        10        11        12        34     9      180.000000        1.662786         4    ;  uncertainty k = 0.084411
        10        11        33        37     9        0.000000       -0.074524         1    ;  uncertainty k = 0.519193
        10        11        33        37     9      180.000000        7.451735         2    ;  uncertainty k = 0.076290
        10        11        33        37     9        0.000000        0.545077         3    ;  uncertainty k = 0.187007
        10        11        33        37     9      180.000000        0.293299         4    ;  uncertainty k = 0.028136
        11        10         9        19     9        0.000000        0.033992         1    ;  uncertainty k = 0.074243
        11        10         9        19     9      180.000000        9.770720         2    ;  uncertainty k = 0.602241
        11        10         9        19     9        0.000000        1.403647         3    ;  uncertainty k = 0.436371
        11        10         9        19     9      180.000000        1.702761         4    ;  uncertainty k = 0.250771
        11        12         7        13     9        0.000000        0.027559         1    ;  uncertainty k = 0.327890
        11        12         7        13     9      180.000000        9.543562         2    ;  uncertainty k = 0.579670
        11        12         7        13     9        0.000000        1.090138         3    ;  uncertainty k = 0.313104
        11        12         7        13     9      180.000000        1.751672         4    ;  uncertainty k = 0.288781
        11        33        37        38     9        0.000000        0.765013         1    ;  uncertainty k = 0.251658
        11        33        37        38     9      180.000000       -1.519149         2    ;  uncertainty k = 0.163477
        11        33        37        38     9        0.000000        0.936811         3    ;  uncertainty k = 0.058264
        11        33        37        38     9      180.000000        0.282885         4    ;  uncertainty k = 0.057252
        11        33        37        39     9        0.000000        0.765013         1    ;  uncertainty k = 0.251658
        11        33        37        39     9      180.000000       -1.519149         2    ;  uncertainty k = 0.163477
        11        33        37        39     9        0.000000        0.936811         3    ;  uncertainty k = 0.058264
        11        33        37        39     9      180.000000        0.282885         4    ;  uncertainty k = 0.057252
        11        33        37        40     9        0.000000        0.765013         1    ;  uncertainty k = 0.251658
        11        33        37        40     9      180.000000       -1.519149         2    ;  uncertainty k = 0.163477
        11        33        37        40     9        0.000000        0.936811         3    ;  uncertainty k = 0.058264
        11        33        37        40     9      180.000000        0.282885         4    ;  uncertainty k = 0.057252
        12         7         8        20     9        0.000000        0.002523         1    ;  uncertainty k = 0.386543
        12         7         8        20     9      180.000000        7.859461         2    ;  uncertainty k = 0.522289
        12         7         8        20     9        0.000000        1.388216         3    ;  uncertainty k = 0.446017
        12         7         8        20     9      180.000000        1.568996         4    ;  uncertainty k = 0.175527
        12         7        13        14     9        0.000000       -1.272009         1    ;  uncertainty k = 0.471334
        12         7        13        14     9      180.000000        4.801443         2    ;  uncertainty k = 0.289870
        12         7        13        14     9        0.000000        0.614682         3    ;  uncertainty k = 0.319025
        12         7        13        14     9      180.000000        0.322387         4    ;  uncertainty k = 0.121121
        12         7        13        18     9        0.000000        0.451447         1    ;  uncertainty k = 1.148679
        12         7        13        18     9      180.000000        4.792970         2    ;  uncertainty k = 0.864088
        12         7        13        18     9        0.000000        0.561783         3    ;  uncertainty k = 0.445982
        12         7        13        18     9      180.000000        0.619568         4    ;  uncertainty k = 0.098055
        12        11        10        32     9        0.000000        0.201070         1    ;  uncertainty k = 0.292311
        12        11        10        32     9      180.000000        5.770855         2    ;  uncertainty k = 0.472309
        12        11        10        32     9        0.000000        1.460232         3    ;  uncertainty k = 0.257650
        12        11        10        32     9      180.000000        1.613624         4    ;  uncertainty k = 0.081129
        12        11        33        37     9        0.000000       -0.354782         1    ;  uncertainty k = 0.432975
        12        11        33        37     9      180.000000        7.803201         2    ;  uncertainty k = 0.093263
        12        11        33        37     9        0.000000        0.459164         3    ;  uncertainty k = 0.199526
        12        11        33        37     9      180.000000        0.284870         4    ;  uncertainty k = 0.065554
        13         7         8        20     9        0.000000       -0.240746         1    ;  uncertainty k = 0.762517
        13         7         8        20     9      180.000000        7.852379         2    ;  uncertainty k = 0.348259
        13         7         8        20     9        0.000000        1.149846         3    ;  uncertainty k = 0.301047
        13         7         8        20     9      180.000000        1.429684         4    ;  uncertainty k = 0.243691
        13         7        12        34     9        0.000000       -0.101291         1    ;  uncertainty k = 0.129081
        13         7        12        34     9      180.000000        7.464173         2    ;  uncertainty k = 0.453891
        13         7        12        34     9        0.000000        0.904972         3    ;  uncertainty k = 0.334193
        13         7        12        34     9      180.000000        1.260696         4    ;  uncertainty k = 0.202322
        13        14        15        16     9        0.000000       -0.718744         1    ;  uncertainty k = 0.569615
        13        14        15        16     9      180.000000       16.399686         2    ;  uncertainty k = 0.669709
        13        14        15        16     9        0.000000       -0.396901         3    ;  uncertainty k = 0.714448
        13        14        15        16     9      180.000000        1.433863         4    ;  uncertainty k = 0.585802
        13        18        17        16     9        0.000000        0.632325         1    ;  uncertainty k = 1.534388
        13        18        17        16     9      180.000000       11.211023         2    ;  uncertainty k = 0.687421
        13        18        17        16     9        0.000000        0.580843         3    ;  uncertainty k = 0.789195
        13        18        17        16     9      180.000000        1.122944         4    ;  uncertainty k = 0.444205
        13        18        21        35     9        0.000000       14.384724         1    ;  uncertainty k = 0.313195
        13        18        21        35     9      180.000000        7.565414         2    ;  uncertainty k = 0.441757
        13        18        21        35     9        0.000000        0.809704         3    ;  uncertainty k = 0.182326
        13        18        21        35     9      180.000000       -0.141262         4    ;  uncertainty k = 0.070045
        13        18        21        36     9        0.000000       14.384724         1    ;  uncertainty k = 0.313195
        13        18        21        36     9      180.000000        7.565414         2    ;  uncertainty k = 0.441757
        13        18        21        36     9        0.000000        0.809704         3    ;  uncertainty k = 0.182326
        13        18        21        36     9      180.000000       -0.141262         4    ;  uncertainty k = 0.070045
        14        13        18        17     9        0.000000       -0.219882         1    ;  uncertainty k = 0.765879
        14        13        18        17     9      180.000000        6.408644         2    ;  uncertainty k = 1.046619
        14        13        18        17     9        0.000000       -0.754810         3    ;  uncertainty k = 0.351825
        14        13        18        17     9      180.000000        0.901552         4    ;  uncertainty k = 0.407892
        14        13        18        21     9        0.000000       -0.899931         1    ;  uncertainty k = 0.781872
        14        13        18        21     9      180.000000        5.657957         2    ;  uncertainty k = 0.441560
        14        13        18        21     9        0.000000        0.495523         3    ;  uncertainty k = 0.384574
        14        13        18        21     9      180.000000        0.765188         4    ;  uncertainty k = 0.210297
        14        15        16        17     9        0.000000        0.001312         1    ;  uncertainty k = 1.334869
        14        15        16        17     9      180.000000        8.804750         2    ;  uncertainty k = 0.576227
        14        15        16        17     9        0.000000        0.726444         3    ;  uncertainty k = 0.520700
        14        15        16        17     9      180.000000        0.693231         4    ;  uncertainty k = 0.161402
        15        14        13        18     9        0.000000        0.173871         1    ;  uncertainty k = 0.670082
        15        14        13        18     9      180.000000       15.587788         2    ;  uncertainty k = 0.558179
        15        14        13        18     9        0.000000       -0.888854         3    ;  uncertainty k = 0.562817
        15        14        13        18     9      180.000000        0.856158         4    ;  uncertainty k = 0.193575
        15        16        17        18     9        0.000000       -0.443868         1    ;  uncertainty k = 0.933777
        15        16        17        18     9      180.000000        8.439826         2    ;  uncertainty k = 0.475905
        15        16        17        18     9        0.000000        1.077033         3    ;  uncertainty k = 0.357989
        15        16        17        18     9      180.000000        0.617525         4    ;  uncertainty k = 0.233967
        16         1         2        24     9        0.000000       -0.423284         1    ;  uncertainty k = 0.572899
        16         1         2        24     9      180.000000        0.236077         2    ;  uncertainty k = 0.260959
        16         1         2        24     9        0.000000       -0.029170         3    ;  uncertainty k = 0.096187
        16         1         2        24     9      180.000000        0.276276         4    ;  uncertainty k = 0.037777
        16         1         2        25     9        0.000000       -0.423284         1    ;  uncertainty k = 0.572899
        16         1         2        25     9      180.000000        0.236078         2    ;  uncertainty k = 0.260959
        16         1         2        25     9        0.000000       -0.029170         3    ;  uncertainty k = 0.096187
        16         1         2        25     9      180.000000        0.276276         4    ;  uncertainty k = 0.037777
        16         1         6        30     9        0.000000       -0.423284         1    ;  uncertainty k = 0.572899
        16         1         6        30     9      180.000000        0.236078         2    ;  uncertainty k = 0.260959
        16         1         6        30     9        0.000000       -0.029170         3    ;  uncertainty k = 0.096187
        16         1         6        30     9      180.000000        0.276276         4    ;  uncertainty k = 0.037777
        16         1         6        31     9        0.000000       -0.423284         1    ;  uncertainty k = 0.572899
        16         1         6        31     9      180.000000        0.236078         2    ;  uncertainty k = 0.260959
        16         1         6        31     9        0.000000       -0.029170         3    ;  uncertainty k = 0.096187
        16         1         6        31     9      180.000000        0.276276         4    ;  uncertainty k = 0.037777
        16        15        14        47     9        0.000000       -0.595825         1    ;  uncertainty k = 0.846289
        16        15        14        47     9      180.000000       15.847665         2    ;  uncertainty k = 0.601484
        16        15        14        47     9        0.000000        1.531909         3    ;  uncertainty k = 0.703194
        16        15        14        47     9      180.000000        1.181239         4    ;  uncertainty k = 0.617173
        16        17        18        21     9        0.000000        0.394473         1    ;  uncertainty k = 1.266258
        16        17        18        21     9      180.000000       15.313969         2    ;  uncertainty k = 0.318246
        16        17        18        21     9        0.000000        2.561161         3    ;  uncertainty k = 0.516633
        16        17        18        21     9      180.000000        1.861309         4    ;  uncertainty k = 0.375488
        17        18        21        35     9        0.000000       20.733104         1    ;  uncertainty k = 0.257631
        17        18        21        35     9      180.000000       12.720319         2    ;  uncertainty k = 0.157224
        17        18        21        35     9        0.000000        0.630494         3    ;  uncertainty k = 0.132647
        17        18        21        35     9      180.000000       -0.490804         4    ;  uncertainty k = 0.222648
        17        18        21        36     9        0.000000       20.733104         1    ;  uncertainty k = 0.257631
        17        18        21        36     9      180.000000       12.720319         2    ;  uncertainty k = 0.157224
        17        18        21        36     9        0.000000        0.630494         3    ;  uncertainty k = 0.132647
        17        18        21        36     9      180.000000       -0.490804         4    ;  uncertainty k = 0.222648
        18        13        14        47     9        0.000000       -0.521991         1    ;  uncertainty k = 0.525994
        18        13        14        47     9      180.000000        6.718420         2    ;  uncertainty k = 0.708550
        18        13        14        47     9        0.000000        0.791682         3    ;  uncertainty k = 0.338646
        18        13        14        47     9      180.000000        1.211104         4    ;  uncertainty k = 0.171498
        19         9         8        20     9        0.000000        0.078492         1    ;  uncertainty k = 0.523278
        19         9         8        20     9      180.000000        7.428938         2    ;  uncertainty k = 0.327088
        19         9         8        20     9        0.000000        1.188085         3    ;  uncertainty k = 0.270716
        19         9         8        20     9      180.000000        1.391920         4    ;  uncertainty k = 0.269098
        19         9        10        32     9        0.000000       -0.131965         1    ;  uncertainty k = 0.217555
        19         9        10        32     9      180.000000        7.406929         2    ;  uncertainty k = 0.491934
        19         9        10        32     9        0.000000        0.583964         3    ;  uncertainty k = 0.333180
        19         9        10        32     9      180.000000        1.077514         4    ;  uncertainty k = 0.199257
        22         4         3        26     9        0.000000       -0.345185         1    ;  uncertainty k = 0.389032
        22         4         3        26     9      180.000000       -0.057708         2    ;  uncertainty k = 0.382826
        22         4         3        26     9        0.000000        0.281401         3    ;  uncertainty k = 0.220111
        22         4         3        26     9      180.000000       -0.051810         4    ;  uncertainty k = 0.076920
        22         4         3        27     9        0.000000       -0.345185         1    ;  uncertainty k = 0.389032
        22         4         3        27     9      180.000000       -0.057708         2    ;  uncertainty k = 0.382826
        22         4         3        27     9        0.000000        0.281401         3    ;  uncertainty k = 0.220111
        22         4         3        27     9      180.000000       -0.051810         4    ;  uncertainty k = 0.076920
        22         4         5        28     9        0.000000       -0.345185         1    ;  uncertainty k = 0.389032
        22         4         5        28     9      180.000000       -0.057708         2    ;  uncertainty k = 0.382826
        22         4         5        28     9        0.000000        0.281401         3    ;  uncertainty k = 0.220111
        22         4         5        28     9      180.000000       -0.051810         4    ;  uncertainty k = 0.076920
        22         4         5        29     9        0.000000       -0.345185         1    ;  uncertainty k = 0.389032
        22         4         5        29     9      180.000000       -0.057708         2    ;  uncertainty k = 0.382826
        22         4         5        29     9        0.000000        0.281401         3    ;  uncertainty k = 0.220111
        22         4         5        29     9      180.000000       -0.051810         4    ;  uncertainty k = 0.076920
        22         4        23        44     9        0.000000        0.214190         1    ;  uncertainty k = 1.165376
        22         4        23        44     9      180.000000       -0.101717         2    ;  uncertainty k = 0.387077
        22         4        23        44     9        0.000000        0.750309         3    ;  uncertainty k = 0.221539
        22         4        23        44     9      180.000000       -0.027140         4    ;  uncertainty k = 0.139765
        22         4        23        45     9        0.000000        0.214190         1    ;  uncertainty k = 1.165376
        22         4        23        45     9      180.000000       -0.101717         2    ;  uncertainty k = 0.387077
        22         4        23        45     9        0.000000        0.750309         3    ;  uncertainty k = 0.221539
        22         4        23        45     9      180.000000       -0.027140         4    ;  uncertainty k = 0.139765
        22         4        23        46     9        0.000000        0.214190         1    ;  uncertainty k = 1.165376
        22         4        23        46     9      180.000000       -0.101717         2    ;  uncertainty k = 0.387077
        22         4        23        46     9        0.000000        0.750309         3    ;  uncertainty k = 0.221539
        22         4        23        46     9      180.000000       -0.027140         4    ;  uncertainty k = 0.139765
        23         4         3        26     9        0.000000       -0.957016         1    ;  uncertainty k = 0.777482
        23         4         3        26     9      180.000000       -1.810503         2    ;  uncertainty k = 0.431985
        23         4         3        26     9        0.000000        0.536111         3    ;  uncertainty k = 0.153239
        23         4         3        26     9      180.000000       -0.242449         4    ;  uncertainty k = 0.143920
        23         4         3        27     9        0.000000       -0.957016         1    ;  uncertainty k = 0.777482
        23         4         3        27     9      180.000000       -1.810503         2    ;  uncertainty k = 0.431985
        23         4         3        27     9        0.000000        0.536111         3    ;  uncertainty k = 0.153239
        23         4         3        27     9      180.000000       -0.242449         4    ;  uncertainty k = 0.143920
        23         4         5        28     9        0.000000       -0.957016         1    ;  uncertainty k = 0.777482
        23         4         5        28     9      180.000000       -1.810503         2    ;  uncertainty k = 0.431985
        23         4         5        28     9        0.000000        0.536111         3    ;  uncertainty k = 0.153239
        23         4         5        28     9      180.000000       -0.242449         4    ;  uncertainty k = 0.143920
        23         4         5        29     9        0.000000       -0.957016         1    ;  uncertainty k = 0.777482
        23         4         5        29     9      180.000000       -1.810503         2    ;  uncertainty k = 0.431985
        23         4         5        29     9        0.000000        0.536111         3    ;  uncertainty k = 0.153239
        23         4         5        29     9      180.000000       -0.242449         4    ;  uncertainty k = 0.143920
        23         4        22        41     9        0.000000       -1.658332         1    ;  uncertainty k = 1.431247
        23         4        22        41     9      180.000000       -2.618284         2    ;  uncertainty k = 0.451255
        23         4        22        41     9        0.000000        0.778237         3    ;  uncertainty k = 0.254190
        23         4        22        41     9      180.000000       -0.194334         4    ;  uncertainty k = 0.172569
        23         4        22        42     9        0.000000       -1.658332         1    ;  uncertainty k = 1.431247
        23         4        22        42     9      180.000000       -2.618284         2    ;  uncertainty k = 0.451255
        23         4        22        42     9        0.000000        0.778237         3    ;  uncertainty k = 0.254190
        23         4        22        42     9      180.000000       -0.194334         4    ;  uncertainty k = 0.172569
        23         4        22        43     9        0.000000       -1.658332         1    ;  uncertainty k = 1.431247
        23         4        22        43     9      180.000000       -2.618284         2    ;  uncertainty k = 0.451255
        23         4        22        43     9        0.000000        0.778237         3    ;  uncertainty k = 0.254190
        23         4        22        43     9      180.000000       -0.194334         4    ;  uncertainty k = 0.172569
        24         2         3        26     9        0.000000        0.137549         1    ;  uncertainty k = 0.221542
        24         2         3        26     9      180.000000        0.343769         2    ;  uncertainty k = 0.368626
        24         2         3        26     9        0.000000        0.156579         3    ;  uncertainty k = 0.091251
        24         2         3        26     9      180.000000       -0.126978         4    ;  uncertainty k = 0.142373
        24         2         3        27     9        0.000000        0.137549         1    ;  uncertainty k = 0.221542
        24         2         3        27     9      180.000000        0.343769         2    ;  uncertainty k = 0.368626
        24         2         3        27     9        0.000000        0.156579         3    ;  uncertainty k = 0.091251
        24         2         3        27     9      180.000000       -0.126978         4    ;  uncertainty k = 0.142373
        25         2         3        26     9        0.000000        0.137550         1    ;  uncertainty k = 0.221542
        25         2         3        26     9      180.000000        0.343769         2    ;  uncertainty k = 0.368626
        25         2         3        26     9        0.000000        0.156579         3    ;  uncertainty k = 0.091251
        25         2         3        26     9      180.000000       -0.126978         4    ;  uncertainty k = 0.142373
        25         2         3        27     9        0.000000        0.137550         1    ;  uncertainty k = 0.221542
        25         2         3        27     9      180.000000        0.343769         2    ;  uncertainty k = 0.368626
        25         2         3        27     9        0.000000        0.156579         3    ;  uncertainty k = 0.091251
        25         2         3        27     9      180.000000       -0.126978         4    ;  uncertainty k = 0.142373
        28         5         6        30     9        0.000000        0.137550         1    ;  uncertainty k = 0.221542
        28         5         6        30     9      180.000000        0.343769         2    ;  uncertainty k = 0.368626
        28         5         6        30     9        0.000000        0.156579         3    ;  uncertainty k = 0.091251
        28         5         6        30     9      180.000000       -0.126978         4    ;  uncertainty k = 0.142373
        28         5         6        31     9        0.000000        0.137550         1    ;  uncertainty k = 0.221542
        28         5         6        31     9      180.000000        0.343769         2    ;  uncertainty k = 0.368626
        28         5         6        31     9        0.000000        0.156579         3    ;  uncertainty k = 0.091251
        28         5         6        31     9      180.000000       -0.126978         4    ;  uncertainty k = 0.142373
        29         5         6        30     9        0.000000        0.137550         1    ;  uncertainty k = 0.221542
        29         5         6        30     9      180.000000        0.343769         2    ;  uncertainty k = 0.368626
        29         5         6        30     9        0.000000        0.156579         3    ;  uncertainty k = 0.091251
        29         5         6        30     9      180.000000       -0.126978         4    ;  uncertainty k = 0.142373
        29         5         6        31     9        0.000000        0.137550         1    ;  uncertainty k = 0.221542
        29         5         6        31     9      180.000000        0.343769         2    ;  uncertainty k = 0.368626
        29         5         6        31     9        0.000000        0.156579         3    ;  uncertainty k = 0.091251
        29         5         6        31     9      180.000000       -0.126978         4    ;  uncertainty k = 0.142373
        32        10        11        33     9        0.000000       -0.121609         1    ;  uncertainty k = 0.188226
        32        10        11        33     9      180.000000        8.179696         2    ;  uncertainty k = 0.349119
        32        10        11        33     9        0.000000        0.638810         3    ;  uncertainty k = 0.189454
        32        10        11        33     9      180.000000        1.002950         4    ;  uncertainty k = 0.237474
        33        11        12        34     9        0.000000       -0.151198         1    ;  uncertainty k = 0.260844
        33        11        12        34     9      180.000000        8.383005         2    ;  uncertainty k = 0.256120
        33        11        12        34     9        0.000000        0.654192         3    ;  uncertainty k = 0.209662
        33        11        12        34     9      180.000000        1.070103         4    ;  uncertainty k = 0.209378

[ dihedrals ] ; impropers
;       ai        aj        ak        al funct           phase               k        pn
         1         2         6        16     4      180.000000        0.461073         2    ;  uncertainty k = 1.030990
         1         6        16         2     4      180.000000        0.461073         2    ;  uncertainty k = 1.030990
         1        16         2         6     4      180.000000        0.461073         2    ;  uncertainty k = 1.030990
         7         8        12        13     4      180.000000       17.481031         2    ;  uncertainty k = 0.073522
         7        12        13         8     4      180.000000       17.481031         2    ;  uncertainty k = 0.073522
         7        13         8        12     4      180.000000       17.481031         2    ;  uncertainty k = 0.073522
         8         7         9        20     4      180.000000       12.104225         2    ;  uncertainty k = 0.079891
         8         9        20         7     4      180.000000       12.104225         2    ;  uncertainty k = 0.079891
         8        20         7         9     4      180.000000       12.104225         2    ;  uncertainty k = 0.079891
         9         8        10        19     4      180.000000       13.645398         2    ;  uncertainty k = 0.140125
         9        10        19         8     4      180.000000       13.645398         2    ;  uncertainty k = 0.140125
         9        19         8        10     4      180.000000       13.645398         2    ;  uncertainty k = 0.140125
        10         9        11        32     4      180.000000        1.896777         2    ;  uncertainty k = 0.338596
        10        11        32         9     4      180.000000        1.896777         2    ;  uncertainty k = 0.338596
        10        32         9        11     4      180.000000        1.896777         2    ;  uncertainty k = 0.338596
        11        10        12        33     4      180.000000       20.242051         2    ;  uncertainty k = 0.073197
        11        12        33        10     4      180.000000       20.242051         2    ;  uncertainty k = 0.073197
        11        33        10        12     4      180.000000       20.242051         2    ;  uncertainty k = 0.073197
        12         7        11        34     4      180.000000        1.866796         2    ;  uncertainty k = 0.240975
        12        11        34         7     4      180.000000        1.866796         2    ;  uncertainty k = 0.240975
        12        34         7        11     4      180.000000        1.866796         2    ;  uncertainty k = 0.240975
        13         7        14        18     4      180.000000        4.395924         2    ;  uncertainty k = 0.456915
        13        14        18         7     4      180.000000        4.395924         2    ;  uncertainty k = 0.456915
        13        18         7        14     4      180.000000        4.395924         2    ;  uncertainty k = 0.456915
        14        13        15        47     4      180.000000       15.806435         2    ;  uncertainty k = 0.083572
        14        15        47        13     4      180.000000       15.806435         2    ;  uncertainty k = 0.083572
        14        47        13        15     4      180.000000       15.806435         2    ;  uncertainty k = 0.083572
        16         1        15        17     4      180.000000       42.357185         2    ;  uncertainty k = 0.082748
        16        15        17         1     4      180.000000       42.357185         2    ;  uncertainty k = 0.082748
        16        17         1        15     4      180.000000       42.357185         2    ;  uncertainty k = 0.082748
        18        13        17        21     4      180.000000       35.358456         2    ;  uncertainty k = 0.065307
        18        17        21        13     4      180.000000       35.358456         2    ;  uncertainty k = 0.065307
        18        21        13        17     4      180.000000       35.358456         2    ;  uncertainty k = 0.065307
        21        18        35        36     4      180.000000        0.730707         2    ;  uncertainty k = 1.124817
        21        35        36        18     4      180.000000        0.730707         2    ;  uncertainty k = 1.124817
        21        36        18        35     4      180.000000        0.730707         2    ;  uncertainty k = 1.124817

[ pairs ]
;       ai        aj funct
         1         4     1
         1        14     1
         1        18     1
         1        26     1
         1        27     1
         1        28     1
         1        29     1
         2         5     1
         2        15     1
         2        17     1
         2        22     1
         2        23     1
         2        30     1
         2        31     1
         3         6     1
         3        16     1
         3        28     1
         3        29     1
         3        41     1
         3        42     1
         3        43     1
         3        44     1
         3        45     1
         3        46     1
         4        24     1
         4        25     1
         4        30     1
         4        31     1
         5        16     1
         5        26     1
         5        27     1
         5        41     1
         5        42     1
         5        43     1
         5        44     1
         5        45     1
         5        46     1
         6        15     1
         6        17     1
         6        22     1
         6        23     1
         6        24     1
         6        25     1
         7        10     1
         7        15     1
         7        17     1
         7        19     1
         7        21     1
         7        33     1
         7        47     1
         8        11     1
         8        14     1
         8        18     1
         8        32     1
         8        34     1
         9        12     1
         9        13     1
         9        33     1
        10        20     1
        10        34     1
        10        37     1
        11        13     1
        11        19     1
        11        38     1
        11        39     1
        11        40     1
        12        14     1
        12        18     1
        12        20     1
        12        32     1
        12        37     1
        13        16     1
        13        20     1
        13        34     1
        13        35     1
        13        36     1
        14        17     1
        14        21     1
        15        18     1
        16        21     1
        16        24     1
        16        25     1
        16        30     1
        16        31     1
        16        47     1
        17        35     1
        17        36     1
        18        47     1
        19        20     1
        19        32     1
        22        26     1
        22        27     1
        22        28     1
        22        29     1
        22        44     1
        22        45     1
        22        46     1
        23        26     1
        23        27     1
        23        28     1
        23        29     1
        23        41     1
        23        42     1
        23        43     1
        24        26     1
        24        27     1
        25        26     1
        25        27     1
        28        30     1
        28        31     1
        29        30     1
        29        31     1
        32        33     1
        33        34     1
