; ITP file created by ByteFF-joint-25, 2026-02-17 09:34:08.256400

[ atomtypes ]
;name           bonded.type        at.num        mass        charge   ptype           sigma         epsilon
 n0bf                                   7      0.0000       0.00000       A     3.18998e-01     8.99142e-01    ;  uncertainty sigma = 0.000029, epsilon = 0.002716
 c1bf                                   6      0.0000       0.00000       A     3.39780e-01     4.50260e-01    ;  uncertainty sigma = 0.000020, epsilon = 0.001089
 c2bf                                   6      0.0000       0.00000       A     3.39771e-01     4.51072e-01    ;  uncertainty sigma = 0.000022, epsilon = 0.000654
 c3bf                                   6      0.0000       0.00000       A     3.39788e-01     4.49780e-01    ;  uncertainty sigma = 0.000038, epsilon = 0.001520
 c4bf                                   6      0.0000       0.00000       A     3.39771e-01     4.51072e-01    ;  uncertainty sigma = 0.000022, epsilon = 0.000654
 c5bf                                   6      0.0000       0.00000       A     3.39780e-01     4.50260e-01    ;  uncertainty sigma = 0.000020, epsilon = 0.001089
 c6bf                                   6      0.0000       0.00000       A     3.31543e-01     4.12556e-01    ;  uncertainty sigma = 0.000004, epsilon = 0.000938
 c7bf                                   6      0.0000       0.00000       A     3.31522e-01     4.13408e-01    ;  uncertainty sigma = 0.000008, epsilon = 0.000601
 c8bf                                   6      0.0000       0.00000       A     3.31507e-01     4.13199e-01    ;  uncertainty sigma = 0.000004, epsilon = 0.000723
 c9bf                                   6      0.0000       0.00000       A     3.31532e-01     4.13409e-01    ;  uncertainty sigma = 0.000008, epsilon = 0.000628
 c10bf                                  6      0.0000       0.00000       A     3.31524e-01     4.12914e-01    ;  uncertainty sigma = 0.000009, epsilon = 0.000668
 c11bf                                  6      0.0000       0.00000       A     3.31525e-01     4.13288e-01    ;  uncertainty sigma = 0.000003, epsilon = 0.000617
 c12bf                                  6      0.0000       0.00000       A     3.31555e-01     4.12760e-01    ;  uncertainty sigma = 0.000016, epsilon = 0.001861
 c13bf                                  6      0.0000       0.00000       A     3.31510e-01     4.13299e-01    ;  uncertainty sigma = 0.000009, epsilon = 0.000627
 n14bf                                  7      0.0000       0.00000       A     3.38405e-01     3.93997e-01    ;  uncertainty sigma = 0.000020, epsilon = 0.001343
 c15bf                                  6      0.0000       0.00000       A     3.31540e-01     4.14244e-01    ;  uncertainty sigma = 0.000012, epsilon = 0.001149
 n16bf                                  7      0.0000       0.00000       A     3.38461e-01     3.93887e-01    ;  uncertainty sigma = 0.000038, epsilon = 0.001240
 c17bf                                  6      0.0000       0.00000       A     3.31536e-01     4.12147e-01    ;  uncertainty sigma = 0.000013, epsilon = 0.001746
 cl18bf                                17      0.0000       0.00000       A     3.46607e-01     1.10413e+00    ;  uncertainty sigma = 0.000023, epsilon = 0.001362
 cl19bf                                17      0.0000       0.00000       A     3.46608e-01     1.10488e+00    ;  uncertainty sigma = 0.000013, epsilon = 0.002160
 n20bf                                  7      0.0000       0.00000       A     3.36871e-01     4.68770e-01    ;  uncertainty sigma = 0.000036, epsilon = 0.004307
 n21bf                                  7      0.0000       0.00000       A     2.77101e-01     4.77733e+00    ;  uncertainty sigma = 0.000102, epsilon = 0.025603
 c22bf                                  6      0.0000       0.00000       A     3.39744e-01     4.51058e-01    ;  uncertainty sigma = 0.000018, epsilon = 0.000674
 h23bf                                  1      0.0000       0.00000       A     2.42224e-01     8.69291e-02    ;  uncertainty sigma = 0.000024, epsilon = 0.000777
 h24bf                                  1      0.0000       0.00000       A     2.42224e-01     8.69291e-02    ;  uncertainty sigma = 0.000024, epsilon = 0.000777
 h25bf                                  1      0.0000       0.00000       A     2.60047e-01     8.66235e-02    ;  uncertainty sigma = 0.000026, epsilon = 0.001019
 h26bf                                  1      0.0000       0.00000       A     2.60047e-01     8.66235e-02    ;  uncertainty sigma = 0.000026, epsilon = 0.001019
 h27bf                                  1      0.0000       0.00000       A     2.60047e-01     8.66235e-02    ;  uncertainty sigma = 0.000026, epsilon = 0.001019
 h28bf                                  1      0.0000       0.00000       A     2.60047e-01     8.66235e-02    ;  uncertainty sigma = 0.000026, epsilon = 0.001019
 h29bf                                  1      0.0000       0.00000       A     2.42224e-01     8.69291e-02    ;  uncertainty sigma = 0.000024, epsilon = 0.000777
 h30bf                                  1      0.0000       0.00000       A     2.42224e-01     8.69291e-02    ;  uncertainty sigma = 0.000024, epsilon = 0.000777
 h31bf                                  1      0.0000       0.00000       A     2.62574e-01     6.70602e-02    ;  uncertainty sigma = 0.000012, epsilon = 0.000165
 o32bf                                  8      0.0000       0.00000       A     3.24330e-01     3.89069e-01    ;  uncertainty sigma = 0.000027, epsilon = 0.000497
 h33bf                                  1      0.0000       0.00000       A     2.62573e-01     6.70688e-02    ;  uncertainty sigma = 0.000019, epsilon = 0.000473
 h34bf                                  1      0.0000       0.00000       A     1.10718e-01     4.12967e-02    ;  uncertainty sigma = 0.000085, epsilon = 0.000435
 h35bf                                  1      0.0000       0.00000       A     1.10718e-01     4.12967e-02    ;  uncertainty sigma = 0.000085, epsilon = 0.000435
 h36bf                                  1      0.0000       0.00000       A     1.10744e-01     4.05584e-02    ;  uncertainty sigma = 0.000197, epsilon = 0.001139
 h37bf                                  1      0.0000       0.00000       A     2.60029e-01     8.68919e-02    ;  uncertainty sigma = 0.000018, epsilon = 0.000792
 h38bf                                  1      0.0000       0.00000       A     2.60029e-01     8.68919e-02    ;  uncertainty sigma = 0.000018, epsilon = 0.000792
 h39bf                                  1      0.0000       0.00000       A     2.60029e-01     8.68919e-02    ;  uncertainty sigma = 0.000018, epsilon = 0.000792
 h40bf                                  1      0.0000       0.00000       A     1.10744e-01     4.05584e-02    ;  uncertainty sigma = 0.000197, epsilon = 0.001139
 h41bf                                  1      0.0000       0.00000       A     5.38147e-02     1.95309e-02    ;  uncertainty sigma = 0.000093, epsilon = 0.001119
 h42bf                                  1      0.0000       0.00000       A     1.10744e-01     4.05584e-02    ;  uncertainty sigma = 0.000197, epsilon = 0.001139
 h43bf                                  1      0.0000       0.00000       A     2.53681e-01     6.68791e-02    ;  uncertainty sigma = 0.000034, epsilon = 0.000846

[ moleculetype ]
;name             nrexcl
 MOL                   3

[ atoms ]
;       nr            type      resi   res      atom      cgnr      charge          mass ; qtot
         1            n0bf         1   UNL        n0         1    -0.78098       14.0070 ; qtot   -0.781
         2            c1bf         1   UNL        c1         2     0.23266       12.0110 ; qtot   -0.548
         3            c2bf         1   UNL        c2         3    -0.11952       12.0110 ; qtot   -0.668
         4            c3bf         1   UNL        c3         4     0.18766       12.0110 ; qtot   -0.480
         5            c4bf         1   UNL        c4         5    -0.11952       12.0110 ; qtot   -0.600
         6            c5bf         1   UNL        c5         6     0.23266       12.0110 ; qtot   -0.367
         7            c6bf         1   UNL        c6         7     0.04056       12.0110 ; qtot   -0.326
         8            c7bf         1   UNL        c7         8     0.00778       12.0110 ; qtot   -0.319
         9            c8bf         1   UNL        c8         9     0.06832       12.0110 ; qtot   -0.250
        10            c9bf         1   UNL        c9        10    -0.16910       12.0110 ; qtot   -0.419
        11           c10bf         1   UNL       c10        11     0.14276       12.0110 ; qtot   -0.277
        12           c11bf         1   UNL       c11        12    -0.17403       12.0110 ; qtot   -0.451
        13           c12bf         1   UNL       c12        13    -0.38223       12.0110 ; qtot   -0.833
        14           c13bf         1   UNL       c13        14     0.51033       12.0110 ; qtot   -0.323
        15           n14bf         1   UNL       n14        15    -0.79558       14.0070 ; qtot   -1.118
        16           c15bf         1   UNL       c15        16     0.93520       12.0110 ; qtot   -0.183
        17           n16bf         1   UNL       n16        17    -0.85387       14.0070 ; qtot   -1.037
        18           c17bf         1   UNL       c17        18     0.72640       12.0110 ; qtot   -0.311
        19          cl18bf         1   UNL      cl18        19    -0.07871       35.4530 ; qtot   -0.389
        20          cl19bf         1   UNL      cl19        20    -0.08290       35.4530 ; qtot   -0.472
        21           n20bf         1   UNL       n20        21    -0.92216       14.0070 ; qtot   -1.394
        22           n21bf         1   UNL       n21        22    -0.86673       14.0070 ; qtot   -2.261
        23           c22bf         1   UNL       c22        23    -0.13034       12.0110 ; qtot   -2.391
        24           h23bf         1   UNL       h23        24     0.07772        1.0080 ; qtot   -2.314
        25           h24bf         1   UNL       h24        25     0.07772        1.0080 ; qtot   -2.236
        26           h25bf         1   UNL       h25        26     0.08339        1.0080 ; qtot   -2.153
        27           h26bf         1   UNL       h26        27     0.08339        1.0080 ; qtot   -2.069
        28           h27bf         1   UNL       h27        28     0.08339        1.0080 ; qtot   -1.986
        29           h28bf         1   UNL       h28        29     0.08339        1.0080 ; qtot   -1.902
        30           h29bf         1   UNL       h29        30     0.07772        1.0080 ; qtot   -1.825
        31           h30bf         1   UNL       h30        31     0.07772        1.0080 ; qtot   -1.747
        32           h31bf         1   UNL       h31        32     0.16235        1.0080 ; qtot   -1.585
        33           o32bf         1   UNL       o32        33    -0.49257       15.9990 ; qtot   -2.077
        34           h33bf         1   UNL       h33        34     0.15305        1.0080 ; qtot   -1.924
        35           h34bf         1   UNL       h34        35     0.42318        1.0080 ; qtot   -1.501
        36           h35bf         1   UNL       h35        36     0.42318        1.0080 ; qtot   -1.078
        37           h36bf         1   UNL       h36        37     0.46464        1.0080 ; qtot   -0.613
        38           h37bf         1   UNL       h37        38     0.07734        1.0080 ; qtot   -0.536
        39           h38bf         1   UNL       h38        39     0.07734        1.0080 ; qtot   -0.458
        40           h39bf         1   UNL       h39        40     0.07734        1.0080 ; qtot   -0.381
        41           h40bf         1   UNL       h40        41     0.46464        1.0080 ; qtot    0.084
        42           h41bf         1   UNL       h41        42     0.42733        1.0080 ; qtot    0.511
        43           h42bf         1   UNL       h42        43     0.46464        1.0080 ; qtot    0.976
        44           h43bf         1   UNL       h43        44     0.02444        1.0080 ; qtot    1.000

[ bonds ]
;       ai        aj funct               r               k
         1         2     1        0.144968   251114.134229    ;  uncertainty r = 0.000170, k = 12.476836
         1         6     1        0.144968   251114.134229    ;  uncertainty r = 0.000170, k = 12.476836
         1        16     1        0.138274   305702.974268    ;  uncertainty r = 0.000340, k = 19.136977
         2         3     1        0.154006   208103.206689    ;  uncertainty r = 0.000229, k = 14.884648
         2        24     1        0.109449   306948.623389    ;  uncertainty r = 0.000047, k = 1.171879
         2        25     1        0.109449   306948.623389    ;  uncertainty r = 0.000047, k = 1.171879
         3         4     1        0.153723   202820.651318    ;  uncertainty r = 0.000184, k = 7.066036
         3        26     1        0.109581   310499.532910    ;  uncertainty r = 0.000037, k = 1.905368
         3        27     1        0.109581   310499.532910    ;  uncertainty r = 0.000037, k = 1.905368
         4         5     1        0.153723   202820.651318    ;  uncertainty r = 0.000184, k = 7.066036
         4        22     1        0.155122   197292.186353    ;  uncertainty r = 0.000211, k = 49.108522
         4        23     1        0.152893   210290.460107    ;  uncertainty r = 0.000125, k = 13.841219
         5         6     1        0.154006   208103.206689    ;  uncertainty r = 0.000229, k = 14.884648
         5        28     1        0.109581   310499.532910    ;  uncertainty r = 0.000037, k = 1.905368
         5        29     1        0.109581   310499.532910    ;  uncertainty r = 0.000037, k = 1.905368
         6        30     1        0.109449   306948.623389    ;  uncertainty r = 0.000047, k = 1.171879
         6        31     1        0.109449   306948.623389    ;  uncertainty r = 0.000047, k = 1.171879
         7         8     1        0.140414   333659.775830    ;  uncertainty r = 0.000097, k = 6.054625
         7        12     1        0.139889   346196.989844    ;  uncertainty r = 0.000093, k = 3.907743
         7        13     1        0.148064   291127.388184    ;  uncertainty r = 0.000167, k = 5.486858
         8         9     1        0.140112   337616.878613    ;  uncertainty r = 0.000059, k = 2.514371
         8        20     1        0.174423   187962.037451    ;  uncertainty r = 0.000078, k = 3.710936
         9        10     1        0.139180   364393.303906    ;  uncertainty r = 0.000055, k = 3.232168
         9        19     1        0.174456   191898.033813    ;  uncertainty r = 0.000088, k = 3.768598
        10        11     1        0.139514   373169.437988    ;  uncertainty r = 0.000067, k = 7.376136
        10        32     1        0.108771   339787.277539    ;  uncertainty r = 0.000024, k = 1.319254
        11        12     1        0.139584   369902.092529    ;  uncertainty r = 0.000094, k = 5.162235
        11        33     1        0.137752   350333.184375    ;  uncertainty r = 0.000090, k = 4.724718
        12        34     1        0.108865   338194.962158    ;  uncertainty r = 0.000028, k = 1.084512
        13        14     1        0.140170   415947.160645    ;  uncertainty r = 0.000053, k = 20.628230
        13        18     1        0.142492   436859.857031    ;  uncertainty r = 0.000147, k = 25.782754
        14        15     1        0.134349   424378.135156    ;  uncertainty r = 0.000314, k = 14.939532
        14        44     1        0.108839   326187.643164    ;  uncertainty r = 0.000016, k = 4.409353
        15        16     1        0.136231   473058.811719    ;  uncertainty r = 0.000131, k = 8.961163
        16        17     1        0.137045   459532.111328    ;  uncertainty r = 0.000097, k = 20.238173
        17        18     1        0.137136   553885.550488    ;  uncertainty r = 0.000345, k = 18.138846
        18        21     1        0.141147   543861.928613    ;  uncertainty r = 0.000306, k = 32.823397
        21        35     1        0.101885   428718.371191    ;  uncertainty r = 0.000039, k = 2.239531
        21        36     1        0.101885   428718.371191    ;  uncertainty r = 0.000039, k = 2.239531
        22        37     1        0.102893   408930.686621    ;  uncertainty r = 0.000060, k = 6.495046
        22        41     1        0.102893   408930.686621    ;  uncertainty r = 0.000060, k = 6.495046
        22        43     1        0.102893   408930.686621    ;  uncertainty r = 0.000060, k = 6.495046
        23        38     1        0.109485   313302.332813    ;  uncertainty r = 0.000023, k = 3.037366
        23        39     1        0.109485   313302.332813    ;  uncertainty r = 0.000023, k = 3.037366
        23        40     1        0.109485   313302.383887    ;  uncertainty r = 0.000023, k = 3.037347
        33        42     1        0.097387   485132.603809    ;  uncertainty r = 0.000027, k = 3.413201

[ angles ]
;       ai        aj        ak funct           theta             cth
         1         2         3     1      109.321327      693.713214    ;  uncertainty theta = 0.000907, k = 0.187356
         1         2        24     1      106.440819      457.938851    ;  uncertainty theta = 0.002047, k = 0.076265
         1         2        25     1      106.440819      457.938851    ;  uncertainty theta = 0.002047, k = 0.076265
         1         6         5     1      109.321327      693.713214    ;  uncertainty theta = 0.000907, k = 0.187356
         1         6        30     1      106.440819      457.938851    ;  uncertainty theta = 0.002047, k = 0.076265
         1         6        31     1      106.440819      457.938851    ;  uncertainty theta = 0.002047, k = 0.076265
         1        16        15     1      119.855728      554.739499    ;  uncertainty theta = 0.007013, k = 0.163857
         1        16        17     1      120.020409      594.592328    ;  uncertainty theta = 0.005578, k = 0.163936
         2         1         6     1      107.733925      419.581315    ;  uncertainty theta = 0.015928, k = 0.113518
         2         1        16     1      110.313477      436.064849    ;  uncertainty theta = 0.005991, k = 0.091291
         2         3         4     1      110.246338      546.471476    ;  uncertainty theta = 0.002854, k = 0.106854
         2         3        26     1      108.185547      399.606060    ;  uncertainty theta = 0.001628, k = 0.129027
         2         3        27     1      108.185547      399.606060    ;  uncertainty theta = 0.001628, k = 0.129027
         3         2        24     1      108.883324      414.526276    ;  uncertainty theta = 0.003534, k = 0.109424
         3         2        25     1      108.883324      414.526276    ;  uncertainty theta = 0.003534, k = 0.109424
         3         4         5     1      110.758156      579.433309    ;  uncertainty theta = 0.006554, k = 0.204301
         3         4        22     1      107.278976      685.372092    ;  uncertainty theta = 0.005309, k = 0.324780
         3         4        23     1      111.951096      573.556198    ;  uncertainty theta = 0.003615, k = 0.042900
         4         3        26     1      107.188622      391.727607    ;  uncertainty theta = 0.002259, k = 0.172799
         4         3        27     1      107.188622      391.727607    ;  uncertainty theta = 0.002259, k = 0.172799
         4         5         6     1      110.246338      546.471476    ;  uncertainty theta = 0.002854, k = 0.106854
         4         5        28     1      107.188622      391.727607    ;  uncertainty theta = 0.002259, k = 0.172799
         4         5        29     1      107.188622      391.727607    ;  uncertainty theta = 0.002259, k = 0.172799
         4        22        37     1      110.464333      409.034616    ;  uncertainty theta = 0.003988, k = 0.162351
         4        22        41     1      110.464333      409.034616    ;  uncertainty theta = 0.003988, k = 0.162351
         4        22        43     1      110.464333      409.034616    ;  uncertainty theta = 0.003988, k = 0.162351
         4        23        38     1      107.456223      389.152764    ;  uncertainty theta = 0.000505, k = 0.034812
         4        23        39     1      107.456223      389.152764    ;  uncertainty theta = 0.000505, k = 0.034812
         4        23        40     1      107.456223      389.152796    ;  uncertainty theta = 0.000505, k = 0.034812
         5         4        22     1      107.278976      685.372092    ;  uncertainty theta = 0.005309, k = 0.324780
         5         4        23     1      111.951096      573.556198    ;  uncertainty theta = 0.003615, k = 0.042900
         5         6        30     1      108.883324      414.526276    ;  uncertainty theta = 0.003534, k = 0.109424
         5         6        31     1      108.883324      414.526276    ;  uncertainty theta = 0.003534, k = 0.109424
         6         1        16     1      110.313477      436.064849    ;  uncertainty theta = 0.005991, k = 0.091291
         6         5        28     1      108.185547      399.606060    ;  uncertainty theta = 0.001628, k = 0.129027
         6         5        29     1      108.185547      399.606060    ;  uncertainty theta = 0.001628, k = 0.129027
         7         8         9     1      123.157570      371.639829    ;  uncertainty theta = 0.004876, k = 0.209761
         7         8        20     1      118.011452      413.923472    ;  uncertainty theta = 0.003694, k = 0.092060
         7        12        11     1      119.268311      514.795118    ;  uncertainty theta = 0.002163, k = 0.173919
         7        12        34     1      119.716690      271.157528    ;  uncertainty theta = 0.003525, k = 0.047021
         7        13        14     1      123.409058      401.637537    ;  uncertainty theta = 0.005018, k = 0.242271
         7        13        18     1      121.357994      353.018775    ;  uncertainty theta = 0.003125, k = 0.360812
         8         7        12     1      121.879662      394.894240    ;  uncertainty theta = 0.002795, k = 0.349014
         8         7        13     1      120.751320      388.098081    ;  uncertainty theta = 0.007785, k = 0.141468
         8         9        10     1      122.297523      347.373031    ;  uncertainty theta = 0.004812, k = 0.265918
         8         9        19     1      120.642258      456.243442    ;  uncertainty theta = 0.001192, k = 0.094247
         9         8        20     1      120.251083      455.299495    ;  uncertainty theta = 0.002549, k = 0.086966
         9        10        11     1      116.963120      494.326104    ;  uncertainty theta = 0.004026, k = 0.118387
         9        10        32     1      121.179245      280.317434    ;  uncertainty theta = 0.001861, k = 0.111281
        10         9        19     1      119.840805      450.217770    ;  uncertainty theta = 0.002434, k = 0.083845
        10        11        12     1      118.863976      371.222297    ;  uncertainty theta = 0.004803, k = 0.136389
        10        11        33     1      123.059708      481.460125    ;  uncertainty theta = 0.004426, k = 0.176280
        11        10        32     1      120.899155      295.414909    ;  uncertainty theta = 0.003505, k = 0.020723
        11        12        34     1      120.403358      302.827694    ;  uncertainty theta = 0.002044, k = 0.016718
        11        33        42     1      107.767067      446.760843    ;  uncertainty theta = 0.002019, k = 0.150057
        12         7        13     1      121.864853      418.401947    ;  uncertainty theta = 0.007410, k = 0.102238
        12        11        33     1      122.905197      474.585375    ;  uncertainty theta = 0.005721, k = 0.118537
        13        14        15     1      124.068039      717.755317    ;  uncertainty theta = 0.002863, k = 0.165320
        13        14        44     1      119.502975      262.714848    ;  uncertainty theta = 0.003684, k = 0.130508
        13        18        17     1      122.306068      541.081614    ;  uncertainty theta = 0.008127, k = 0.154817
        13        18        21     1      125.346458      513.680583    ;  uncertainty theta = 0.003404, k = 0.206353
        14        13        18     1      117.121864      438.500259    ;  uncertainty theta = 0.015046, k = 0.903998
        14        15        16     1      115.553734      414.220246    ;  uncertainty theta = 0.006755, k = 0.240495
        15        14        44     1      116.537865      323.396782    ;  uncertainty theta = 0.004078, k = 0.146978
        15        16        17     1      128.528290      730.251199    ;  uncertainty theta = 0.003716, k = 0.077391
        16        17        18     1      122.433716      478.394938    ;  uncertainty theta = 0.005735, k = 0.203370
        17        18        21     1      125.528793      903.169543    ;  uncertainty theta = 0.004935, k = 0.070068
        18        21        35     1      118.192444      415.370341    ;  uncertainty theta = 0.001830, k = 0.144658
        18        21        36     1      118.192444      415.370341    ;  uncertainty theta = 0.001830, k = 0.144658
        22         4        23     1      107.732376      711.715791    ;  uncertainty theta = 0.003143, k = 0.202828
        24         2        25     1      105.643227      323.899224    ;  uncertainty theta = 0.003009, k = 0.029639
        26         3        27     1      106.079811      314.629541    ;  uncertainty theta = 0.002798, k = 0.097750
        28         5        29     1      106.079811      314.629541    ;  uncertainty theta = 0.002798, k = 0.097750
        30         6        31     1      105.643227      323.899224    ;  uncertainty theta = 0.003009, k = 0.029639
        35        21        36     1      107.953087      275.511637    ;  uncertainty theta = 0.001193, k = 0.067996
        37        22        41     1      108.017105      374.242252    ;  uncertainty theta = 0.003302, k = 0.129446
        37        22        43     1      108.017105      374.242252    ;  uncertainty theta = 0.003302, k = 0.129446
        38        23        39     1      105.936523      319.817118    ;  uncertainty theta = 0.000605, k = 0.051303
        38        23        40     1      105.936523      319.817118    ;  uncertainty theta = 0.000605, k = 0.051303
        39        23        40     1      105.936523      319.817118    ;  uncertainty theta = 0.000605, k = 0.051303
        41        22        43     1      108.017105      374.242252    ;  uncertainty theta = 0.003302, k = 0.129446

[ dihedrals ] ; propers for gromacs 4.5 or higher, use funct 9
;       ai        aj        ak        al funct           phase               k        pn
         1         2         3         4     9        0.000000        3.479794         1    ;  uncertainty k = 2.631245
         1         2         3         4     9      180.000000       -4.414620         2    ;  uncertainty k = 0.895315
         1         2         3         4     9        0.000000        1.951912         3    ;  uncertainty k = 0.250640
         1         2         3         4     9      180.000000       -0.432234         4    ;  uncertainty k = 0.279775
         1         2         3        26     9        0.000000       -1.904475         1    ;  uncertainty k = 1.110761
         1         2         3        26     9      180.000000        0.320118         2    ;  uncertainty k = 0.432128
         1         2         3        26     9        0.000000        1.283059         3    ;  uncertainty k = 0.346519
         1         2         3        26     9      180.000000       -0.248889         4    ;  uncertainty k = 0.091362
         1         2         3        27     9        0.000000       -1.904475         1    ;  uncertainty k = 1.110761
         1         2         3        27     9      180.000000        0.320118         2    ;  uncertainty k = 0.432128
         1         2         3        27     9        0.000000        1.283059         3    ;  uncertainty k = 0.346519
         1         2         3        27     9      180.000000       -0.248889         4    ;  uncertainty k = 0.091362
         1         6         5         4     9        0.000000        3.479794         1    ;  uncertainty k = 2.631245
         1         6         5         4     9      180.000000       -4.414620         2    ;  uncertainty k = 0.895315
         1         6         5         4     9        0.000000        1.951912         3    ;  uncertainty k = 0.250640
         1         6         5         4     9      180.000000       -0.432234         4    ;  uncertainty k = 0.279775
         1         6         5        28     9        0.000000       -1.904475         1    ;  uncertainty k = 1.110761
         1         6         5        28     9      180.000000        0.320118         2    ;  uncertainty k = 0.432128
         1         6         5        28     9        0.000000        1.283059         3    ;  uncertainty k = 0.346519
         1         6         5        28     9      180.000000       -0.248889         4    ;  uncertainty k = 0.091362
         1         6         5        29     9        0.000000       -1.904475         1    ;  uncertainty k = 1.110761
         1         6         5        29     9      180.000000        0.320118         2    ;  uncertainty k = 0.432128
         1         6         5        29     9        0.000000        1.283059         3    ;  uncertainty k = 0.346519
         1         6         5        29     9      180.000000       -0.248889         4    ;  uncertainty k = 0.091362
         1        16        15        14     9        0.000000        0.817908         1    ;  uncertainty k = 1.768173
         1        16        15        14     9      180.000000        9.917844         2    ;  uncertainty k = 0.165988
         1        16        15        14     9        0.000000        1.510591         3    ;  uncertainty k = 0.582878
         1        16        15        14     9      180.000000        0.782227         4    ;  uncertainty k = 0.175612
         1        16        17        18     9        0.000000        0.748192         1    ;  uncertainty k = 1.163722
         1        16        17        18     9      180.000000        9.986481         2    ;  uncertainty k = 0.538236
         1        16        17        18     9        0.000000        1.552615         3    ;  uncertainty k = 0.309373
         1        16        17        18     9      180.000000        0.788152         4    ;  uncertainty k = 0.256848
         2         1         6         5     9        0.000000       -6.396973         1    ;  uncertainty k = 2.175872
         2         1         6         5     9      180.000000        1.538835         2    ;  uncertainty k = 0.773480
         2         1         6         5     9        0.000000        1.176906         3    ;  uncertainty k = 0.288771
         2         1         6         5     9      180.000000       -0.468910         4    ;  uncertainty k = 0.183517
         2         1         6        30     9        0.000000       -6.047318         1    ;  uncertainty k = 1.982148
         2         1         6        30     9      180.000000        0.993137         2    ;  uncertainty k = 0.489808
         2         1         6        30     9        0.000000        0.822683         3    ;  uncertainty k = 0.044513
         2         1         6        30     9      180.000000       -0.076732         4    ;  uncertainty k = 0.063310
         2         1         6        31     9        0.000000       -6.047318         1    ;  uncertainty k = 1.982148
         2         1         6        31     9      180.000000        0.993137         2    ;  uncertainty k = 0.489808
         2         1         6        31     9        0.000000        0.822683         3    ;  uncertainty k = 0.044513
         2         1         6        31     9      180.000000       -0.076732         4    ;  uncertainty k = 0.063310
         2         1        16        15     9        0.000000        4.882808         1    ;  uncertainty k = 1.131647
         2         1        16        15     9      180.000000       11.319773         2    ;  uncertainty k = 0.167099
         2         1        16        15     9        0.000000        0.481285         3    ;  uncertainty k = 0.234023
         2         1        16        15     9      180.000000       -0.188826         4    ;  uncertainty k = 0.100452
         2         1        16        17     9        0.000000        6.565185         1    ;  uncertainty k = 0.899569
         2         1        16        17     9      180.000000       11.421565         2    ;  uncertainty k = 0.120462
         2         1        16        17     9        0.000000        0.503067         3    ;  uncertainty k = 0.148506
         2         1        16        17     9      180.000000       -0.224790         4    ;  uncertainty k = 0.103442
         2         3         4         5     9        0.000000       -1.995785         1    ;  uncertainty k = 1.854286
         2         3         4         5     9      180.000000        0.461226         2    ;  uncertainty k = 0.623979
         2         3         4         5     9        0.000000        0.633424         3    ;  uncertainty k = 0.430864
         2         3         4         5     9      180.000000       -1.000696         4    ;  uncertainty k = 0.199219
         2         3         4        22     9        0.000000       -4.922189         1    ;  uncertainty k = 1.419897
         2         3         4        22     9      180.000000       -1.288662         2    ;  uncertainty k = 1.614288
         2         3         4        22     9        0.000000        1.032740         3    ;  uncertainty k = 0.323245
         2         3         4        22     9      180.000000        0.204775         4    ;  uncertainty k = 0.137621
         2         3         4        23     9        0.000000       -4.846863         1    ;  uncertainty k = 0.953611
         2         3         4        23     9      180.000000        1.255316         2    ;  uncertainty k = 0.483533
         2         3         4        23     9        0.000000        0.497225         3    ;  uncertainty k = 0.328814
         2         3         4        23     9      180.000000       -0.186222         4    ;  uncertainty k = 0.107604
         3         2         1         6     9        0.000000       -6.396973         1    ;  uncertainty k = 2.175872
         3         2         1         6     9      180.000000        1.538835         2    ;  uncertainty k = 0.773480
         3         2         1         6     9        0.000000        1.176906         3    ;  uncertainty k = 0.288771
         3         2         1         6     9      180.000000       -0.468910         4    ;  uncertainty k = 0.183517
         3         2         1        16     9        0.000000       -3.658726         1    ;  uncertainty k = 0.848563
         3         2         1        16     9      180.000000        0.873176         2    ;  uncertainty k = 0.535365
         3         2         1        16     9        0.000000        0.040815         3    ;  uncertainty k = 0.264460
         3         2         1        16     9      180.000000        0.238036         4    ;  uncertainty k = 0.151405
         3         4         5         6     9        0.000000       -1.995785         1    ;  uncertainty k = 1.854286
         3         4         5         6     9      180.000000        0.461226         2    ;  uncertainty k = 0.623979
         3         4         5         6     9        0.000000        0.633424         3    ;  uncertainty k = 0.430864
         3         4         5         6     9      180.000000       -1.000696         4    ;  uncertainty k = 0.199219
         3         4         5        28     9        0.000000       -1.041765         1    ;  uncertainty k = 0.265447
         3         4         5        28     9      180.000000       -0.356594         2    ;  uncertainty k = 0.191548
         3         4         5        28     9        0.000000       -0.007680         3    ;  uncertainty k = 0.093809
         3         4         5        28     9      180.000000       -0.100570         4    ;  uncertainty k = 0.058705
         3         4         5        29     9        0.000000       -1.041765         1    ;  uncertainty k = 0.265447
         3         4         5        29     9      180.000000       -0.356594         2    ;  uncertainty k = 0.191548
         3         4         5        29     9        0.000000       -0.007680         3    ;  uncertainty k = 0.093809
         3         4         5        29     9      180.000000       -0.100570         4    ;  uncertainty k = 0.058705
         3         4        22        37     9        0.000000       -0.378618         1    ;  uncertainty k = 1.202868
         3         4        22        37     9      180.000000       -0.218968         2    ;  uncertainty k = 0.263352
         3         4        22        37     9        0.000000        0.752335         3    ;  uncertainty k = 0.133799
         3         4        22        37     9      180.000000       -0.117476         4    ;  uncertainty k = 0.099713
         3         4        22        41     9        0.000000       -0.378618         1    ;  uncertainty k = 1.202868
         3         4        22        41     9      180.000000       -0.218968         2    ;  uncertainty k = 0.263352
         3         4        22        41     9        0.000000        0.752335         3    ;  uncertainty k = 0.133799
         3         4        22        41     9      180.000000       -0.117476         4    ;  uncertainty k = 0.099713
         3         4        22        43     9        0.000000       -0.378618         1    ;  uncertainty k = 1.202868
         3         4        22        43     9      180.000000       -0.218968         2    ;  uncertainty k = 0.263352
         3         4        22        43     9        0.000000        0.752335         3    ;  uncertainty k = 0.133799
         3         4        22        43     9      180.000000       -0.117476         4    ;  uncertainty k = 0.099713
         3         4        23        38     9        0.000000       -0.914078         1    ;  uncertainty k = 0.356128
         3         4        23        38     9      180.000000       -0.481015         2    ;  uncertainty k = 0.207164
         3         4        23        38     9        0.000000        0.542170         3    ;  uncertainty k = 0.077000
         3         4        23        38     9      180.000000       -0.146042         4    ;  uncertainty k = 0.059767
         3         4        23        39     9        0.000000       -0.914078         1    ;  uncertainty k = 0.356128
         3         4        23        39     9      180.000000       -0.481015         2    ;  uncertainty k = 0.207164
         3         4        23        39     9        0.000000        0.542170         3    ;  uncertainty k = 0.077000
         3         4        23        39     9      180.000000       -0.146042         4    ;  uncertainty k = 0.059767
         3         4        23        40     9        0.000000       -0.914078         1    ;  uncertainty k = 0.356128
         3         4        23        40     9      180.000000       -0.481015         2    ;  uncertainty k = 0.207164
         3         4        23        40     9        0.000000        0.542170         3    ;  uncertainty k = 0.077000
         3         4        23        40     9      180.000000       -0.146042         4    ;  uncertainty k = 0.059767
         4         3         2        24     9        0.000000        2.805144         1    ;  uncertainty k = 1.342924
         4         3         2        24     9      180.000000       -2.640033         2    ;  uncertainty k = 0.200971
         4         3         2        24     9        0.000000        0.068377         3    ;  uncertainty k = 0.137352
         4         3         2        24     9      180.000000        0.232543         4    ;  uncertainty k = 0.063819
         4         3         2        25     9        0.000000        2.805144         1    ;  uncertainty k = 1.342924
         4         3         2        25     9      180.000000       -2.640033         2    ;  uncertainty k = 0.200971
         4         3         2        25     9        0.000000        0.068377         3    ;  uncertainty k = 0.137352
         4         3         2        25     9      180.000000        0.232543         4    ;  uncertainty k = 0.063819
         4         5         6        30     9        0.000000        2.805144         1    ;  uncertainty k = 1.342924
         4         5         6        30     9      180.000000       -2.640033         2    ;  uncertainty k = 0.200971
         4         5         6        30     9        0.000000        0.068377         3    ;  uncertainty k = 0.137352
         4         5         6        30     9      180.000000        0.232543         4    ;  uncertainty k = 0.063819
         4         5         6        31     9        0.000000        2.805144         1    ;  uncertainty k = 1.342924
         4         5         6        31     9      180.000000       -2.640033         2    ;  uncertainty k = 0.200971
         4         5         6        31     9        0.000000        0.068377         3    ;  uncertainty k = 0.137352
         4         5         6        31     9      180.000000        0.232543         4    ;  uncertainty k = 0.063819
         5         4         3        26     9        0.000000       -1.041765         1    ;  uncertainty k = 0.265447
         5         4         3        26     9      180.000000       -0.356594         2    ;  uncertainty k = 0.191548
         5         4         3        26     9        0.000000       -0.007680         3    ;  uncertainty k = 0.093809
         5         4         3        26     9      180.000000       -0.100570         4    ;  uncertainty k = 0.058705
         5         4         3        27     9        0.000000       -1.041765         1    ;  uncertainty k = 0.265447
         5         4         3        27     9      180.000000       -0.356594         2    ;  uncertainty k = 0.191548
         5         4         3        27     9        0.000000       -0.007680         3    ;  uncertainty k = 0.093809
         5         4         3        27     9      180.000000       -0.100570         4    ;  uncertainty k = 0.058705
         5         4        22        37     9        0.000000       -0.378618         1    ;  uncertainty k = 1.202868
         5         4        22        37     9      180.000000       -0.218968         2    ;  uncertainty k = 0.263352
         5         4        22        37     9        0.000000        0.752335         3    ;  uncertainty k = 0.133799
         5         4        22        37     9      180.000000       -0.117476         4    ;  uncertainty k = 0.099713
         5         4        22        41     9        0.000000       -0.378618         1    ;  uncertainty k = 1.202868
         5         4        22        41     9      180.000000       -0.218968         2    ;  uncertainty k = 0.263352
         5         4        22        41     9        0.000000        0.752335         3    ;  uncertainty k = 0.133799
         5         4        22        41     9      180.000000       -0.117476         4    ;  uncertainty k = 0.099713
         5         4        22        43     9        0.000000       -0.378618         1    ;  uncertainty k = 1.202868
         5         4        22        43     9      180.000000       -0.218968         2    ;  uncertainty k = 0.263352
         5         4        22        43     9        0.000000        0.752335         3    ;  uncertainty k = 0.133799
         5         4        22        43     9      180.000000       -0.117476         4    ;  uncertainty k = 0.099713
         5         4        23        38     9        0.000000       -0.914078         1    ;  uncertainty k = 0.356128
         5         4        23        38     9      180.000000       -0.481015         2    ;  uncertainty k = 0.207164
         5         4        23        38     9        0.000000        0.542170         3    ;  uncertainty k = 0.077000
         5         4        23        38     9      180.000000       -0.146042         4    ;  uncertainty k = 0.059767
         5         4        23        39     9        0.000000       -0.914078         1    ;  uncertainty k = 0.356128
         5         4        23        39     9      180.000000       -0.481015         2    ;  uncertainty k = 0.207164
         5         4        23        39     9        0.000000        0.542170         3    ;  uncertainty k = 0.077000
         5         4        23        39     9      180.000000       -0.146042         4    ;  uncertainty k = 0.059767
         5         4        23        40     9        0.000000       -0.914078         1    ;  uncertainty k = 0.356128
         5         4        23        40     9      180.000000       -0.481015         2    ;  uncertainty k = 0.207164
         5         4        23        40     9        0.000000        0.542170         3    ;  uncertainty k = 0.077000
         5         4        23        40     9      180.000000       -0.146042         4    ;  uncertainty k = 0.059767
         5         6         1        16     9        0.000000       -3.658726         1    ;  uncertainty k = 0.848563
         5         6         1        16     9      180.000000        0.873176         2    ;  uncertainty k = 0.535365
         5         6         1        16     9        0.000000        0.040815         3    ;  uncertainty k = 0.264460
         5         6         1        16     9      180.000000        0.238036         4    ;  uncertainty k = 0.151405
         6         1         2        24     9        0.000000       -6.047318         1    ;  uncertainty k = 1.982148
         6         1         2        24     9      180.000000        0.993137         2    ;  uncertainty k = 0.489808
         6         1         2        24     9        0.000000        0.822683         3    ;  uncertainty k = 0.044513
         6         1         2        24     9      180.000000       -0.076732         4    ;  uncertainty k = 0.063310
         6         1         2        25     9        0.000000       -6.047318         1    ;  uncertainty k = 1.982148
         6         1         2        25     9      180.000000        0.993137         2    ;  uncertainty k = 0.489808
         6         1         2        25     9        0.000000        0.822683         3    ;  uncertainty k = 0.044513
         6         1         2        25     9      180.000000       -0.076732         4    ;  uncertainty k = 0.063310
         6         1        16        15     9        0.000000        4.882808         1    ;  uncertainty k = 1.131647
         6         1        16        15     9      180.000000       11.319773         2    ;  uncertainty k = 0.167099
         6         1        16        15     9        0.000000        0.481285         3    ;  uncertainty k = 0.234023
         6         1        16        15     9      180.000000       -0.188826         4    ;  uncertainty k = 0.100452
         6         1        16        17     9        0.000000        6.565185         1    ;  uncertainty k = 0.899569
         6         1        16        17     9      180.000000       11.421565         2    ;  uncertainty k = 0.120462
         6         1        16        17     9        0.000000        0.503067         3    ;  uncertainty k = 0.148506
         6         1        16        17     9      180.000000       -0.224790         4    ;  uncertainty k = 0.103442
         6         5         4        22     9        0.000000       -4.922189         1    ;  uncertainty k = 1.419897
         6         5         4        22     9      180.000000       -1.288662         2    ;  uncertainty k = 1.614288
         6         5         4        22     9        0.000000        1.032740         3    ;  uncertainty k = 0.323245
         6         5         4        22     9      180.000000        0.204775         4    ;  uncertainty k = 0.137621
         6         5         4        23     9        0.000000       -4.846863         1    ;  uncertainty k = 0.953611
         6         5         4        23     9      180.000000        1.255316         2    ;  uncertainty k = 0.483533
         6         5         4        23     9        0.000000        0.497225         3    ;  uncertainty k = 0.328814
         6         5         4        23     9      180.000000       -0.186222         4    ;  uncertainty k = 0.107604
         7         8         9        10     9        0.000000       -0.408851         1    ;  uncertainty k = 0.423593
         7         8         9        10     9      180.000000        5.925690         2    ;  uncertainty k = 1.057585
         7         8         9        10     9        0.000000        0.486314         3    ;  uncertainty k = 0.174805
         7         8         9        10     9      180.000000        1.328131         4    ;  uncertainty k = 0.416567
         7         8         9        19     9        0.000000        0.056965         1    ;  uncertainty k = 0.296570
         7         8         9        19     9      180.000000        6.688493         2    ;  uncertainty k = 0.579642
         7         8         9        19     9        0.000000        1.395059         3    ;  uncertainty k = 0.252454
         7         8         9        19     9      180.000000        1.748120         4    ;  uncertainty k = 0.124045
         7        12        11        10     9        0.000000       -0.153290         1    ;  uncertainty k = 0.348196
         7        12        11        10     9      180.000000        7.712058         2    ;  uncertainty k = 0.592748
         7        12        11        10     9        0.000000        0.151911         3    ;  uncertainty k = 0.329657
         7        12        11        10     9      180.000000        1.360849         4    ;  uncertainty k = 0.294591
         7        12        11        33     9        0.000000       -0.053584         1    ;  uncertainty k = 0.187619
         7        12        11        33     9      180.000000       10.260498         2    ;  uncertainty k = 0.321591
         7        12        11        33     9        0.000000        0.995888         3    ;  uncertainty k = 0.246542
         7        12        11        33     9      180.000000        1.577113         4    ;  uncertainty k = 0.102203
         7        13        14        15     9        0.000000        0.346657         1    ;  uncertainty k = 0.455447
         7        13        14        15     9      180.000000       12.692507         2    ;  uncertainty k = 0.452203
         7        13        14        15     9        0.000000        0.975630         3    ;  uncertainty k = 0.327273
         7        13        14        15     9      180.000000        1.420204         4    ;  uncertainty k = 0.256541
         7        13        14        44     9        0.000000       -0.556342         1    ;  uncertainty k = 0.698508
         7        13        14        44     9      180.000000        6.718413         2    ;  uncertainty k = 0.497097
         7        13        14        44     9        0.000000        0.961211         3    ;  uncertainty k = 0.156911
         7        13        14        44     9      180.000000        1.182371         4    ;  uncertainty k = 0.121549
         7        13        18        17     9        0.000000        0.678869         1    ;  uncertainty k = 0.568949
         7        13        18        17     9      180.000000        6.666141         2    ;  uncertainty k = 1.089813
         7        13        18        17     9        0.000000        0.677464         3    ;  uncertainty k = 0.156534
         7        13        18        17     9      180.000000        1.340168         4    ;  uncertainty k = 0.387566
         7        13        18        21     9        0.000000        0.218194         1    ;  uncertainty k = 1.301037
         7        13        18        21     9      180.000000        7.159094         2    ;  uncertainty k = 0.853768
         7        13        18        21     9        0.000000        0.596231         3    ;  uncertainty k = 0.364711
         7        13        18        21     9      180.000000        0.880977         4    ;  uncertainty k = 0.239833
         8         7        12        11     9        0.000000       -0.211021         1    ;  uncertainty k = 0.313864
         8         7        12        11     9      180.000000       10.876740         2    ;  uncertainty k = 0.534483
         8         7        12        11     9        0.000000       -0.010795         3    ;  uncertainty k = 0.422096
         8         7        12        11     9      180.000000        1.253503         4    ;  uncertainty k = 0.441053
         8         7        12        34     9        0.000000        0.211438         1    ;  uncertainty k = 0.425769
         8         7        12        34     9      180.000000        7.223741         2    ;  uncertainty k = 0.491051
         8         7        12        34     9        0.000000        1.522193         3    ;  uncertainty k = 0.268842
         8         7        12        34     9      180.000000        1.707705         4    ;  uncertainty k = 0.131103
         8         7        13        14     9        0.000000        1.250555         1    ;  uncertainty k = 1.239203
         8         7        13        14     9      180.000000        3.626128         2    ;  uncertainty k = 0.453717
         8         7        13        14     9        0.000000        0.448993         3    ;  uncertainty k = 0.139535
         8         7        13        14     9      180.000000        0.301585         4    ;  uncertainty k = 0.083189
         8         7        13        18     9        0.000000        3.576950         1    ;  uncertainty k = 1.312881
         8         7        13        18     9      180.000000        3.283163         2    ;  uncertainty k = 0.520598
         8         7        13        18     9        0.000000        1.276526         3    ;  uncertainty k = 0.535908
         8         7        13        18     9      180.000000        0.411494         4    ;  uncertainty k = 0.092609
         8         9        10        11     9        0.000000        0.024610         1    ;  uncertainty k = 0.233234
         8         9        10        11     9      180.000000       10.015336         2    ;  uncertainty k = 0.579287
         8         9        10        11     9        0.000000        0.074737         3    ;  uncertainty k = 0.544663
         8         9        10        11     9      180.000000        1.304572         4    ;  uncertainty k = 0.433706
         8         9        10        32     9        0.000000        0.264642         1    ;  uncertainty k = 0.238677
         8         9        10        32     9      180.000000        6.418001         2    ;  uncertainty k = 0.627094
         8         9        10        32     9        0.000000        1.533237         3    ;  uncertainty k = 0.434425
         8         9        10        32     9      180.000000        1.633173         4    ;  uncertainty k = 0.148687
         9         8         7        12     9        0.000000       -0.240336         1    ;  uncertainty k = 0.665075
         9         8         7        12     9      180.000000        6.939006         2    ;  uncertainty k = 1.010935
         9         8         7        12     9        0.000000        0.441813         3    ;  uncertainty k = 0.395465
         9         8         7        12     9      180.000000        1.240586         4    ;  uncertainty k = 0.339694
         9         8         7        13     9        0.000000       -0.052424         1    ;  uncertainty k = 0.571214
         9         8         7        13     9      180.000000        6.501488         2    ;  uncertainty k = 0.451997
         9         8         7        13     9        0.000000        1.347504         3    ;  uncertainty k = 0.293456
         9         8         7        13     9      180.000000        1.582130         4    ;  uncertainty k = 0.208901
         9        10        11        12     9        0.000000       -0.168159         1    ;  uncertainty k = 0.286889
         9        10        11        12     9      180.000000        8.164907         2    ;  uncertainty k = 0.601255
         9        10        11        12     9        0.000000        0.069665         3    ;  uncertainty k = 0.423815
         9        10        11        12     9      180.000000        1.307552         4    ;  uncertainty k = 0.266061
         9        10        11        33     9        0.000000        0.002377         1    ;  uncertainty k = 0.322025
         9        10        11        33     9      180.000000       11.240977         2    ;  uncertainty k = 0.454192
         9        10        11        33     9        0.000000        1.013568         3    ;  uncertainty k = 0.179076
         9        10        11        33     9      180.000000        1.454165         4    ;  uncertainty k = 0.151788
        10         9         8        20     9        0.000000        0.110534         1    ;  uncertainty k = 0.231405
        10         9         8        20     9      180.000000        7.059986         2    ;  uncertainty k = 0.321058
        10         9         8        20     9        0.000000        1.436104         3    ;  uncertainty k = 0.219665
        10         9         8        20     9      180.000000        1.658656         4    ;  uncertainty k = 0.141437
        10        11        12        34     9        0.000000       -0.172329         1    ;  uncertainty k = 0.390242
        10        11        12        34     9      180.000000        5.732328         2    ;  uncertainty k = 0.488101
        10        11        12        34     9        0.000000        1.273558         3    ;  uncertainty k = 0.232018
        10        11        12        34     9      180.000000        1.445050         4    ;  uncertainty k = 0.154186
        10        11        33        42     9        0.000000        7.297358         1    ;  uncertainty k = 0.245441
        10        11        33        42     9      180.000000        5.421300         2    ;  uncertainty k = 0.234655
        10        11        33        42     9        0.000000        0.670294         3    ;  uncertainty k = 0.084047
        10        11        33        42     9      180.000000        0.223494         4    ;  uncertainty k = 0.058877
        11        10         9        19     9        0.000000        0.049264         1    ;  uncertainty k = 0.230467
        11        10         9        19     9      180.000000        9.824966         2    ;  uncertainty k = 0.525458
        11        10         9        19     9        0.000000        1.444691         3    ;  uncertainty k = 0.276256
        11        10         9        19     9      180.000000        1.705184         4    ;  uncertainty k = 0.269927
        11        12         7        13     9        0.000000        0.090551         1    ;  uncertainty k = 0.437288
        11        12         7        13     9      180.000000        9.566830         2    ;  uncertainty k = 0.719705
        11        12         7        13     9        0.000000        1.139900         3    ;  uncertainty k = 0.263016
        11        12         7        13     9      180.000000        1.747005         4    ;  uncertainty k = 0.226170
        12         7         8        20     9        0.000000       -0.067422         1    ;  uncertainty k = 0.441832
        12         7         8        20     9      180.000000        7.886104         2    ;  uncertainty k = 0.601366
        12         7         8        20     9        0.000000        1.360699         3    ;  uncertainty k = 0.470683
        12         7         8        20     9      180.000000        1.559331         4    ;  uncertainty k = 0.197871
        12         7        13        14     9        0.000000       -1.178133         1    ;  uncertainty k = 0.534302
        12         7        13        14     9      180.000000        4.620251         2    ;  uncertainty k = 0.270802
        12         7        13        14     9        0.000000        0.639024         3    ;  uncertainty k = 0.303558
        12         7        13        14     9      180.000000        0.308757         4    ;  uncertainty k = 0.105885
        12         7        13        18     9        0.000000        0.627248         1    ;  uncertainty k = 1.246388
        12         7        13        18     9      180.000000        4.571187         2    ;  uncertainty k = 0.857842
        12         7        13        18     9        0.000000        0.545590         3    ;  uncertainty k = 0.431980
        12         7        13        18     9      180.000000        0.589044         4    ;  uncertainty k = 0.109412
        12        11        10        32     9        0.000000       -0.117150         1    ;  uncertainty k = 0.414746
        12        11        10        32     9      180.000000        5.609429         2    ;  uncertainty k = 0.579177
        12        11        10        32     9        0.000000        1.245733         3    ;  uncertainty k = 0.168434
        12        11        10        32     9      180.000000        1.376383         4    ;  uncertainty k = 0.162738
        12        11        33        42     9        0.000000        6.972382         1    ;  uncertainty k = 0.377999
        12        11        33        42     9      180.000000        5.809346         2    ;  uncertainty k = 0.262412
        12        11        33        42     9        0.000000        0.729317         3    ;  uncertainty k = 0.133573
        12        11        33        42     9      180.000000        0.219223         4    ;  uncertainty k = 0.077927
        13         7         8        20     9        0.000000       -0.268654         1    ;  uncertainty k = 0.806280
        13         7         8        20     9      180.000000        7.838162         2    ;  uncertainty k = 0.340834
        13         7         8        20     9        0.000000        1.158310         3    ;  uncertainty k = 0.306025
        13         7         8        20     9      180.000000        1.417677         4    ;  uncertainty k = 0.245745
        13         7        12        34     9        0.000000       -0.100879         1    ;  uncertainty k = 0.198553
        13         7        12        34     9      180.000000        7.385749         2    ;  uncertainty k = 0.465248
        13         7        12        34     9        0.000000        0.933691         3    ;  uncertainty k = 0.311570
        13         7        12        34     9      180.000000        1.276449         4    ;  uncertainty k = 0.204573
        13        14        15        16     9        0.000000       -0.718744         1    ;  uncertainty k = 0.569615
        13        14        15        16     9      180.000000       16.399686         2    ;  uncertainty k = 0.669709
        13        14        15        16     9        0.000000       -0.396901         3    ;  uncertainty k = 0.714448
        13        14        15        16     9      180.000000        1.433863         4    ;  uncertainty k = 0.585802
        13        18        17        16     9        0.000000        0.632325         1    ;  uncertainty k = 1.534388
        13        18        17        16     9      180.000000       11.211023         2    ;  uncertainty k = 0.687421
        13        18        17        16     9        0.000000        0.580843         3    ;  uncertainty k = 0.789195
        13        18        17        16     9      180.000000        1.122944         4    ;  uncertainty k = 0.444205
        13        18        21        35     9        0.000000       14.384722         1    ;  uncertainty k = 0.313195
        13        18        21        35     9      180.000000        7.565414         2    ;  uncertainty k = 0.441757
        13        18        21        35     9        0.000000        0.809704         3    ;  uncertainty k = 0.182326
        13        18        21        35     9      180.000000       -0.141262         4    ;  uncertainty k = 0.070045
        13        18        21        36     9        0.000000       14.384722         1    ;  uncertainty k = 0.313195
        13        18        21        36     9      180.000000        7.565414         2    ;  uncertainty k = 0.441757
        13        18        21        36     9        0.000000        0.809704         3    ;  uncertainty k = 0.182326
        13        18        21        36     9      180.000000       -0.141262         4    ;  uncertainty k = 0.070045
        14        13        18        17     9        0.000000       -0.219882         1    ;  uncertainty k = 0.765879
        14        13        18        17     9      180.000000        6.408644         2    ;  uncertainty k = 1.046619
        14        13        18        17     9        0.000000       -0.754810         3    ;  uncertainty k = 0.351825
        14        13        18        17     9      180.000000        0.901552         4    ;  uncertainty k = 0.407892
        14        13        18        21     9        0.000000       -0.899931         1    ;  uncertainty k = 0.781872
        14        13        18        21     9      180.000000        5.657957         2    ;  uncertainty k = 0.441560
        14        13        18        21     9        0.000000        0.495523         3    ;  uncertainty k = 0.384574
        14        13        18        21     9      180.000000        0.765188         4    ;  uncertainty k = 0.210297
        14        15        16        17     9        0.000000        0.001312         1    ;  uncertainty k = 1.334869
        14        15        16        17     9      180.000000        8.804750         2    ;  uncertainty k = 0.576227
        14        15        16        17     9        0.000000        0.726444         3    ;  uncertainty k = 0.520700
        14        15        16        17     9      180.000000        0.693231         4    ;  uncertainty k = 0.161402
        15        14        13        18     9        0.000000        0.173871         1    ;  uncertainty k = 0.670082
        15        14        13        18     9      180.000000       15.587788         2    ;  uncertainty k = 0.558179
        15        14        13        18     9        0.000000       -0.888854         3    ;  uncertainty k = 0.562817
        15        14        13        18     9      180.000000        0.856158         4    ;  uncertainty k = 0.193575
        15        16        17        18     9        0.000000       -0.443868         1    ;  uncertainty k = 0.933777
        15        16        17        18     9      180.000000        8.439826         2    ;  uncertainty k = 0.475905
        15        16        17        18     9        0.000000        1.077033         3    ;  uncertainty k = 0.357989
        15        16        17        18     9      180.000000        0.617525         4    ;  uncertainty k = 0.233967
        16         1         2        24     9        0.000000       -0.423284         1    ;  uncertainty k = 0.572899
        16         1         2        24     9      180.000000        0.236076         2    ;  uncertainty k = 0.260960
        16         1         2        24     9        0.000000       -0.029170         3    ;  uncertainty k = 0.096187
        16         1         2        24     9      180.000000        0.276275         4    ;  uncertainty k = 0.037777
        16         1         2        25     9        0.000000       -0.423284         1    ;  uncertainty k = 0.572899
        16         1         2        25     9      180.000000        0.236076         2    ;  uncertainty k = 0.260960
        16         1         2        25     9        0.000000       -0.029170         3    ;  uncertainty k = 0.096187
        16         1         2        25     9      180.000000        0.276275         4    ;  uncertainty k = 0.037777
        16         1         6        30     9        0.000000       -0.423284         1    ;  uncertainty k = 0.572899
        16         1         6        30     9      180.000000        0.236076         2    ;  uncertainty k = 0.260960
        16         1         6        30     9        0.000000       -0.029170         3    ;  uncertainty k = 0.096187
        16         1         6        30     9      180.000000        0.276275         4    ;  uncertainty k = 0.037777
        16         1         6        31     9        0.000000       -0.423284         1    ;  uncertainty k = 0.572899
        16         1         6        31     9      180.000000        0.236076         2    ;  uncertainty k = 0.260960
        16         1         6        31     9        0.000000       -0.029170         3    ;  uncertainty k = 0.096187
        16         1         6        31     9      180.000000        0.276275         4    ;  uncertainty k = 0.037777
        16        15        14        44     9        0.000000       -0.595825         1    ;  uncertainty k = 0.846289
        16        15        14        44     9      180.000000       15.847665         2    ;  uncertainty k = 0.601484
        16        15        14        44     9        0.000000        1.531909         3    ;  uncertainty k = 0.703194
        16        15        14        44     9      180.000000        1.181239         4    ;  uncertainty k = 0.617173
        16        17        18        21     9        0.000000        0.394473         1    ;  uncertainty k = 1.266258
        16        17        18        21     9      180.000000       15.313969         2    ;  uncertainty k = 0.318246
        16        17        18        21     9        0.000000        2.561161         3    ;  uncertainty k = 0.516633
        16        17        18        21     9      180.000000        1.861309         4    ;  uncertainty k = 0.375488
        17        18        21        35     9        0.000000       20.733106         1    ;  uncertainty k = 0.257632
        17        18        21        35     9      180.000000       12.720319         2    ;  uncertainty k = 0.157223
        17        18        21        35     9        0.000000        0.630492         3    ;  uncertainty k = 0.132648
        17        18        21        35     9      180.000000       -0.490804         4    ;  uncertainty k = 0.222648
        17        18        21        36     9        0.000000       20.733106         1    ;  uncertainty k = 0.257632
        17        18        21        36     9      180.000000       12.720319         2    ;  uncertainty k = 0.157223
        17        18        21        36     9        0.000000        0.630492         3    ;  uncertainty k = 0.132648
        17        18        21        36     9      180.000000       -0.490804         4    ;  uncertainty k = 0.222648
        18        13        14        44     9        0.000000       -0.521991         1    ;  uncertainty k = 0.525994
        18        13        14        44     9      180.000000        6.718420         2    ;  uncertainty k = 0.708550
        18        13        14        44     9        0.000000        0.791682         3    ;  uncertainty k = 0.338646
        18        13        14        44     9      180.000000        1.211104         4    ;  uncertainty k = 0.171498
        19         9         8        20     9        0.000000        0.094783         1    ;  uncertainty k = 0.530609
        19         9         8        20     9      180.000000        7.324995         2    ;  uncertainty k = 0.297620
        19         9         8        20     9        0.000000        1.204912         3    ;  uncertainty k = 0.254928
        19         9         8        20     9      180.000000        1.389124         4    ;  uncertainty k = 0.251003
        19         9        10        32     9        0.000000       -0.166605         1    ;  uncertainty k = 0.262177
        19         9        10        32     9      180.000000        7.519652         2    ;  uncertainty k = 0.507489
        19         9        10        32     9        0.000000        0.573399         3    ;  uncertainty k = 0.322383
        19         9        10        32     9      180.000000        1.050665         4    ;  uncertainty k = 0.188692
        22         4         3        26     9        0.000000       -0.957015         1    ;  uncertainty k = 0.777479
        22         4         3        26     9      180.000000       -1.810504         2    ;  uncertainty k = 0.431986
        22         4         3        26     9        0.000000        0.536111         3    ;  uncertainty k = 0.153239
        22         4         3        26     9      180.000000       -0.242448         4    ;  uncertainty k = 0.143920
        22         4         3        27     9        0.000000       -0.957015         1    ;  uncertainty k = 0.777479
        22         4         3        27     9      180.000000       -1.810504         2    ;  uncertainty k = 0.431986
        22         4         3        27     9        0.000000        0.536111         3    ;  uncertainty k = 0.153239
        22         4         3        27     9      180.000000       -0.242448         4    ;  uncertainty k = 0.143920
        22         4         5        28     9        0.000000       -0.957015         1    ;  uncertainty k = 0.777479
        22         4         5        28     9      180.000000       -1.810504         2    ;  uncertainty k = 0.431986
        22         4         5        28     9        0.000000        0.536111         3    ;  uncertainty k = 0.153239
        22         4         5        28     9      180.000000       -0.242448         4    ;  uncertainty k = 0.143920
        22         4         5        29     9        0.000000       -0.957015         1    ;  uncertainty k = 0.777479
        22         4         5        29     9      180.000000       -1.810504         2    ;  uncertainty k = 0.431986
        22         4         5        29     9        0.000000        0.536111         3    ;  uncertainty k = 0.153239
        22         4         5        29     9      180.000000       -0.242448         4    ;  uncertainty k = 0.143920
        22         4        23        38     9        0.000000       -1.658331         1    ;  uncertainty k = 1.431247
        22         4        23        38     9      180.000000       -2.618283         2    ;  uncertainty k = 0.451254
        22         4        23        38     9        0.000000        0.778238         3    ;  uncertainty k = 0.254191
        22         4        23        38     9      180.000000       -0.194334         4    ;  uncertainty k = 0.172568
        22         4        23        39     9        0.000000       -1.658331         1    ;  uncertainty k = 1.431247
        22         4        23        39     9      180.000000       -2.618283         2    ;  uncertainty k = 0.451254
        22         4        23        39     9        0.000000        0.778238         3    ;  uncertainty k = 0.254191
        22         4        23        39     9      180.000000       -0.194334         4    ;  uncertainty k = 0.172568
        22         4        23        40     9        0.000000       -1.658331         1    ;  uncertainty k = 1.431247
        22         4        23        40     9      180.000000       -2.618283         2    ;  uncertainty k = 0.451254
        22         4        23        40     9        0.000000        0.778238         3    ;  uncertainty k = 0.254191
        22         4        23        40     9      180.000000       -0.194334         4    ;  uncertainty k = 0.172568
        23         4         3        26     9        0.000000       -0.345184         1    ;  uncertainty k = 0.389032
        23         4         3        26     9      180.000000       -0.057709         2    ;  uncertainty k = 0.382826
        23         4         3        26     9        0.000000        0.281401         3    ;  uncertainty k = 0.220111
        23         4         3        26     9      180.000000       -0.051810         4    ;  uncertainty k = 0.076920
        23         4         3        27     9        0.000000       -0.345184         1    ;  uncertainty k = 0.389032
        23         4         3        27     9      180.000000       -0.057709         2    ;  uncertainty k = 0.382826
        23         4         3        27     9        0.000000        0.281401         3    ;  uncertainty k = 0.220111
        23         4         3        27     9      180.000000       -0.051810         4    ;  uncertainty k = 0.076920
        23         4         5        28     9        0.000000       -0.345184         1    ;  uncertainty k = 0.389032
        23         4         5        28     9      180.000000       -0.057709         2    ;  uncertainty k = 0.382826
        23         4         5        28     9        0.000000        0.281401         3    ;  uncertainty k = 0.220111
        23         4         5        28     9      180.000000       -0.051810         4    ;  uncertainty k = 0.076920
        23         4         5        29     9        0.000000       -0.345184         1    ;  uncertainty k = 0.389032
        23         4         5        29     9      180.000000       -0.057709         2    ;  uncertainty k = 0.382826
        23         4         5        29     9        0.000000        0.281401         3    ;  uncertainty k = 0.220111
        23         4         5        29     9      180.000000       -0.051810         4    ;  uncertainty k = 0.076920
        23         4        22        37     9        0.000000        0.214189         1    ;  uncertainty k = 1.165375
        23         4        22        37     9      180.000000       -0.101715         2    ;  uncertainty k = 0.387077
        23         4        22        37     9        0.000000        0.750310         3    ;  uncertainty k = 0.221539
        23         4        22        37     9      180.000000       -0.027140         4    ;  uncertainty k = 0.139765
        23         4        22        41     9        0.000000        0.214189         1    ;  uncertainty k = 1.165375
        23         4        22        41     9      180.000000       -0.101715         2    ;  uncertainty k = 0.387077
        23         4        22        41     9        0.000000        0.750310         3    ;  uncertainty k = 0.221539
        23         4        22        41     9      180.000000       -0.027140         4    ;  uncertainty k = 0.139765
        23         4        22        43     9        0.000000        0.214189         1    ;  uncertainty k = 1.165375
        23         4        22        43     9      180.000000       -0.101715         2    ;  uncertainty k = 0.387077
        23         4        22        43     9        0.000000        0.750310         3    ;  uncertainty k = 0.221539
        23         4        22        43     9      180.000000       -0.027140         4    ;  uncertainty k = 0.139765
        24         2         3        26     9        0.000000        0.137549         1    ;  uncertainty k = 0.221543
        24         2         3        26     9      180.000000        0.343768         2    ;  uncertainty k = 0.368628
        24         2         3        26     9        0.000000        0.156579         3    ;  uncertainty k = 0.091251
        24         2         3        26     9      180.000000       -0.126978         4    ;  uncertainty k = 0.142373
        24         2         3        27     9        0.000000        0.137549         1    ;  uncertainty k = 0.221543
        24         2         3        27     9      180.000000        0.343768         2    ;  uncertainty k = 0.368628
        24         2         3        27     9        0.000000        0.156579         3    ;  uncertainty k = 0.091251
        24         2         3        27     9      180.000000       -0.126978         4    ;  uncertainty k = 0.142373
        25         2         3        26     9        0.000000        0.137549         1    ;  uncertainty k = 0.221543
        25         2         3        26     9      180.000000        0.343768         2    ;  uncertainty k = 0.368628
        25         2         3        26     9        0.000000        0.156579         3    ;  uncertainty k = 0.091251
        25         2         3        26     9      180.000000       -0.126978         4    ;  uncertainty k = 0.142373
        25         2         3        27     9        0.000000        0.137549         1    ;  uncertainty k = 0.221543
        25         2         3        27     9      180.000000        0.343768         2    ;  uncertainty k = 0.368628
        25         2         3        27     9        0.000000        0.156579         3    ;  uncertainty k = 0.091251
        25         2         3        27     9      180.000000       -0.126978         4    ;  uncertainty k = 0.142373
        28         5         6        30     9        0.000000        0.137549         1    ;  uncertainty k = 0.221543
        28         5         6        30     9      180.000000        0.343768         2    ;  uncertainty k = 0.368628
        28         5         6        30     9        0.000000        0.156579         3    ;  uncertainty k = 0.091251
        28         5         6        30     9      180.000000       -0.126978         4    ;  uncertainty k = 0.142373
        28         5         6        31     9        0.000000        0.137549         1    ;  uncertainty k = 0.221543
        28         5         6        31     9      180.000000        0.343768         2    ;  uncertainty k = 0.368628
        28         5         6        31     9        0.000000        0.156579         3    ;  uncertainty k = 0.091251
        28         5         6        31     9      180.000000       -0.126978         4    ;  uncertainty k = 0.142373
        29         5         6        30     9        0.000000        0.137549         1    ;  uncertainty k = 0.221543
        29         5         6        30     9      180.000000        0.343768         2    ;  uncertainty k = 0.368628
        29         5         6        30     9        0.000000        0.156579         3    ;  uncertainty k = 0.091251
        29         5         6        30     9      180.000000       -0.126978         4    ;  uncertainty k = 0.142373
        29         5         6        31     9        0.000000        0.137549         1    ;  uncertainty k = 0.221543
        29         5         6        31     9      180.000000        0.343768         2    ;  uncertainty k = 0.368628
        29         5         6        31     9        0.000000        0.156579         3    ;  uncertainty k = 0.091251
        29         5         6        31     9      180.000000       -0.126978         4    ;  uncertainty k = 0.142373
        32        10        11        33     9        0.000000       -0.198374         1    ;  uncertainty k = 0.236646
        32        10        11        33     9      180.000000        7.972538         2    ;  uncertainty k = 0.485146
        32        10        11        33     9        0.000000        0.868908         3    ;  uncertainty k = 0.192699
        32        10        11        33     9      180.000000        1.054512         4    ;  uncertainty k = 0.322044
        33        11        12        34     9        0.000000       -0.261524         1    ;  uncertainty k = 0.315314
        33        11        12        34     9      180.000000        7.852158         2    ;  uncertainty k = 0.506524
        33        11        12        34     9        0.000000        0.819568         3    ;  uncertainty k = 0.153641
        33        11        12        34     9      180.000000        1.116722         4    ;  uncertainty k = 0.312418

[ dihedrals ] ; impropers
;       ai        aj        ak        al funct           phase               k        pn
         1         2         6        16     4      180.000000        0.461073         2    ;  uncertainty k = 1.030990
         1         6        16         2     4      180.000000        0.461073         2    ;  uncertainty k = 1.030990
         1        16         2         6     4      180.000000        0.461073         2    ;  uncertainty k = 1.030990
         7         8        12        13     4      180.000000       17.650710         2    ;  uncertainty k = 0.096952
         7        12        13         8     4      180.000000       17.650710         2    ;  uncertainty k = 0.096952
         7        13         8        12     4      180.000000       17.650710         2    ;  uncertainty k = 0.096952
         8         7         9        20     4      180.000000       11.855543         2    ;  uncertainty k = 0.079591
         8         9        20         7     4      180.000000       11.855543         2    ;  uncertainty k = 0.079591
         8        20         7         9     4      180.000000       11.855543         2    ;  uncertainty k = 0.079591
         9         8        10        19     4      180.000000       13.861695         2    ;  uncertainty k = 0.101644
         9        10        19         8     4      180.000000       13.861695         2    ;  uncertainty k = 0.101644
         9        19         8        10     4      180.000000       13.861695         2    ;  uncertainty k = 0.101644
        10         9        11        32     4      180.000000        1.507680         2    ;  uncertainty k = 0.467423
        10        11        32         9     4      180.000000        1.507680         2    ;  uncertainty k = 0.467423
        10        32         9        11     4      180.000000        1.507680         2    ;  uncertainty k = 0.467423
        11        10        12        33     4      180.000000       19.462721         2    ;  uncertainty k = 0.016189
        11        12        33        10     4      180.000000       19.462721         2    ;  uncertainty k = 0.016189
        11        33        10        12     4      180.000000       19.462721         2    ;  uncertainty k = 0.016189
        12         7        11        34     4      180.000000        1.406727         2    ;  uncertainty k = 0.553812
        12        11        34         7     4      180.000000        1.406727         2    ;  uncertainty k = 0.553812
        12        34         7        11     4      180.000000        1.406727         2    ;  uncertainty k = 0.553812
        13         7        14        18     4      180.000000        4.410994         2    ;  uncertainty k = 0.472597
        13        14        18         7     4      180.000000        4.410994         2    ;  uncertainty k = 0.472597
        13        18         7        14     4      180.000000        4.410994         2    ;  uncertainty k = 0.472597
        14        13        15        44     4      180.000000       15.806435         2    ;  uncertainty k = 0.083572
        14        15        44        13     4      180.000000       15.806435         2    ;  uncertainty k = 0.083572
        14        44        13        15     4      180.000000       15.806435         2    ;  uncertainty k = 0.083572
        16         1        15        17     4      180.000000       42.357185         2    ;  uncertainty k = 0.082748
        16        15        17         1     4      180.000000       42.357185         2    ;  uncertainty k = 0.082748
        16        17         1        15     4      180.000000       42.357185         2    ;  uncertainty k = 0.082748
        18        13        17        21     4      180.000000       35.358456         2    ;  uncertainty k = 0.065307
        18        17        21        13     4      180.000000       35.358456         2    ;  uncertainty k = 0.065307
        18        21        13        17     4      180.000000       35.358456         2    ;  uncertainty k = 0.065307
        21        18        35        36     4      180.000000        0.730707         2    ;  uncertainty k = 1.124817
        21        35        36        18     4      180.000000        0.730707         2    ;  uncertainty k = 1.124817
        21        36        18        35     4      180.000000        0.730707         2    ;  uncertainty k = 1.124817

[ pairs ]
;       ai        aj funct
         1         4     1
         1        14     1
         1        18     1
         1        26     1
         1        27     1
         1        28     1
         1        29     1
         2         5     1
         2        15     1
         2        17     1
         2        22     1
         2        23     1
         2        30     1
         2        31     1
         3         6     1
         3        16     1
         3        28     1
         3        29     1
         3        37     1
         3        38     1
         3        39     1
         3        40     1
         3        41     1
         3        43     1
         4        24     1
         4        25     1
         4        30     1
         4        31     1
         5        16     1
         5        26     1
         5        27     1
         5        37     1
         5        38     1
         5        39     1
         5        40     1
         5        41     1
         5        43     1
         6        15     1
         6        17     1
         6        22     1
         6        23     1
         6        24     1
         6        25     1
         7        10     1
         7        15     1
         7        17     1
         7        19     1
         7        21     1
         7        33     1
         7        44     1
         8        11     1
         8        14     1
         8        18     1
         8        32     1
         8        34     1
         9        12     1
         9        13     1
         9        33     1
        10        20     1
        10        34     1
        10        42     1
        11        13     1
        11        19     1
        12        14     1
        12        18     1
        12        20     1
        12        32     1
        12        42     1
        13        16     1
        13        20     1
        13        34     1
        13        35     1
        13        36     1
        14        17     1
        14        21     1
        15        18     1
        16        21     1
        16        24     1
        16        25     1
        16        30     1
        16        31     1
        16        44     1
        17        35     1
        17        36     1
        18        44     1
        19        20     1
        19        32     1
        22        26     1
        22        27     1
        22        28     1
        22        29     1
        22        38     1
        22        39     1
        22        40     1
        23        26     1
        23        27     1
        23        28     1
        23        29     1
        23        37     1
        23        41     1
        23        43     1
        24        26     1
        24        27     1
        25        26     1
        25        27     1
        28        30     1
        28        31     1
        29        30     1
        29        31     1
        32        33     1
        33        34     1
