; ITP file created by ByteFF-joint-25, 2026-02-17 09:34:16.339743

[ atomtypes ]
;name           bonded.type        at.num        mass        charge   ptype           sigma         epsilon
 n0bf                                   7      0.0000       0.00000       A     3.19042e-01     9.00635e-01    ;  uncertainty sigma = 0.000021, epsilon = 0.003268
 c1bf                                   6      0.0000       0.00000       A     3.39783e-01     4.50677e-01    ;  uncertainty sigma = 0.000020, epsilon = 0.000870
 c2bf                                   6      0.0000       0.00000       A     3.39762e-01     4.50643e-01    ;  uncertainty sigma = 0.000023, epsilon = 0.000885
 c3bf                                   6      0.0000       0.00000       A     3.39626e-01     4.50461e-01    ;  uncertainty sigma = 0.000065, epsilon = 0.002471
 c4bf                                   6      0.0000       0.00000       A     3.39762e-01     4.50643e-01    ;  uncertainty sigma = 0.000023, epsilon = 0.000885
 c5bf                                   6      0.0000       0.00000       A     3.39783e-01     4.50677e-01    ;  uncertainty sigma = 0.000020, epsilon = 0.000870
 c6bf                                   6      0.0000       0.00000       A     3.31536e-01     4.13504e-01    ;  uncertainty sigma = 0.000013, epsilon = 0.001275
 c7bf                                   6      0.0000       0.00000       A     3.31513e-01     4.13559e-01    ;  uncertainty sigma = 0.000010, epsilon = 0.000750
 c8bf                                   6      0.0000       0.00000       A     3.31517e-01     4.13418e-01    ;  uncertainty sigma = 0.000007, epsilon = 0.000490
 c9bf                                   6      0.0000       0.00000       A     3.31517e-01     4.13339e-01    ;  uncertainty sigma = 0.000004, epsilon = 0.000628
 c10bf                                  6      0.0000       0.00000       A     3.31515e-01     4.13294e-01    ;  uncertainty sigma = 0.000004, epsilon = 0.000592
 c11bf                                  6      0.0000       0.00000       A     3.31518e-01     4.13425e-01    ;  uncertainty sigma = 0.000005, epsilon = 0.000679
 c12bf                                  6      0.0000       0.00000       A     3.31505e-01     4.12808e-01    ;  uncertainty sigma = 0.000012, epsilon = 0.001383
 n13bf                                  7      0.0000       0.00000       A     3.38420e-01     3.93674e-01    ;  uncertainty sigma = 0.000026, epsilon = 0.000494
 c14bf                                  6      0.0000       0.00000       A     3.31519e-01     4.13219e-01    ;  uncertainty sigma = 0.000013, epsilon = 0.001540
 c15bf                                  6      0.0000       0.00000       A     3.31484e-01     4.13405e-01    ;  uncertainty sigma = 0.000017, epsilon = 0.000785
 n16bf                                  7      0.0000       0.00000       A     3.38423e-01     3.93513e-01    ;  uncertainty sigma = 0.000038, epsilon = 0.000709
 c17bf                                  6      0.0000       0.00000       A     3.31485e-01     4.12040e-01    ;  uncertainty sigma = 0.000022, epsilon = 0.001412
 cl18bf                                17      0.0000       0.00000       A     3.46639e-01     1.10469e+00    ;  uncertainty sigma = 0.000020, epsilon = 0.001458
 cl19bf                                17      0.0000       0.00000       A     3.46596e-01     1.10464e+00    ;  uncertainty sigma = 0.000016, epsilon = 0.003016
 n20bf                                  7      0.0000       0.00000       A     3.36870e-01     4.67721e-01    ;  uncertainty sigma = 0.000043, epsilon = 0.002784
 c21bf                                  6      0.0000       0.00000       A     3.39725e-01     4.50937e-01    ;  uncertainty sigma = 0.000040, epsilon = 0.001494
 c22bf                                  6      0.0000       0.00000       A     3.39758e-01     4.51388e-01    ;  uncertainty sigma = 0.000017, epsilon = 0.001240
 h23bf                                  1      0.0000       0.00000       A     2.42209e-01     8.66757e-02    ;  uncertainty sigma = 0.000010, epsilon = 0.000729
 h24bf                                  1      0.0000       0.00000       A     2.42209e-01     8.66758e-02    ;  uncertainty sigma = 0.000009, epsilon = 0.000729
 h25bf                                  1      0.0000       0.00000       A     2.60043e-01     8.67505e-02    ;  uncertainty sigma = 0.000022, epsilon = 0.000684
 h26bf                                  1      0.0000       0.00000       A     2.60043e-01     8.67505e-02    ;  uncertainty sigma = 0.000022, epsilon = 0.000684
 h27bf                                  1      0.0000       0.00000       A     2.60043e-01     8.67505e-02    ;  uncertainty sigma = 0.000022, epsilon = 0.000684
 h28bf                                  1      0.0000       0.00000       A     2.60043e-01     8.67505e-02    ;  uncertainty sigma = 0.000022, epsilon = 0.000684
 h29bf                                  1      0.0000       0.00000       A     2.42209e-01     8.66758e-02    ;  uncertainty sigma = 0.000009, epsilon = 0.000729
 h30bf                                  1      0.0000       0.00000       A     2.42209e-01     8.66758e-02    ;  uncertainty sigma = 0.000009, epsilon = 0.000729
 h31bf                                  1      0.0000       0.00000       A     2.62556e-01     6.70339e-02    ;  uncertainty sigma = 0.000007, epsilon = 0.000600
 h32bf                                  1      0.0000       0.00000       A     2.62563e-01     6.70978e-02    ;  uncertainty sigma = 0.000011, epsilon = 0.000541
 h33bf                                  1      0.0000       0.00000       A     2.53617e-01     6.68290e-02    ;  uncertainty sigma = 0.000021, epsilon = 0.000903
 h34bf                                  1      0.0000       0.00000       A     1.10722e-01     4.12462e-02    ;  uncertainty sigma = 0.000082, epsilon = 0.000527
 h35bf                                  1      0.0000       0.00000       A     1.10722e-01     4.12462e-02    ;  uncertainty sigma = 0.000082, epsilon = 0.000527
 h36bf                                  1      0.0000       0.00000       A     2.60011e-01     8.67738e-02    ;  uncertainty sigma = 0.000012, epsilon = 0.000541
 h37bf                                  1      0.0000       0.00000       A     2.60011e-01     8.67738e-02    ;  uncertainty sigma = 0.000012, epsilon = 0.000541
 h38bf                                  1      0.0000       0.00000       A     2.60011e-01     8.67738e-02    ;  uncertainty sigma = 0.000012, epsilon = 0.000541
 h39bf                                  1      0.0000       0.00000       A     2.62568e-01     6.69665e-02    ;  uncertainty sigma = 0.000007, epsilon = 0.000468
 h40bf                                  1      0.0000       0.00000       A     1.88706e-01     8.72307e-02    ;  uncertainty sigma = 0.000142, epsilon = 0.001904
 n41bf                                  7      0.0000       0.00000       A     2.76730e-01     4.78755e+00    ;  uncertainty sigma = 0.000060, epsilon = 0.012650
 h42bf                                  1      0.0000       0.00000       A     1.88706e-01     8.72307e-02    ;  uncertainty sigma = 0.000142, epsilon = 0.001904
 h43bf                                  1      0.0000       0.00000       A     1.10679e-01     4.09535e-02    ;  uncertainty sigma = 0.000117, epsilon = 0.000247
 h44bf                                  1      0.0000       0.00000       A     1.10679e-01     4.09535e-02    ;  uncertainty sigma = 0.000117, epsilon = 0.000247
 h45bf                                  1      0.0000       0.00000       A     1.10679e-01     4.09535e-02    ;  uncertainty sigma = 0.000117, epsilon = 0.000247

[ moleculetype ]
;name             nrexcl
 MOL                   3

[ atoms ]
;       nr            type      resi   res      atom      cgnr      charge          mass ; qtot
         1            n0bf         1   UNL        n0         1    -0.78656       14.0070 ; qtot   -0.787
         2            c1bf         1   UNL        c1         2     0.21902       12.0110 ; qtot   -0.568
         3            c2bf         1   UNL        c2         3    -0.09711       12.0110 ; qtot   -0.665
         4            c3bf         1   UNL        c3         4    -0.07275       12.0110 ; qtot   -0.737
         5            c4bf         1   UNL        c4         5    -0.09711       12.0110 ; qtot   -0.835
         6            c5bf         1   UNL        c5         6     0.21902       12.0110 ; qtot   -0.615
         7            c6bf         1   UNL        c6         7    -0.10693       12.0110 ; qtot   -0.722
         8            c7bf         1   UNL        c7         8     0.05136       12.0110 ; qtot   -0.671
         9            c8bf         1   UNL        c8         9     0.02451       12.0110 ; qtot   -0.647
        10            c9bf         1   UNL        c9        10    -0.10171       12.0110 ; qtot   -0.748
        11           c10bf         1   UNL       c10        11    -0.12241       12.0110 ; qtot   -0.871
        12           c11bf         1   UNL       c11        12    -0.10124       12.0110 ; qtot   -0.972
        13           c12bf         1   UNL       c12        13     0.24281       12.0110 ; qtot   -0.729
        14           n13bf         1   UNL       n13        14    -0.57523       14.0070 ; qtot   -1.304
        15           c14bf         1   UNL       c14        15     0.18680       12.0110 ; qtot   -1.118
        16           c15bf         1   UNL       c15        16     0.61479       12.0110 ; qtot   -0.503
        17           n16bf         1   UNL       n16        17    -0.80600       14.0070 ; qtot   -1.309
        18           c17bf         1   UNL       c17        18     0.59046       12.0110 ; qtot   -0.718
        19          cl18bf         1   UNL      cl18        19    -0.08348       35.4530 ; qtot   -0.802
        20          cl19bf         1   UNL      cl19        20    -0.07905       35.4530 ; qtot   -0.881
        21           n20bf         1   UNL       n20        21    -0.91364       14.0070 ; qtot   -1.794
        22           c21bf         1   UNL       c21        22     0.15242       12.0110 ; qtot   -1.642
        23           c22bf         1   UNL       c22        23    -0.10507       12.0110 ; qtot   -1.747
        24           h23bf         1   UNL       h23        24     0.05872        1.0080 ; qtot   -1.688
        25           h24bf         1   UNL       h24        25     0.05872        1.0080 ; qtot   -1.630
        26           h25bf         1   UNL       h25        26     0.06620        1.0080 ; qtot   -1.563
        27           h26bf         1   UNL       h26        27     0.06620        1.0080 ; qtot   -1.497
        28           h27bf         1   UNL       h27        28     0.06620        1.0080 ; qtot   -1.431
        29           h28bf         1   UNL       h28        29     0.06620        1.0080 ; qtot   -1.365
        30           h29bf         1   UNL       h29        30     0.05872        1.0080 ; qtot   -1.306
        31           h30bf         1   UNL       h30        31     0.05872        1.0080 ; qtot   -1.247
        32           h31bf         1   UNL       h31        32     0.15499        1.0080 ; qtot   -1.092
        33           h32bf         1   UNL       h32        33     0.15054        1.0080 ; qtot   -0.942
        34           h33bf         1   UNL       h33        34     0.03009        1.0080 ; qtot   -0.912
        35           h34bf         1   UNL       h34        35     0.41702        1.0080 ; qtot   -0.495
        36           h35bf         1   UNL       h35        36     0.41702        1.0080 ; qtot   -0.078
        37           h36bf         1   UNL       h36        37     0.05345        1.0080 ; qtot   -0.024
        38           h37bf         1   UNL       h37        38     0.05345        1.0080 ; qtot    0.029
        39           h38bf         1   UNL       h38        39     0.05345        1.0080 ; qtot    0.083
        40           h39bf         1   UNL       h39        40     0.14497        1.0080 ; qtot    0.228
        41           h40bf         1   UNL       h40        41     0.11108        1.0080 ; qtot    0.339
        42           n41bf         1   UNL       n41        42    -0.85184       14.0070 ; qtot   -0.513
        43           h42bf         1   UNL       h42        43     0.11108        1.0080 ; qtot   -0.402
        44           h43bf         1   UNL       h43        44     0.46737        1.0080 ; qtot    0.065
        45           h44bf         1   UNL       h44        45     0.46737        1.0080 ; qtot    0.533
        46           h45bf         1   UNL       h45        46     0.46738        1.0080 ; qtot    1.000

[ bonds ]
;       ai        aj funct               r               k
         1         2     1        0.145098   250180.242139    ;  uncertainty r = 0.000106, k = 4.171281
         1         6     1        0.145098   250180.242139    ;  uncertainty r = 0.000106, k = 4.171281
         1        16     1        0.137835   301012.650000    ;  uncertainty r = 0.000120, k = 15.205961
         2         3     1        0.153459   209133.028931    ;  uncertainty r = 0.000117, k = 5.740454
         2        24     1        0.109626   307193.192285    ;  uncertainty r = 0.000039, k = 1.838546
         2        25     1        0.109626   307193.192285    ;  uncertainty r = 0.000039, k = 1.838566
         3         4     1        0.154334   200126.281982    ;  uncertainty r = 0.000229, k = 6.293827
         3        26     1        0.109665   309097.366846    ;  uncertainty r = 0.000046, k = 2.756416
         3        27     1        0.109665   309097.366846    ;  uncertainty r = 0.000046, k = 2.756416
         4         5     1        0.154334   200126.281982    ;  uncertainty r = 0.000229, k = 6.293827
         4        22     1        0.153788   185271.588062    ;  uncertainty r = 0.000504, k = 12.189295
         4        23     1        0.153538   205720.173022    ;  uncertainty r = 0.000147, k = 8.738695
         5         6     1        0.153459   209133.028931    ;  uncertainty r = 0.000117, k = 5.740454
         5        28     1        0.109665   309097.366846    ;  uncertainty r = 0.000046, k = 2.756416
         5        29     1        0.109665   309097.366846    ;  uncertainty r = 0.000046, k = 2.756416
         6        30     1        0.109626   307193.192285    ;  uncertainty r = 0.000039, k = 1.838566
         6        31     1        0.109626   307193.192285    ;  uncertainty r = 0.000039, k = 1.838566
         7         8     1        0.140177   324779.782324    ;  uncertainty r = 0.000122, k = 6.865597
         7        12     1        0.140005   347541.263281    ;  uncertainty r = 0.000040, k = 3.883215
         7        13     1        0.148660   288818.297217    ;  uncertainty r = 0.000136, k = 10.736914
         8         9     1        0.140081   338158.290869    ;  uncertainty r = 0.000066, k = 1.557491
         8        20     1        0.174228   186667.254932    ;  uncertainty r = 0.000057, k = 4.731528
         9        10     1        0.139432   364703.069043    ;  uncertainty r = 0.000027, k = 3.877522
         9        19     1        0.174626   190975.416357    ;  uncertainty r = 0.000065, k = 1.953790
        10        11     1        0.139275   380193.470996    ;  uncertainty r = 0.000019, k = 0.375568
        10        32     1        0.108658   335617.322949    ;  uncertainty r = 0.000011, k = 0.544911
        11        12     1        0.139222   371106.856738    ;  uncertainty r = 0.000025, k = 1.271468
        11        40     1        0.108744   332681.040576    ;  uncertainty r = 0.000006, k = 1.317305
        12        33     1        0.108655   332465.507373    ;  uncertainty r = 0.000021, k = 1.100526
        13        14     1        0.133280   379205.287012    ;  uncertainty r = 0.000128, k = 16.163312
        13        18     1        0.139641   410097.119629    ;  uncertainty r = 0.000500, k = 21.910522
        14        15     1        0.132161   412924.026562    ;  uncertainty r = 0.000172, k = 12.217142
        15        16     1        0.139948   409481.011328    ;  uncertainty r = 0.000101, k = 17.555676
        15        34     1        0.109053   342858.038330    ;  uncertainty r = 0.000055, k = 1.857082
        16        17     1        0.135000   375593.343799    ;  uncertainty r = 0.000105, k = 21.004436
        17        18     1        0.135845   495535.860352    ;  uncertainty r = 0.000186, k = 17.158511
        18        21     1        0.140747   500285.864844    ;  uncertainty r = 0.000245, k = 33.620714
        21        35     1        0.101788   426937.515332    ;  uncertainty r = 0.000055, k = 2.235133
        21        36     1        0.101788   426937.489795    ;  uncertainty r = 0.000055, k = 2.235148
        22        41     1        0.109035   313833.479150    ;  uncertainty r = 0.000026, k = 5.081474
        22        42     1        0.151664   187697.511304    ;  uncertainty r = 0.000198, k = 26.933280
        22        43     1        0.109035   313833.479150    ;  uncertainty r = 0.000026, k = 5.081474
        23        37     1        0.109571   311102.821582    ;  uncertainty r = 0.000009, k = 1.817383
        23        38     1        0.109571   311102.821582    ;  uncertainty r = 0.000009, k = 1.817383
        23        39     1        0.109571   311102.821582    ;  uncertainty r = 0.000009, k = 1.817383
        42        44     1        0.102922   406029.415625    ;  uncertainty r = 0.000054, k = 4.038241
        42        45     1        0.102922   406029.415625    ;  uncertainty r = 0.000054, k = 4.038241
        42        46     1        0.102922   406029.415625    ;  uncertainty r = 0.000054, k = 4.038241

[ angles ]
;       ai        aj        ak funct           theta             cth
         1         2         3     1      109.454727      694.102208    ;  uncertainty theta = 0.000838, k = 0.056713
         1         2        24     1      106.767136      458.170888    ;  uncertainty theta = 0.002228, k = 0.027133
         1         2        25     1      106.767136      458.170920    ;  uncertainty theta = 0.002228, k = 0.027133
         1         6         5     1      109.454727      694.102208    ;  uncertainty theta = 0.000838, k = 0.056713
         1         6        30     1      106.767136      458.170920    ;  uncertainty theta = 0.002228, k = 0.027133
         1         6        31     1      106.767136      458.170920    ;  uncertainty theta = 0.002228, k = 0.027133
         1        16        15     1      120.560303      382.422554    ;  uncertainty theta = 0.008605, k = 0.249101
         1        16        17     1      121.971115      646.378075    ;  uncertainty theta = 0.004733, k = 0.121009
         2         1         6     1      107.657631      408.310512    ;  uncertainty theta = 0.014789, k = 0.121802
         2         1        16     1      110.920448      413.785061    ;  uncertainty theta = 0.002578, k = 0.129130
         2         3         4     1      110.838196      545.274105    ;  uncertainty theta = 0.002567, k = 0.148408
         2         3        26     1      107.705566      398.101126    ;  uncertainty theta = 0.001315, k = 0.069181
         2         3        27     1      107.705566      398.101126    ;  uncertainty theta = 0.001315, k = 0.069181
         3         2        24     1      108.921066      408.188125    ;  uncertainty theta = 0.002127, k = 0.085087
         3         2        25     1      108.921066      408.188093    ;  uncertainty theta = 0.002127, k = 0.085087
         3         4         5     1      108.915184      571.375968    ;  uncertainty theta = 0.004651, k = 0.133997
         3         4        22     1      106.932457      539.298805    ;  uncertainty theta = 0.003669, k = 0.133108
         3         4        23     1      109.543686      576.725418    ;  uncertainty theta = 0.002001, k = 0.072557
         4         3        26     1      108.054054      379.909830    ;  uncertainty theta = 0.002336, k = 0.109862
         4         3        27     1      108.054054      379.909830    ;  uncertainty theta = 0.002336, k = 0.109862
         4         5         6     1      110.838196      545.274105    ;  uncertainty theta = 0.002567, k = 0.148408
         4         5        28     1      108.054054      379.909830    ;  uncertainty theta = 0.002336, k = 0.109862
         4         5        29     1      108.054054      379.909830    ;  uncertainty theta = 0.002336, k = 0.109862
         4        22        41     1      110.572220      393.163367    ;  uncertainty theta = 0.004690, k = 0.119188
         4        22        42     1      110.969528      706.759293    ;  uncertainty theta = 0.006270, k = 0.229493
         4        22        43     1      110.572220      393.163367    ;  uncertainty theta = 0.004690, k = 0.119188
         4        23        37     1      107.980309      377.611427    ;  uncertainty theta = 0.001298, k = 0.037417
         4        23        38     1      107.980309      377.611427    ;  uncertainty theta = 0.001298, k = 0.037417
         4        23        39     1      107.980309      377.611427    ;  uncertainty theta = 0.001298, k = 0.037417
         5         4        22     1      106.932457      539.298805    ;  uncertainty theta = 0.003669, k = 0.133108
         5         4        23     1      109.543686      576.725418    ;  uncertainty theta = 0.002001, k = 0.072557
         5         6        30     1      108.921066      408.188093    ;  uncertainty theta = 0.002127, k = 0.085087
         5         6        31     1      108.921066      408.188093    ;  uncertainty theta = 0.002127, k = 0.085087
         6         1        16     1      110.920448      413.785061    ;  uncertainty theta = 0.002578, k = 0.129130
         6         5        28     1      107.705566      398.101126    ;  uncertainty theta = 0.001315, k = 0.069181
         6         5        29     1      107.705566      398.101126    ;  uncertainty theta = 0.001315, k = 0.069181
         7         8         9     1      123.942505      372.717272    ;  uncertainty theta = 0.005115, k = 0.175974
         7         8        20     1      117.586830      413.590022    ;  uncertainty theta = 0.003942, k = 0.085910
         7        12        11     1      121.207626      521.809300    ;  uncertainty theta = 0.002262, k = 0.031311
         7        12        33     1      118.435608      273.218405    ;  uncertainty theta = 0.003073, k = 0.075225
         7        13        14     1      118.799637      444.363898    ;  uncertainty theta = 0.006818, k = 0.204968
         7        13        18     1      120.516724      330.809662    ;  uncertainty theta = 0.006276, k = 0.323842
         8         7        12     1      121.723633      401.712712    ;  uncertainty theta = 0.004510, k = 0.226386
         8         7        13     1      120.507469      371.014297    ;  uncertainty theta = 0.001942, k = 0.165056
         8         9        10     1      121.600662      355.472030    ;  uncertainty theta = 0.004430, k = 0.117176
         8         9        19     1      120.568947      449.474768    ;  uncertainty theta = 0.001428, k = 0.087847
         9         8        20     1      120.137085      453.066019    ;  uncertainty theta = 0.003161, k = 0.095973
         9        10        11     1      118.521408      504.243759    ;  uncertainty theta = 0.003727, k = 0.077042
         9        10        32     1      119.895508      282.330875    ;  uncertainty theta = 0.002549, k = 0.077648
        10         9        19     1      120.234840      454.908777    ;  uncertainty theta = 0.002092, k = 0.126480
        10        11        12     1      119.323929      506.342974    ;  uncertainty theta = 0.002723, k = 0.050820
        10        11        40     1      120.122826      285.662511    ;  uncertainty theta = 0.000443, k = 0.032129
        11        10        32     1      121.361893      281.867473    ;  uncertainty theta = 0.001546, k = 0.022762
        11        12        33     1      120.750656      291.201861    ;  uncertainty theta = 0.001707, k = 0.042747
        12         7        13     1      121.398338      403.779398    ;  uncertainty theta = 0.001785, k = 0.104109
        12        11        40     1      120.387840      283.633077    ;  uncertainty theta = 0.001257, k = 0.017514
        13        14        15     1      123.274437      490.882999    ;  uncertainty theta = 0.009631, k = 0.168991
        13        18        17     1      120.787155      463.612431    ;  uncertainty theta = 0.007438, k = 0.235620
        13        18        21     1      122.328979      460.740208    ;  uncertainty theta = 0.007449, k = 0.446227
        14        13        18     1      118.869080      474.986053    ;  uncertainty theta = 0.007373, k = 0.306044
        14        15        16     1      120.183266      597.306923    ;  uncertainty theta = 0.004582, k = 0.107136
        14        15        34     1      117.268967      344.332774    ;  uncertainty theta = 0.004792, k = 0.078588
        15        16        17     1      118.995529      458.367779    ;  uncertainty theta = 0.003760, k = 0.125549
        16        15        34     1      122.337013      249.202509    ;  uncertainty theta = 0.003761, k = 0.182710
        16        17        18     1      118.746964      458.926020    ;  uncertainty theta = 0.004664, k = 0.229709
        17        18        21     1      126.385147      909.462078    ;  uncertainty theta = 0.004905, k = 0.131757
        18        21        35     1      117.319260      387.717865    ;  uncertainty theta = 0.001928, k = 0.166909
        18        21        36     1      117.319260      387.717865    ;  uncertainty theta = 0.001928, k = 0.166909
        22         4        23     1      107.643738      538.412029    ;  uncertainty theta = 0.007193, k = 0.135057
        22        42        44     1      110.580200      427.150833    ;  uncertainty theta = 0.003029, k = 0.077348
        22        42        45     1      110.580200      427.150833    ;  uncertainty theta = 0.003029, k = 0.077348
        22        42        46     1      110.580200      427.150833    ;  uncertainty theta = 0.003029, k = 0.077348
        24         2        25     1      105.386818      324.526607    ;  uncertainty theta = 0.002622, k = 0.065271
        26         3        27     1      105.552940      316.331079    ;  uncertainty theta = 0.001859, k = 0.040680
        28         5        29     1      105.552940      316.331079    ;  uncertainty theta = 0.001859, k = 0.040680
        30         6        31     1      105.386818      324.526607    ;  uncertainty theta = 0.002622, k = 0.065271
        35        21        36     1      108.264320      277.112176    ;  uncertainty theta = 0.001999, k = 0.081832
        37        23        38     1      105.471962      320.828100    ;  uncertainty theta = 0.000440, k = 0.044413
        37        23        39     1      105.471962      320.828100    ;  uncertainty theta = 0.000440, k = 0.044413
        38        23        39     1      105.471962      320.828100    ;  uncertainty theta = 0.000440, k = 0.044413
        41        22        42     1      104.989967      466.051033    ;  uncertainty theta = 0.003981, k = 0.160386
        41        22        43     1      108.256264      319.736867    ;  uncertainty theta = 0.003368, k = 0.117963
        42        22        43     1      104.989967      466.051033    ;  uncertainty theta = 0.003981, k = 0.160386
        44        42        45     1      108.544434      382.801525    ;  uncertainty theta = 0.003880, k = 0.063821
        44        42        46     1      108.544434      382.801525    ;  uncertainty theta = 0.003880, k = 0.063821
        45        42        46     1      108.544434      382.801525    ;  uncertainty theta = 0.003880, k = 0.063821

[ dihedrals ] ; propers for gromacs 4.5 or higher, use funct 9
;       ai        aj        ak        al funct           phase               k        pn
         1         2         3         4     9        0.000000        4.276758         1    ;  uncertainty k = 1.889216
         1         2         3         4     9      180.000000       -4.628391         2    ;  uncertainty k = 0.460318
         1         2         3         4     9        0.000000        2.061726         3    ;  uncertainty k = 0.441336
         1         2         3         4     9      180.000000       -0.363595         4    ;  uncertainty k = 0.172921
         1         2         3        26     9        0.000000       -1.801119         1    ;  uncertainty k = 0.739104
         1         2         3        26     9      180.000000        0.024057         2    ;  uncertainty k = 0.398683
         1         2         3        26     9        0.000000        1.262951         3    ;  uncertainty k = 0.272242
         1         2         3        26     9      180.000000       -0.285343         4    ;  uncertainty k = 0.070432
         1         2         3        27     9        0.000000       -1.801119         1    ;  uncertainty k = 0.739104
         1         2         3        27     9      180.000000        0.024057         2    ;  uncertainty k = 0.398683
         1         2         3        27     9        0.000000        1.262951         3    ;  uncertainty k = 0.272242
         1         2         3        27     9      180.000000       -0.285343         4    ;  uncertainty k = 0.070432
         1         6         5         4     9        0.000000        4.276758         1    ;  uncertainty k = 1.889216
         1         6         5         4     9      180.000000       -4.628391         2    ;  uncertainty k = 0.460318
         1         6         5         4     9        0.000000        2.061726         3    ;  uncertainty k = 0.441336
         1         6         5         4     9      180.000000       -0.363595         4    ;  uncertainty k = 0.172921
         1         6         5        28     9        0.000000       -1.801119         1    ;  uncertainty k = 0.739104
         1         6         5        28     9      180.000000        0.024057         2    ;  uncertainty k = 0.398683
         1         6         5        28     9        0.000000        1.262951         3    ;  uncertainty k = 0.272242
         1         6         5        28     9      180.000000       -0.285343         4    ;  uncertainty k = 0.070432
         1         6         5        29     9        0.000000       -1.801119         1    ;  uncertainty k = 0.739104
         1         6         5        29     9      180.000000        0.024057         2    ;  uncertainty k = 0.398683
         1         6         5        29     9        0.000000        1.262951         3    ;  uncertainty k = 0.272242
         1         6         5        29     9      180.000000       -0.285343         4    ;  uncertainty k = 0.070432
         1        16        15        14     9        0.000000       -0.065860         1    ;  uncertainty k = 0.994685
         1        16        15        14     9      180.000000        5.001938         2    ;  uncertainty k = 1.186301
         1        16        15        14     9        0.000000        0.407861         3    ;  uncertainty k = 0.191991
         1        16        15        14     9      180.000000        0.910043         4    ;  uncertainty k = 0.399942
         1        16        15        34     9        0.000000        0.521714         1    ;  uncertainty k = 1.770181
         1        16        15        34     9      180.000000        3.628627         2    ;  uncertainty k = 0.640447
         1        16        15        34     9        0.000000        0.686206         3    ;  uncertainty k = 0.349057
         1        16        15        34     9      180.000000        0.638707         4    ;  uncertainty k = 0.306224
         1        16        17        18     9        0.000000        0.688432         1    ;  uncertainty k = 0.920945
         1        16        17        18     9      180.000000       13.510448         2    ;  uncertainty k = 0.475319
         1        16        17        18     9        0.000000        2.228543         3    ;  uncertainty k = 0.534703
         1        16        17        18     9      180.000000        1.303531         4    ;  uncertainty k = 0.431444
         2         1         6         5     9        0.000000       -6.394630         1    ;  uncertainty k = 2.543259
         2         1         6         5     9      180.000000        1.899268         2    ;  uncertainty k = 0.561385
         2         1         6         5     9        0.000000        0.997417         3    ;  uncertainty k = 0.403966
         2         1         6         5     9      180.000000       -0.459867         4    ;  uncertainty k = 0.210971
         2         1         6        30     9        0.000000       -6.197180         1    ;  uncertainty k = 2.141136
         2         1         6        30     9      180.000000        0.689218         2    ;  uncertainty k = 0.234873
         2         1         6        30     9        0.000000        0.770932         3    ;  uncertainty k = 0.073079
         2         1         6        30     9      180.000000       -0.096056         4    ;  uncertainty k = 0.084329
         2         1         6        31     9        0.000000       -6.197180         1    ;  uncertainty k = 2.141136
         2         1         6        31     9      180.000000        0.689218         2    ;  uncertainty k = 0.234873
         2         1         6        31     9        0.000000        0.770932         3    ;  uncertainty k = 0.073079
         2         1         6        31     9      180.000000       -0.096056         4    ;  uncertainty k = 0.084329
         2         1        16        15     9        0.000000        3.557865         1    ;  uncertainty k = 0.809986
         2         1        16        15     9      180.000000        7.483763         2    ;  uncertainty k = 0.168909
         2         1        16        15     9        0.000000        0.611820         3    ;  uncertainty k = 0.196024
         2         1        16        15     9      180.000000        0.017676         4    ;  uncertainty k = 0.136758
         2         1        16        17     9        0.000000        5.826245         1    ;  uncertainty k = 1.210286
         2         1        16        17     9      180.000000       10.928182         2    ;  uncertainty k = 0.227746
         2         1        16        17     9        0.000000        0.475624         3    ;  uncertainty k = 0.358668
         2         1        16        17     9      180.000000       -0.023749         4    ;  uncertainty k = 0.089456
         2         3         4         5     9        0.000000       -2.806834         1    ;  uncertainty k = 0.766731
         2         3         4         5     9      180.000000       -0.359339         2    ;  uncertainty k = 0.816342
         2         3         4         5     9        0.000000        0.587782         3    ;  uncertainty k = 0.276311
         2         3         4         5     9      180.000000       -1.072280         4    ;  uncertainty k = 0.284403
         2         3         4        22     9        0.000000       -2.850379         1    ;  uncertainty k = 1.586142
         2         3         4        22     9      180.000000       -0.245703         2    ;  uncertainty k = 0.294781
         2         3         4        22     9        0.000000        0.566519         3    ;  uncertainty k = 0.207777
         2         3         4        22     9      180.000000       -0.326576         4    ;  uncertainty k = 0.171958
         2         3         4        23     9        0.000000       -4.749179         1    ;  uncertainty k = 0.862506
         2         3         4        23     9      180.000000        0.850921         2    ;  uncertainty k = 0.348872
         2         3         4        23     9        0.000000        0.540260         3    ;  uncertainty k = 0.214808
         2         3         4        23     9      180.000000       -0.153293         4    ;  uncertainty k = 0.091596
         3         2         1         6     9        0.000000       -6.394630         1    ;  uncertainty k = 2.543259
         3         2         1         6     9      180.000000        1.899268         2    ;  uncertainty k = 0.561385
         3         2         1         6     9        0.000000        0.997417         3    ;  uncertainty k = 0.403966
         3         2         1         6     9      180.000000       -0.459867         4    ;  uncertainty k = 0.210971
         3         2         1        16     9        0.000000       -2.727554         1    ;  uncertainty k = 0.625539
         3         2         1        16     9      180.000000        0.687485         2    ;  uncertainty k = 0.422144
         3         2         1        16     9        0.000000        0.103357         3    ;  uncertainty k = 0.189172
         3         2         1        16     9      180.000000        0.221909         4    ;  uncertainty k = 0.105355
         3         4         5         6     9        0.000000       -2.806834         1    ;  uncertainty k = 0.766731
         3         4         5         6     9      180.000000       -0.359339         2    ;  uncertainty k = 0.816342
         3         4         5         6     9        0.000000        0.587782         3    ;  uncertainty k = 0.276311
         3         4         5         6     9      180.000000       -1.072280         4    ;  uncertainty k = 0.284403
         3         4         5        28     9        0.000000       -1.069145         1    ;  uncertainty k = 0.220743
         3         4         5        28     9      180.000000       -0.394326         2    ;  uncertainty k = 0.130191
         3         4         5        28     9        0.000000        0.079429         3    ;  uncertainty k = 0.113337
         3         4         5        28     9      180.000000       -0.138672         4    ;  uncertainty k = 0.050539
         3         4         5        29     9        0.000000       -1.069145         1    ;  uncertainty k = 0.220743
         3         4         5        29     9      180.000000       -0.394326         2    ;  uncertainty k = 0.130191
         3         4         5        29     9        0.000000        0.079429         3    ;  uncertainty k = 0.113337
         3         4         5        29     9      180.000000       -0.138672         4    ;  uncertainty k = 0.050539
         3         4        22        41     9        0.000000       -1.153448         1    ;  uncertainty k = 0.441893
         3         4        22        41     9      180.000000       -0.012645         2    ;  uncertainty k = 0.331615
         3         4        22        41     9        0.000000        0.447909         3    ;  uncertainty k = 0.127384
         3         4        22        41     9      180.000000       -0.189866         4    ;  uncertainty k = 0.103834
         3         4        22        42     9        0.000000       -2.771907         1    ;  uncertainty k = 1.481100
         3         4        22        42     9      180.000000       -0.939696         2    ;  uncertainty k = 0.501096
         3         4        22        42     9        0.000000        1.270920         3    ;  uncertainty k = 0.111325
         3         4        22        42     9      180.000000       -0.235985         4    ;  uncertainty k = 0.147245
         3         4        22        43     9        0.000000       -1.153448         1    ;  uncertainty k = 0.441893
         3         4        22        43     9      180.000000       -0.012645         2    ;  uncertainty k = 0.331615
         3         4        22        43     9        0.000000        0.447909         3    ;  uncertainty k = 0.127384
         3         4        22        43     9      180.000000       -0.189866         4    ;  uncertainty k = 0.103834
         3         4        23        37     9        0.000000       -0.793499         1    ;  uncertainty k = 0.388033
         3         4        23        37     9      180.000000       -0.692675         2    ;  uncertainty k = 0.242416
         3         4        23        37     9        0.000000        0.576700         3    ;  uncertainty k = 0.097851
         3         4        23        37     9      180.000000       -0.141138         4    ;  uncertainty k = 0.069820
         3         4        23        38     9        0.000000       -0.793499         1    ;  uncertainty k = 0.388033
         3         4        23        38     9      180.000000       -0.692675         2    ;  uncertainty k = 0.242416
         3         4        23        38     9        0.000000        0.576700         3    ;  uncertainty k = 0.097851
         3         4        23        38     9      180.000000       -0.141138         4    ;  uncertainty k = 0.069820
         3         4        23        39     9        0.000000       -0.793499         1    ;  uncertainty k = 0.388033
         3         4        23        39     9      180.000000       -0.692675         2    ;  uncertainty k = 0.242416
         3         4        23        39     9        0.000000        0.576700         3    ;  uncertainty k = 0.097851
         3         4        23        39     9      180.000000       -0.141138         4    ;  uncertainty k = 0.069820
         4         3         2        24     9        0.000000        3.843932         1    ;  uncertainty k = 1.210793
         4         3         2        24     9      180.000000       -2.700432         2    ;  uncertainty k = 0.363517
         4         3         2        24     9        0.000000       -0.045922         3    ;  uncertainty k = 0.130906
         4         3         2        24     9      180.000000        0.315864         4    ;  uncertainty k = 0.074408
         4         3         2        25     9        0.000000        3.843930         1    ;  uncertainty k = 1.210791
         4         3         2        25     9      180.000000       -2.700432         2    ;  uncertainty k = 0.363518
         4         3         2        25     9        0.000000       -0.045922         3    ;  uncertainty k = 0.130906
         4         3         2        25     9      180.000000        0.315864         4    ;  uncertainty k = 0.074408
         4         5         6        30     9        0.000000        3.843930         1    ;  uncertainty k = 1.210791
         4         5         6        30     9      180.000000       -2.700432         2    ;  uncertainty k = 0.363518
         4         5         6        30     9        0.000000       -0.045922         3    ;  uncertainty k = 0.130906
         4         5         6        30     9      180.000000        0.315864         4    ;  uncertainty k = 0.074408
         4         5         6        31     9        0.000000        3.843930         1    ;  uncertainty k = 1.210791
         4         5         6        31     9      180.000000       -2.700432         2    ;  uncertainty k = 0.363518
         4         5         6        31     9        0.000000       -0.045922         3    ;  uncertainty k = 0.130906
         4         5         6        31     9      180.000000        0.315864         4    ;  uncertainty k = 0.074408
         4        22        42        44     9        0.000000        0.275368         1    ;  uncertainty k = 1.279446
         4        22        42        44     9      180.000000       -0.589318         2    ;  uncertainty k = 0.412518
         4        22        42        44     9        0.000000        1.009718         3    ;  uncertainty k = 0.226472
         4        22        42        44     9      180.000000        0.000667         4    ;  uncertainty k = 0.117493
         4        22        42        45     9        0.000000        0.275368         1    ;  uncertainty k = 1.279446
         4        22        42        45     9      180.000000       -0.589318         2    ;  uncertainty k = 0.412518
         4        22        42        45     9        0.000000        1.009718         3    ;  uncertainty k = 0.226472
         4        22        42        45     9      180.000000        0.000667         4    ;  uncertainty k = 0.117493
         4        22        42        46     9        0.000000        0.275368         1    ;  uncertainty k = 1.279446
         4        22        42        46     9      180.000000       -0.589318         2    ;  uncertainty k = 0.412518
         4        22        42        46     9        0.000000        1.009718         3    ;  uncertainty k = 0.226472
         4        22        42        46     9      180.000000        0.000667         4    ;  uncertainty k = 0.117493
         5         4         3        26     9        0.000000       -1.069145         1    ;  uncertainty k = 0.220743
         5         4         3        26     9      180.000000       -0.394326         2    ;  uncertainty k = 0.130191
         5         4         3        26     9        0.000000        0.079429         3    ;  uncertainty k = 0.113337
         5         4         3        26     9      180.000000       -0.138672         4    ;  uncertainty k = 0.050539
         5         4         3        27     9        0.000000       -1.069145         1    ;  uncertainty k = 0.220743
         5         4         3        27     9      180.000000       -0.394326         2    ;  uncertainty k = 0.130191
         5         4         3        27     9        0.000000        0.079429         3    ;  uncertainty k = 0.113337
         5         4         3        27     9      180.000000       -0.138672         4    ;  uncertainty k = 0.050539
         5         4        22        41     9        0.000000       -1.153448         1    ;  uncertainty k = 0.441893
         5         4        22        41     9      180.000000       -0.012645         2    ;  uncertainty k = 0.331615
         5         4        22        41     9        0.000000        0.447909         3    ;  uncertainty k = 0.127384
         5         4        22        41     9      180.000000       -0.189866         4    ;  uncertainty k = 0.103834
         5         4        22        42     9        0.000000       -2.771907         1    ;  uncertainty k = 1.481100
         5         4        22        42     9      180.000000       -0.939696         2    ;  uncertainty k = 0.501096
         5         4        22        42     9        0.000000        1.270920         3    ;  uncertainty k = 0.111325
         5         4        22        42     9      180.000000       -0.235985         4    ;  uncertainty k = 0.147245
         5         4        22        43     9        0.000000       -1.153448         1    ;  uncertainty k = 0.441893
         5         4        22        43     9      180.000000       -0.012645         2    ;  uncertainty k = 0.331615
         5         4        22        43     9        0.000000        0.447909         3    ;  uncertainty k = 0.127384
         5         4        22        43     9      180.000000       -0.189866         4    ;  uncertainty k = 0.103834
         5         4        23        37     9        0.000000       -0.793499         1    ;  uncertainty k = 0.388033
         5         4        23        37     9      180.000000       -0.692675         2    ;  uncertainty k = 0.242416
         5         4        23        37     9        0.000000        0.576700         3    ;  uncertainty k = 0.097851
         5         4        23        37     9      180.000000       -0.141138         4    ;  uncertainty k = 0.069820
         5         4        23        38     9        0.000000       -0.793499         1    ;  uncertainty k = 0.388033
         5         4        23        38     9      180.000000       -0.692675         2    ;  uncertainty k = 0.242416
         5         4        23        38     9        0.000000        0.576700         3    ;  uncertainty k = 0.097851
         5         4        23        38     9      180.000000       -0.141138         4    ;  uncertainty k = 0.069820
         5         4        23        39     9        0.000000       -0.793499         1    ;  uncertainty k = 0.388033
         5         4        23        39     9      180.000000       -0.692675         2    ;  uncertainty k = 0.242416
         5         4        23        39     9        0.000000        0.576700         3    ;  uncertainty k = 0.097851
         5         4        23        39     9      180.000000       -0.141138         4    ;  uncertainty k = 0.069820
         5         6         1        16     9        0.000000       -2.727554         1    ;  uncertainty k = 0.625539
         5         6         1        16     9      180.000000        0.687485         2    ;  uncertainty k = 0.422144
         5         6         1        16     9        0.000000        0.103357         3    ;  uncertainty k = 0.189172
         5         6         1        16     9      180.000000        0.221909         4    ;  uncertainty k = 0.105355
         6         1         2        24     9        0.000000       -6.197181         1    ;  uncertainty k = 2.141136
         6         1         2        24     9      180.000000        0.689219         2    ;  uncertainty k = 0.234873
         6         1         2        24     9        0.000000        0.770932         3    ;  uncertainty k = 0.073080
         6         1         2        24     9      180.000000       -0.096056         4    ;  uncertainty k = 0.084329
         6         1         2        25     9        0.000000       -6.197180         1    ;  uncertainty k = 2.141136
         6         1         2        25     9      180.000000        0.689218         2    ;  uncertainty k = 0.234873
         6         1         2        25     9        0.000000        0.770932         3    ;  uncertainty k = 0.073079
         6         1         2        25     9      180.000000       -0.096056         4    ;  uncertainty k = 0.084329
         6         1        16        15     9        0.000000        3.557865         1    ;  uncertainty k = 0.809986
         6         1        16        15     9      180.000000        7.483763         2    ;  uncertainty k = 0.168909
         6         1        16        15     9        0.000000        0.611820         3    ;  uncertainty k = 0.196024
         6         1        16        15     9      180.000000        0.017676         4    ;  uncertainty k = 0.136758
         6         1        16        17     9        0.000000        5.826245         1    ;  uncertainty k = 1.210286
         6         1        16        17     9      180.000000       10.928182         2    ;  uncertainty k = 0.227746
         6         1        16        17     9        0.000000        0.475624         3    ;  uncertainty k = 0.358668
         6         1        16        17     9      180.000000       -0.023749         4    ;  uncertainty k = 0.089456
         6         5         4        22     9        0.000000       -2.850379         1    ;  uncertainty k = 1.586142
         6         5         4        22     9      180.000000       -0.245703         2    ;  uncertainty k = 0.294781
         6         5         4        22     9        0.000000        0.566519         3    ;  uncertainty k = 0.207777
         6         5         4        22     9      180.000000       -0.326576         4    ;  uncertainty k = 0.171958
         6         5         4        23     9        0.000000       -4.749179         1    ;  uncertainty k = 0.862506
         6         5         4        23     9      180.000000        0.850921         2    ;  uncertainty k = 0.348872
         6         5         4        23     9        0.000000        0.540260         3    ;  uncertainty k = 0.214808
         6         5         4        23     9      180.000000       -0.153293         4    ;  uncertainty k = 0.091596
         7         8         9        10     9        0.000000       -0.177499         1    ;  uncertainty k = 0.370875
         7         8         9        10     9      180.000000        5.426425         2    ;  uncertainty k = 0.887864
         7         8         9        10     9        0.000000        0.573772         3    ;  uncertainty k = 0.195975
         7         8         9        10     9      180.000000        1.372045         4    ;  uncertainty k = 0.303842
         7         8         9        19     9        0.000000        0.278727         1    ;  uncertainty k = 0.177608
         7         8         9        19     9      180.000000        6.861533         2    ;  uncertainty k = 0.653115
         7         8         9        19     9        0.000000        1.488328         3    ;  uncertainty k = 0.242790
         7         8         9        19     9      180.000000        1.767640         4    ;  uncertainty k = 0.160731
         7        12        11        10     9        0.000000       -0.005599         1    ;  uncertainty k = 0.172523
         7        12        11        10     9      180.000000       13.704312         2    ;  uncertainty k = 0.400244
         7        12        11        10     9        0.000000       -0.889092         3    ;  uncertainty k = 0.376748
         7        12        11        10     9      180.000000        0.753251         4    ;  uncertainty k = 0.237798
         7        12        11        40     9        0.000000        0.093122         1    ;  uncertainty k = 0.117432
         7        12        11        40     9      180.000000        7.226568         2    ;  uncertainty k = 0.324536
         7        12        11        40     9        0.000000        1.392509         3    ;  uncertainty k = 0.116126
         7        12        11        40     9      180.000000        1.851123         4    ;  uncertainty k = 0.123042
         7        13        14        15     9        0.000000        0.225606         1    ;  uncertainty k = 0.481381
         7        13        14        15     9      180.000000       16.696443         2    ;  uncertainty k = 0.477771
         7        13        14        15     9        0.000000        2.689435         3    ;  uncertainty k = 0.318553
         7        13        14        15     9      180.000000        1.637253         4    ;  uncertainty k = 0.280820
         7        13        18        17     9        0.000000       -0.358133         1    ;  uncertainty k = 0.827621
         7        13        18        17     9      180.000000        4.045104         2    ;  uncertainty k = 0.631749
         7        13        18        17     9        0.000000        0.054811         3    ;  uncertainty k = 0.397944
         7        13        18        17     9      180.000000        0.845164         4    ;  uncertainty k = 0.533399
         7        13        18        21     9        0.000000        0.267835         1    ;  uncertainty k = 1.114651
         7        13        18        21     9      180.000000        4.598102         2    ;  uncertainty k = 0.944135
         7        13        18        21     9        0.000000        0.529149         3    ;  uncertainty k = 0.418032
         7        13        18        21     9      180.000000        0.574058         4    ;  uncertainty k = 0.382592
         8         7        12        11     9        0.000000       -0.150260         1    ;  uncertainty k = 0.127681
         8         7        12        11     9      180.000000       10.405348         2    ;  uncertainty k = 0.361980
         8         7        12        11     9        0.000000       -0.060431         3    ;  uncertainty k = 0.254828
         8         7        12        11     9      180.000000        1.300558         4    ;  uncertainty k = 0.346919
         8         7        12        33     9        0.000000        0.199757         1    ;  uncertainty k = 0.276976
         8         7        12        33     9      180.000000        7.081720         2    ;  uncertainty k = 0.434721
         8         7        12        33     9        0.000000        1.286504         3    ;  uncertainty k = 0.262013
         8         7        12        33     9      180.000000        1.668077         4    ;  uncertainty k = 0.166942
         8         7        13        14     9        0.000000       -1.385229         1    ;  uncertainty k = 1.219677
         8         7        13        14     9      180.000000        4.721926         2    ;  uncertainty k = 0.364907
         8         7        13        14     9        0.000000        1.151009         3    ;  uncertainty k = 0.499482
         8         7        13        14     9      180.000000        0.168008         4    ;  uncertainty k = 0.174005
         8         7        13        18     9        0.000000        3.094978         1    ;  uncertainty k = 2.118637
         8         7        13        18     9      180.000000        2.743077         2    ;  uncertainty k = 0.794758
         8         7        13        18     9        0.000000        0.960122         3    ;  uncertainty k = 0.509319
         8         7        13        18     9      180.000000        0.259586         4    ;  uncertainty k = 0.213607
         8         9        10        11     9        0.000000        0.002852         1    ;  uncertainty k = 0.111935
         8         9        10        11     9      180.000000        9.686774         2    ;  uncertainty k = 0.296867
         8         9        10        11     9        0.000000        0.091223         3    ;  uncertainty k = 0.576898
         8         9        10        11     9      180.000000        1.248193         4    ;  uncertainty k = 0.301793
         8         9        10        32     9        0.000000        0.160469         1    ;  uncertainty k = 0.115845
         8         9        10        32     9      180.000000        6.143170         2    ;  uncertainty k = 0.584636
         8         9        10        32     9        0.000000        1.422833         3    ;  uncertainty k = 0.370866
         8         9        10        32     9      180.000000        1.585209         4    ;  uncertainty k = 0.191219
         9         8         7        12     9        0.000000        0.042409         1    ;  uncertainty k = 0.622904
         9         8         7        12     9      180.000000        6.724525         2    ;  uncertainty k = 0.595450
         9         8         7        12     9        0.000000        0.406971         3    ;  uncertainty k = 0.392989
         9         8         7        12     9      180.000000        1.314518         4    ;  uncertainty k = 0.278626
         9         8         7        13     9        0.000000       -0.002001         1    ;  uncertainty k = 0.377117
         9         8         7        13     9      180.000000        5.924601         2    ;  uncertainty k = 0.428546
         9         8         7        13     9        0.000000        1.457695         3    ;  uncertainty k = 0.417754
         9         8         7        13     9      180.000000        1.794051         4    ;  uncertainty k = 0.117701
         9        10        11        12     9        0.000000        0.032379         1    ;  uncertainty k = 0.116696
         9        10        11        12     9      180.000000       14.345522         2    ;  uncertainty k = 0.160340
         9        10        11        12     9        0.000000       -1.087256         3    ;  uncertainty k = 0.625240
         9        10        11        12     9      180.000000        0.770564         4    ;  uncertainty k = 0.260775
         9        10        11        40     9        0.000000        0.039035         1    ;  uncertainty k = 0.138062
         9        10        11        40     9      180.000000        7.573957         2    ;  uncertainty k = 0.326463
         9        10        11        40     9        0.000000        1.498646         3    ;  uncertainty k = 0.240396
         9        10        11        40     9      180.000000        1.852602         4    ;  uncertainty k = 0.140866
        10         9         8        20     9        0.000000        0.141596         1    ;  uncertainty k = 0.227101
        10         9         8        20     9      180.000000        7.003529         2    ;  uncertainty k = 0.264439
        10         9         8        20     9        0.000000        1.459862         3    ;  uncertainty k = 0.224785
        10         9         8        20     9      180.000000        1.666452         4    ;  uncertainty k = 0.137453
        10        11        12        33     9        0.000000        0.069646         1    ;  uncertainty k = 0.067795
        10        11        12        33     9      180.000000        7.812867         2    ;  uncertainty k = 0.200631
        10        11        12        33     9        0.000000        1.367062         3    ;  uncertainty k = 0.299642
        10        11        12        33     9      180.000000        1.835394         4    ;  uncertainty k = 0.152349
        11        10         9        19     9        0.000000        0.138880         1    ;  uncertainty k = 0.273316
        11        10         9        19     9      180.000000        9.611408         2    ;  uncertainty k = 0.646931
        11        10         9        19     9        0.000000        1.485930         3    ;  uncertainty k = 0.454577
        11        10         9        19     9      180.000000        1.742540         4    ;  uncertainty k = 0.176936
        11        12         7        13     9        0.000000        0.185426         1    ;  uncertainty k = 0.238800
        11        12         7        13     9      180.000000        8.706652         2    ;  uncertainty k = 0.671242
        11        12         7        13     9        0.000000        1.234979         3    ;  uncertainty k = 0.376143
        11        12         7        13     9      180.000000        1.938054         4    ;  uncertainty k = 0.238927
        12         7         8        20     9        0.000000       -0.040062         1    ;  uncertainty k = 0.201861
        12         7         8        20     9      180.000000        7.931022         2    ;  uncertainty k = 0.437251
        12         7         8        20     9        0.000000        1.364870         3    ;  uncertainty k = 0.334778
        12         7         8        20     9      180.000000        1.575617         4    ;  uncertainty k = 0.162413
        12         7        13        14     9        0.000000        0.888580         1    ;  uncertainty k = 0.647956
        12         7        13        14     9      180.000000        5.317853         2    ;  uncertainty k = 0.349917
        12         7        13        14     9        0.000000        0.411949         3    ;  uncertainty k = 0.295119
        12         7        13        14     9      180.000000        0.295707         4    ;  uncertainty k = 0.167526
        12         7        13        18     9        0.000000       -0.356460         1    ;  uncertainty k = 0.673274
        12         7        13        18     9      180.000000        3.702017         2    ;  uncertainty k = 0.317147
        12         7        13        18     9        0.000000        0.483618         3    ;  uncertainty k = 0.309432
        12         7        13        18     9      180.000000        0.254703         4    ;  uncertainty k = 0.156035
        12        11        10        32     9        0.000000        0.131595         1    ;  uncertainty k = 0.106145
        12        11        10        32     9      180.000000        7.555672         2    ;  uncertainty k = 0.306483
        12        11        10        32     9        0.000000        1.476388         3    ;  uncertainty k = 0.228295
        12        11        10        32     9      180.000000        1.782294         4    ;  uncertainty k = 0.178684
        13         7         8        20     9        0.000000       -0.328358         1    ;  uncertainty k = 0.760863
        13         7         8        20     9      180.000000        7.665027         2    ;  uncertainty k = 0.337712
        13         7         8        20     9        0.000000        1.167818         3    ;  uncertainty k = 0.276355
        13         7         8        20     9      180.000000        1.465957         4    ;  uncertainty k = 0.230971
        13         7        12        33     9        0.000000       -0.215801         1    ;  uncertainty k = 0.297827
        13         7        12        33     9      180.000000        7.232976         2    ;  uncertainty k = 0.252937
        13         7        12        33     9        0.000000        0.708703         3    ;  uncertainty k = 0.360465
        13         7        12        33     9      180.000000        1.274872         4    ;  uncertainty k = 0.216330
        13        14        15        16     9        0.000000        0.141980         1    ;  uncertainty k = 1.053912
        13        14        15        16     9      180.000000       16.214785         2    ;  uncertainty k = 0.286136
        13        14        15        16     9        0.000000        0.968630         3    ;  uncertainty k = 0.468837
        13        14        15        16     9      180.000000        1.578090         4    ;  uncertainty k = 0.183754
        13        14        15        34     9        0.000000        0.433102         1    ;  uncertainty k = 0.699242
        13        14        15        34     9      180.000000       15.878097         2    ;  uncertainty k = 0.427551
        13        14        15        34     9        0.000000        2.216903         3    ;  uncertainty k = 0.449923
        13        14        15        34     9      180.000000        1.692273         4    ;  uncertainty k = 0.235895
        13        18        17        16     9        0.000000        1.688545         1    ;  uncertainty k = 1.287212
        13        18        17        16     9      180.000000        8.271309         2    ;  uncertainty k = 0.727572
        13        18        17        16     9        0.000000        1.301921         3    ;  uncertainty k = 0.423204
        13        18        17        16     9      180.000000        1.045953         4    ;  uncertainty k = 0.439917
        13        18        21        35     9        0.000000       10.378093         1    ;  uncertainty k = 0.339025
        13        18        21        35     9      180.000000        5.935875         2    ;  uncertainty k = 0.368198
        13        18        21        35     9        0.000000        0.897320         3    ;  uncertainty k = 0.235681
        13        18        21        35     9      180.000000        0.078378         4    ;  uncertainty k = 0.094012
        13        18        21        36     9        0.000000       10.378094         1    ;  uncertainty k = 0.339024
        13        18        21        36     9      180.000000        5.935876         2    ;  uncertainty k = 0.368198
        13        18        21        36     9        0.000000        0.897319         3    ;  uncertainty k = 0.235681
        13        18        21        36     9      180.000000        0.078378         4    ;  uncertainty k = 0.094013
        14        13        18        17     9        0.000000       -0.914188         1    ;  uncertainty k = 0.976716
        14        13        18        17     9      180.000000        4.365827         2    ;  uncertainty k = 1.572805
        14        13        18        17     9        0.000000       -0.609400         3    ;  uncertainty k = 0.650186
        14        13        18        17     9      180.000000        0.782617         4    ;  uncertainty k = 0.489140
        14        13        18        21     9        0.000000        0.421676         1    ;  uncertainty k = 0.757592
        14        13        18        21     9      180.000000        4.363535         2    ;  uncertainty k = 1.151769
        14        13        18        21     9        0.000000        0.368322         3    ;  uncertainty k = 0.384250
        14        13        18        21     9      180.000000        0.667868         4    ;  uncertainty k = 0.286427
        14        15        16        17     9        0.000000       -0.844144         1    ;  uncertainty k = 0.206415
        14        15        16        17     9      180.000000        6.181156         2    ;  uncertainty k = 1.131747
        14        15        16        17     9        0.000000       -0.629544         3    ;  uncertainty k = 0.509306
        14        15        16        17     9      180.000000        0.976878         4    ;  uncertainty k = 0.500999
        15        14        13        18     9        0.000000        0.845409         1    ;  uncertainty k = 0.869489
        15        14        13        18     9      180.000000       14.909967         2    ;  uncertainty k = 0.145765
        15        14        13        18     9        0.000000        1.590232         3    ;  uncertainty k = 0.554123
        15        14        13        18     9      180.000000        1.309474         4    ;  uncertainty k = 0.249135
        15        16        17        18     9        0.000000        1.160063         1    ;  uncertainty k = 0.748994
        15        16        17        18     9      180.000000        7.719984         2    ;  uncertainty k = 0.668144
        15        16        17        18     9        0.000000        1.166746         3    ;  uncertainty k = 0.422770
        15        16        17        18     9      180.000000        0.848420         4    ;  uncertainty k = 0.189663
        16         1         2        24     9        0.000000        0.282678         1    ;  uncertainty k = 0.508449
        16         1         2        24     9      180.000000       -0.867338         2    ;  uncertainty k = 0.211745
        16         1         2        24     9        0.000000        0.131394         3    ;  uncertainty k = 0.129513
        16         1         2        24     9      180.000000        0.245217         4    ;  uncertainty k = 0.037775
        16         1         2        25     9        0.000000        0.282679         1    ;  uncertainty k = 0.508451
        16         1         2        25     9      180.000000       -0.867338         2    ;  uncertainty k = 0.211745
        16         1         2        25     9        0.000000        0.131394         3    ;  uncertainty k = 0.129513
        16         1         2        25     9      180.000000        0.245217         4    ;  uncertainty k = 0.037775
        16         1         6        30     9        0.000000        0.282679         1    ;  uncertainty k = 0.508451
        16         1         6        30     9      180.000000       -0.867338         2    ;  uncertainty k = 0.211745
        16         1         6        30     9        0.000000        0.131394         3    ;  uncertainty k = 0.129513
        16         1         6        30     9      180.000000        0.245217         4    ;  uncertainty k = 0.037775
        16         1         6        31     9        0.000000        0.282679         1    ;  uncertainty k = 0.508451
        16         1         6        31     9      180.000000       -0.867338         2    ;  uncertainty k = 0.211745
        16         1         6        31     9        0.000000        0.131394         3    ;  uncertainty k = 0.129513
        16         1         6        31     9      180.000000        0.245217         4    ;  uncertainty k = 0.037775
        16        17        18        21     9        0.000000        0.658518         1    ;  uncertainty k = 1.169543
        16        17        18        21     9      180.000000       14.296398         2    ;  uncertainty k = 0.384975
        16        17        18        21     9        0.000000        2.598387         3    ;  uncertainty k = 0.483382
        16        17        18        21     9      180.000000        1.762014         4    ;  uncertainty k = 0.137928
        17        16        15        34     9        0.000000        0.389595         1    ;  uncertainty k = 1.176176
        17        16        15        34     9      180.000000        4.255686         2    ;  uncertainty k = 0.878635
        17        16        15        34     9        0.000000        0.907757         3    ;  uncertainty k = 0.470192
        17        16        15        34     9      180.000000        0.946671         4    ;  uncertainty k = 0.125569
        17        18        21        35     9        0.000000       20.146710         1    ;  uncertainty k = 0.163869
        17        18        21        35     9      180.000000       11.513248         2    ;  uncertainty k = 0.249740
        17        18        21        35     9        0.000000        0.516507         3    ;  uncertainty k = 0.075339
        17        18        21        35     9      180.000000       -0.344968         4    ;  uncertainty k = 0.235723
        17        18        21        36     9        0.000000       20.146712         1    ;  uncertainty k = 0.163869
        17        18        21        36     9      180.000000       11.513246         2    ;  uncertainty k = 0.249739
        17        18        21        36     9        0.000000        0.516507         3    ;  uncertainty k = 0.075339
        17        18        21        36     9      180.000000       -0.344967         4    ;  uncertainty k = 0.235722
        19         9         8        20     9        0.000000        0.127028         1    ;  uncertainty k = 0.458559
        19         9         8        20     9      180.000000        7.584079         2    ;  uncertainty k = 0.298205
        19         9         8        20     9        0.000000        1.208450         3    ;  uncertainty k = 0.256922
        19         9         8        20     9      180.000000        1.439487         4    ;  uncertainty k = 0.242719
        19         9        10        32     9        0.000000       -0.183324         1    ;  uncertainty k = 0.309109
        19         9        10        32     9      180.000000        7.615952         2    ;  uncertainty k = 0.378043
        19         9        10        32     9        0.000000        0.553325         3    ;  uncertainty k = 0.272076
        19         9        10        32     9      180.000000        1.023076         4    ;  uncertainty k = 0.167401
        22         4         3        26     9        0.000000       -0.348886         1    ;  uncertainty k = 0.834248
        22         4         3        26     9      180.000000       -1.209825         2    ;  uncertainty k = 0.175480
        22         4         3        26     9        0.000000        0.286777         3    ;  uncertainty k = 0.172406
        22         4         3        26     9      180.000000       -0.281164         4    ;  uncertainty k = 0.143223
        22         4         3        27     9        0.000000       -0.348886         1    ;  uncertainty k = 0.834248
        22         4         3        27     9      180.000000       -1.209825         2    ;  uncertainty k = 0.175480
        22         4         3        27     9        0.000000        0.286777         3    ;  uncertainty k = 0.172406
        22         4         3        27     9      180.000000       -0.281164         4    ;  uncertainty k = 0.143223
        22         4         5        28     9        0.000000       -0.348886         1    ;  uncertainty k = 0.834248
        22         4         5        28     9      180.000000       -1.209825         2    ;  uncertainty k = 0.175480
        22         4         5        28     9        0.000000        0.286777         3    ;  uncertainty k = 0.172406
        22         4         5        28     9      180.000000       -0.281164         4    ;  uncertainty k = 0.143223
        22         4         5        29     9        0.000000       -0.348886         1    ;  uncertainty k = 0.834248
        22         4         5        29     9      180.000000       -1.209825         2    ;  uncertainty k = 0.175480
        22         4         5        29     9        0.000000        0.286777         3    ;  uncertainty k = 0.172406
        22         4         5        29     9      180.000000       -0.281164         4    ;  uncertainty k = 0.143223
        22         4        23        37     9        0.000000       -1.304950         1    ;  uncertainty k = 0.681874
        22         4        23        37     9      180.000000       -1.468261         2    ;  uncertainty k = 0.083554
        22         4        23        37     9        0.000000        0.756136         3    ;  uncertainty k = 0.170949
        22         4        23        37     9      180.000000       -0.307541         4    ;  uncertainty k = 0.086244
        22         4        23        38     9        0.000000       -1.304950         1    ;  uncertainty k = 0.681874
        22         4        23        38     9      180.000000       -1.468261         2    ;  uncertainty k = 0.083554
        22         4        23        38     9        0.000000        0.756136         3    ;  uncertainty k = 0.170949
        22         4        23        38     9      180.000000       -0.307541         4    ;  uncertainty k = 0.086244
        22         4        23        39     9        0.000000       -1.304950         1    ;  uncertainty k = 0.681874
        22         4        23        39     9      180.000000       -1.468261         2    ;  uncertainty k = 0.083554
        22         4        23        39     9        0.000000        0.756136         3    ;  uncertainty k = 0.170949
        22         4        23        39     9      180.000000       -0.307541         4    ;  uncertainty k = 0.086244
        23         4         3        26     9        0.000000       -0.192059         1    ;  uncertainty k = 0.280011
        23         4         3        26     9      180.000000       -0.205608         2    ;  uncertainty k = 0.325778
        23         4         3        26     9        0.000000        0.308171         3    ;  uncertainty k = 0.093238
        23         4         3        26     9      180.000000       -0.076499         4    ;  uncertainty k = 0.073593
        23         4         3        27     9        0.000000       -0.192059         1    ;  uncertainty k = 0.280011
        23         4         3        27     9      180.000000       -0.205608         2    ;  uncertainty k = 0.325778
        23         4         3        27     9        0.000000        0.308171         3    ;  uncertainty k = 0.093238
        23         4         3        27     9      180.000000       -0.076499         4    ;  uncertainty k = 0.073593
        23         4         5        28     9        0.000000       -0.192059         1    ;  uncertainty k = 0.280011
        23         4         5        28     9      180.000000       -0.205608         2    ;  uncertainty k = 0.325778
        23         4         5        28     9        0.000000        0.308171         3    ;  uncertainty k = 0.093238
        23         4         5        28     9      180.000000       -0.076499         4    ;  uncertainty k = 0.073593
        23         4         5        29     9        0.000000       -0.192059         1    ;  uncertainty k = 0.280011
        23         4         5        29     9      180.000000       -0.205608         2    ;  uncertainty k = 0.325778
        23         4         5        29     9        0.000000        0.308171         3    ;  uncertainty k = 0.093238
        23         4         5        29     9      180.000000       -0.076499         4    ;  uncertainty k = 0.073593
        23         4        22        41     9        0.000000       -1.369740         1    ;  uncertainty k = 0.611447
        23         4        22        41     9      180.000000        0.354740         2    ;  uncertainty k = 0.124470
        23         4        22        41     9        0.000000        0.530271         3    ;  uncertainty k = 0.165390
        23         4        22        41     9      180.000000       -0.101665         4    ;  uncertainty k = 0.116920
        23         4        22        42     9        0.000000       -1.806153         1    ;  uncertainty k = 0.734059
        23         4        22        42     9      180.000000       -1.323615         2    ;  uncertainty k = 0.853076
        23         4        22        42     9        0.000000        1.447603         3    ;  uncertainty k = 0.178393
        23         4        22        42     9      180.000000       -0.377057         4    ;  uncertainty k = 0.087490
        23         4        22        43     9        0.000000       -1.369740         1    ;  uncertainty k = 0.611447
        23         4        22        43     9      180.000000        0.354740         2    ;  uncertainty k = 0.124470
        23         4        22        43     9        0.000000        0.530271         3    ;  uncertainty k = 0.165390
        23         4        22        43     9      180.000000       -0.101665         4    ;  uncertainty k = 0.116920
        24         2         3        26     9        0.000000        0.061039         1    ;  uncertainty k = 0.091561
        24         2         3        26     9      180.000000        0.470789         2    ;  uncertainty k = 0.308289
        24         2         3        26     9        0.000000        0.131775         3    ;  uncertainty k = 0.085279
        24         2         3        26     9      180.000000       -0.193176         4    ;  uncertainty k = 0.108041
        24         2         3        27     9        0.000000        0.061039         1    ;  uncertainty k = 0.091561
        24         2         3        27     9      180.000000        0.470789         2    ;  uncertainty k = 0.308289
        24         2         3        27     9        0.000000        0.131775         3    ;  uncertainty k = 0.085279
        24         2         3        27     9      180.000000       -0.193176         4    ;  uncertainty k = 0.108041
        25         2         3        26     9        0.000000        0.061039         1    ;  uncertainty k = 0.091560
        25         2         3        26     9      180.000000        0.470787         2    ;  uncertainty k = 0.308289
        25         2         3        26     9        0.000000        0.131775         3    ;  uncertainty k = 0.085279
        25         2         3        26     9      180.000000       -0.193176         4    ;  uncertainty k = 0.108041
        25         2         3        27     9        0.000000        0.061039         1    ;  uncertainty k = 0.091560
        25         2         3        27     9      180.000000        0.470787         2    ;  uncertainty k = 0.308289
        25         2         3        27     9        0.000000        0.131775         3    ;  uncertainty k = 0.085279
        25         2         3        27     9      180.000000       -0.193176         4    ;  uncertainty k = 0.108041
        28         5         6        30     9        0.000000        0.061039         1    ;  uncertainty k = 0.091560
        28         5         6        30     9      180.000000        0.470787         2    ;  uncertainty k = 0.308289
        28         5         6        30     9        0.000000        0.131775         3    ;  uncertainty k = 0.085279
        28         5         6        30     9      180.000000       -0.193176         4    ;  uncertainty k = 0.108041
        28         5         6        31     9        0.000000        0.061039         1    ;  uncertainty k = 0.091560
        28         5         6        31     9      180.000000        0.470787         2    ;  uncertainty k = 0.308289
        28         5         6        31     9        0.000000        0.131775         3    ;  uncertainty k = 0.085279
        28         5         6        31     9      180.000000       -0.193176         4    ;  uncertainty k = 0.108041
        29         5         6        30     9        0.000000        0.061039         1    ;  uncertainty k = 0.091560
        29         5         6        30     9      180.000000        0.470787         2    ;  uncertainty k = 0.308289
        29         5         6        30     9        0.000000        0.131775         3    ;  uncertainty k = 0.085279
        29         5         6        30     9      180.000000       -0.193176         4    ;  uncertainty k = 0.108041
        29         5         6        31     9        0.000000        0.061039         1    ;  uncertainty k = 0.091560
        29         5         6        31     9      180.000000        0.470787         2    ;  uncertainty k = 0.308289
        29         5         6        31     9        0.000000        0.131775         3    ;  uncertainty k = 0.085279
        29         5         6        31     9      180.000000       -0.193176         4    ;  uncertainty k = 0.108041
        32        10        11        40     9        0.000000       -0.063231         1    ;  uncertainty k = 0.143919
        32        10        11        40     9      180.000000        7.894391         2    ;  uncertainty k = 0.469259
        32        10        11        40     9        0.000000       -0.422798         3    ;  uncertainty k = 0.255830
        32        10        11        40     9      180.000000        0.044530         4    ;  uncertainty k = 0.174749
        33        12        11        40     9        0.000000       -0.025737         1    ;  uncertainty k = 0.216295
        33        12        11        40     9      180.000000        7.946947         2    ;  uncertainty k = 0.428487
        33        12        11        40     9        0.000000       -0.407574         3    ;  uncertainty k = 0.245417
        33        12        11        40     9      180.000000        0.167857         4    ;  uncertainty k = 0.135379
        41        22        42        44     9        0.000000       -0.171116         1    ;  uncertainty k = 0.716748
        41        22        42        44     9      180.000000       -0.176389         2    ;  uncertainty k = 0.338681
        41        22        42        44     9        0.000000        0.622504         3    ;  uncertainty k = 0.088416
        41        22        42        44     9      180.000000        0.029644         4    ;  uncertainty k = 0.097179
        41        22        42        45     9        0.000000       -0.171116         1    ;  uncertainty k = 0.716748
        41        22        42        45     9      180.000000       -0.176389         2    ;  uncertainty k = 0.338681
        41        22        42        45     9        0.000000        0.622504         3    ;  uncertainty k = 0.088416
        41        22        42        45     9      180.000000        0.029644         4    ;  uncertainty k = 0.097179
        41        22        42        46     9        0.000000       -0.171116         1    ;  uncertainty k = 0.716748
        41        22        42        46     9      180.000000       -0.176389         2    ;  uncertainty k = 0.338681
        41        22        42        46     9        0.000000        0.622504         3    ;  uncertainty k = 0.088416
        41        22        42        46     9      180.000000        0.029644         4    ;  uncertainty k = 0.097179
        43        22        42        44     9        0.000000       -0.171116         1    ;  uncertainty k = 0.716748
        43        22        42        44     9      180.000000       -0.176389         2    ;  uncertainty k = 0.338681
        43        22        42        44     9        0.000000        0.622504         3    ;  uncertainty k = 0.088416
        43        22        42        44     9      180.000000        0.029644         4    ;  uncertainty k = 0.097179
        43        22        42        45     9        0.000000       -0.171116         1    ;  uncertainty k = 0.716748
        43        22        42        45     9      180.000000       -0.176389         2    ;  uncertainty k = 0.338681
        43        22        42        45     9        0.000000        0.622504         3    ;  uncertainty k = 0.088416
        43        22        42        45     9      180.000000        0.029644         4    ;  uncertainty k = 0.097179
        43        22        42        46     9        0.000000       -0.171116         1    ;  uncertainty k = 0.716748
        43        22        42        46     9      180.000000       -0.176389         2    ;  uncertainty k = 0.338681
        43        22        42        46     9        0.000000        0.622504         3    ;  uncertainty k = 0.088416
        43        22        42        46     9      180.000000        0.029644         4    ;  uncertainty k = 0.097179

[ dihedrals ] ; impropers
;       ai        aj        ak        al funct           phase               k        pn
         7         8        12        13     4      180.000000       14.389887         2    ;  uncertainty k = 0.054211
         7        12        13         8     4      180.000000       14.389887         2    ;  uncertainty k = 0.054211
         7        13         8        12     4      180.000000       14.389887         2    ;  uncertainty k = 0.054211
         8         7         9        20     4      180.000000       13.864435         2    ;  uncertainty k = 0.052310
         8         9        20         7     4      180.000000       13.864435         2    ;  uncertainty k = 0.052310
         8        20         7         9     4      180.000000       13.864435         2    ;  uncertainty k = 0.052310
         9         8        10        19     4      180.000000       13.291986         2    ;  uncertainty k = 0.070510
         9        10        19         8     4      180.000000       13.291986         2    ;  uncertainty k = 0.070510
         9        19         8        10     4      180.000000       13.291986         2    ;  uncertainty k = 0.070510
        10         9        11        32     4      180.000000        3.899337         2    ;  uncertainty k = 0.119505
        10        11        32         9     4      180.000000        3.899337         2    ;  uncertainty k = 0.119505
        10        32         9        11     4      180.000000        3.899337         2    ;  uncertainty k = 0.119505
        11        10        12        40     4      180.000000        4.055680         2    ;  uncertainty k = 0.065234
        11        12        40        10     4      180.000000        4.055680         2    ;  uncertainty k = 0.065234
        11        40        10        12     4      180.000000        4.055680         2    ;  uncertainty k = 0.065234
        12         7        11        33     4      180.000000        4.000194         2    ;  uncertainty k = 0.105935
        12        11        33         7     4      180.000000        4.000194         2    ;  uncertainty k = 0.105935
        12        33         7        11     4      180.000000        4.000194         2    ;  uncertainty k = 0.105935
        13         7        14        18     4      180.000000       17.254257         2    ;  uncertainty k = 0.100045
        13        14        18         7     4      180.000000       17.254257         2    ;  uncertainty k = 0.100045
        13        18         7        14     4      180.000000       17.254257         2    ;  uncertainty k = 0.100045
        15        14        16        34     4      180.000000        7.869147         2    ;  uncertainty k = 0.288351
        15        16        34        14     4      180.000000        7.869147         2    ;  uncertainty k = 0.288351
        15        34        14        16     4      180.000000        7.869147         2    ;  uncertainty k = 0.288351
        16         1        15        17     4      180.000000       31.858592         2    ;  uncertainty k = 0.071634
        16        15        17         1     4      180.000000       31.858592         2    ;  uncertainty k = 0.071634
        16        17         1        15     4      180.000000       31.858592         2    ;  uncertainty k = 0.071634
        18        13        17        21     4      180.000000       31.676986         2    ;  uncertainty k = 0.067609
        18        17        21        13     4      180.000000       31.676986         2    ;  uncertainty k = 0.067609
        18        21        13        17     4      180.000000       31.676986         2    ;  uncertainty k = 0.067609
        21        18        35        36     4      180.000000        0.701899         2    ;  uncertainty k = 1.010590
        21        35        36        18     4      180.000000        0.701899         2    ;  uncertainty k = 1.010590
        21        36        18        35     4      180.000000        0.701899         2    ;  uncertainty k = 1.010590

[ pairs ]
;       ai        aj funct
         1         4     1
         1        14     1
         1        18     1
         1        26     1
         1        27     1
         1        28     1
         1        29     1
         1        34     1
         2         5     1
         2        15     1
         2        17     1
         2        22     1
         2        23     1
         2        30     1
         2        31     1
         3         6     1
         3        16     1
         3        28     1
         3        29     1
         3        37     1
         3        38     1
         3        39     1
         3        41     1
         3        42     1
         3        43     1
         4        24     1
         4        25     1
         4        30     1
         4        31     1
         4        44     1
         4        45     1
         4        46     1
         5        16     1
         5        26     1
         5        27     1
         5        37     1
         5        38     1
         5        39     1
         5        41     1
         5        42     1
         5        43     1
         6        15     1
         6        17     1
         6        22     1
         6        23     1
         6        24     1
         6        25     1
         7        10     1
         7        15     1
         7        17     1
         7        19     1
         7        21     1
         7        40     1
         8        11     1
         8        14     1
         8        18     1
         8        32     1
         8        33     1
         9        12     1
         9        13     1
         9        40     1
        10        20     1
        10        33     1
        11        13     1
        11        19     1
        12        14     1
        12        18     1
        12        20     1
        12        32     1
        13        16     1
        13        20     1
        13        33     1
        13        34     1
        13        35     1
        13        36     1
        14        17     1
        14        21     1
        15        18     1
        16        21     1
        16        24     1
        16        25     1
        16        30     1
        16        31     1
        17        34     1
        17        35     1
        17        36     1
        19        20     1
        19        32     1
        22        26     1
        22        27     1
        22        28     1
        22        29     1
        22        37     1
        22        38     1
        22        39     1
        23        26     1
        23        27     1
        23        28     1
        23        29     1
        23        41     1
        23        42     1
        23        43     1
        24        26     1
        24        27     1
        25        26     1
        25        27     1
        28        30     1
        28        31     1
        29        30     1
        29        31     1
        32        40     1
        33        40     1
        41        44     1
        41        45     1
        41        46     1
        43        44     1
        43        45     1
        43        46     1
