; ITP file created by ByteFF-joint-25, 2026-02-17 09:34:53.952236

[ atomtypes ]
;name           bonded.type        at.num        mass        charge   ptype           sigma         epsilon
 n0bf                                   7      0.0000       0.00000       A     3.19056e-01     8.98839e-01    ;  uncertainty sigma = 0.000037, epsilon = 0.003515
 c1bf                                   6      0.0000       0.00000       A     3.39780e-01     4.50250e-01    ;  uncertainty sigma = 0.000020, epsilon = 0.001131
 c2bf                                   6      0.0000       0.00000       A     3.39771e-01     4.51072e-01    ;  uncertainty sigma = 0.000022, epsilon = 0.000654
 c3bf                                   6      0.0000       0.00000       A     3.39788e-01     4.49780e-01    ;  uncertainty sigma = 0.000038, epsilon = 0.001520
 c4bf                                   6      0.0000       0.00000       A     3.39771e-01     4.51072e-01    ;  uncertainty sigma = 0.000022, epsilon = 0.000654
 c5bf                                   6      0.0000       0.00000       A     3.39780e-01     4.50250e-01    ;  uncertainty sigma = 0.000020, epsilon = 0.001131
 c6bf                                   6      0.0000       0.00000       A     3.31538e-01     4.13503e-01    ;  uncertainty sigma = 0.000013, epsilon = 0.001231
 c7bf                                   6      0.0000       0.00000       A     3.31519e-01     4.13555e-01    ;  uncertainty sigma = 0.000009, epsilon = 0.000753
 c8bf                                   6      0.0000       0.00000       A     3.31517e-01     4.13418e-01    ;  uncertainty sigma = 0.000007, epsilon = 0.000490
 c9bf                                   6      0.0000       0.00000       A     3.31517e-01     4.13339e-01    ;  uncertainty sigma = 0.000004, epsilon = 0.000628
 c10bf                                  6      0.0000       0.00000       A     3.31515e-01     4.13294e-01    ;  uncertainty sigma = 0.000004, epsilon = 0.000592
 c11bf                                  6      0.0000       0.00000       A     3.31516e-01     4.13389e-01    ;  uncertainty sigma = 0.000004, epsilon = 0.000720
 c12bf                                  6      0.0000       0.00000       A     3.31496e-01     4.12956e-01    ;  uncertainty sigma = 0.000017, epsilon = 0.001220
 n13bf                                  7      0.0000       0.00000       A     3.38446e-01     3.93682e-01    ;  uncertainty sigma = 0.000026, epsilon = 0.001040
 n14bf                                  7      0.0000       0.00000       A     3.38431e-01     3.93666e-01    ;  uncertainty sigma = 0.000023, epsilon = 0.002078
 c15bf                                  6      0.0000       0.00000       A     3.31542e-01     4.13900e-01    ;  uncertainty sigma = 0.000031, epsilon = 0.001365
 n16bf                                  7      0.0000       0.00000       A     3.38450e-01     3.94131e-01    ;  uncertainty sigma = 0.000022, epsilon = 0.001235
 c17bf                                  6      0.0000       0.00000       A     3.31503e-01     4.12702e-01    ;  uncertainty sigma = 0.000023, epsilon = 0.001596
 cl18bf                                17      0.0000       0.00000       A     3.46639e-01     1.10469e+00    ;  uncertainty sigma = 0.000020, epsilon = 0.001458
 cl19bf                                17      0.0000       0.00000       A     3.46596e-01     1.10464e+00    ;  uncertainty sigma = 0.000016, epsilon = 0.003016
 n20bf                                  7      0.0000       0.00000       A     3.36881e-01     4.67045e-01    ;  uncertainty sigma = 0.000054, epsilon = 0.004330
 n21bf                                  7      0.0000       0.00000       A     2.77101e-01     4.77733e+00    ;  uncertainty sigma = 0.000102, epsilon = 0.025603
 c22bf                                  6      0.0000       0.00000       A     3.39744e-01     4.51058e-01    ;  uncertainty sigma = 0.000018, epsilon = 0.000674
 h23bf                                  1      0.0000       0.00000       A     2.42224e-01     8.69291e-02    ;  uncertainty sigma = 0.000024, epsilon = 0.000777
 h24bf                                  1      0.0000       0.00000       A     2.42224e-01     8.69291e-02    ;  uncertainty sigma = 0.000024, epsilon = 0.000777
 h25bf                                  1      0.0000       0.00000       A     2.60047e-01     8.66235e-02    ;  uncertainty sigma = 0.000026, epsilon = 0.001019
 h26bf                                  1      0.0000       0.00000       A     2.60047e-01     8.66235e-02    ;  uncertainty sigma = 0.000026, epsilon = 0.001019
 h27bf                                  1      0.0000       0.00000       A     2.60047e-01     8.66235e-02    ;  uncertainty sigma = 0.000026, epsilon = 0.001019
 h28bf                                  1      0.0000       0.00000       A     2.60047e-01     8.66235e-02    ;  uncertainty sigma = 0.000026, epsilon = 0.001019
 h29bf                                  1      0.0000       0.00000       A     2.42224e-01     8.69291e-02    ;  uncertainty sigma = 0.000024, epsilon = 0.000777
 h30bf                                  1      0.0000       0.00000       A     2.42224e-01     8.69291e-02    ;  uncertainty sigma = 0.000024, epsilon = 0.000777
 h31bf                                  1      0.0000       0.00000       A     2.62556e-01     6.70339e-02    ;  uncertainty sigma = 0.000007, epsilon = 0.000600
 h32bf                                  1      0.0000       0.00000       A     2.62568e-01     6.69665e-02    ;  uncertainty sigma = 0.000007, epsilon = 0.000468
 h33bf                                  1      0.0000       0.00000       A     2.62563e-01     6.70979e-02    ;  uncertainty sigma = 0.000011, epsilon = 0.000540
 h34bf                                  1      0.0000       0.00000       A     1.10722e-01     4.12462e-02    ;  uncertainty sigma = 0.000082, epsilon = 0.000527
 h35bf                                  1      0.0000       0.00000       A     1.10722e-01     4.12462e-02    ;  uncertainty sigma = 0.000082, epsilon = 0.000527
 h36bf                                  1      0.0000       0.00000       A     1.10744e-01     4.05584e-02    ;  uncertainty sigma = 0.000197, epsilon = 0.001139
 h37bf                                  1      0.0000       0.00000       A     2.60029e-01     8.68919e-02    ;  uncertainty sigma = 0.000018, epsilon = 0.000792
 h38bf                                  1      0.0000       0.00000       A     2.60029e-01     8.68919e-02    ;  uncertainty sigma = 0.000018, epsilon = 0.000792
 h39bf                                  1      0.0000       0.00000       A     2.60029e-01     8.68919e-02    ;  uncertainty sigma = 0.000018, epsilon = 0.000792
 h40bf                                  1      0.0000       0.00000       A     1.10744e-01     4.05584e-02    ;  uncertainty sigma = 0.000197, epsilon = 0.001139
 h41bf                                  1      0.0000       0.00000       A     1.10744e-01     4.05584e-02    ;  uncertainty sigma = 0.000197, epsilon = 0.001139

[ moleculetype ]
;name             nrexcl
 MOL                   3

[ atoms ]
;       nr            type      resi   res      atom      cgnr      charge          mass ; qtot
         1            n0bf         1   UNL        n0         1    -0.77504       14.0070 ; qtot   -0.775
         2            c1bf         1   UNL        c1         2     0.23248       12.0110 ; qtot   -0.543
         3            c2bf         1   UNL        c2         3    -0.11937       12.0110 ; qtot   -0.662
         4            c3bf         1   UNL        c3         4     0.18766       12.0110 ; qtot   -0.474
         5            c4bf         1   UNL        c4         5    -0.11937       12.0110 ; qtot   -0.594
         6            c5bf         1   UNL        c5         6     0.23248       12.0110 ; qtot   -0.361
         7            c6bf         1   UNL        c6         7    -0.10915       12.0110 ; qtot   -0.470
         8            c7bf         1   UNL        c7         8     0.05237       12.0110 ; qtot   -0.418
         9            c8bf         1   UNL        c8         9     0.02531       12.0110 ; qtot   -0.393
        10            c9bf         1   UNL        c9        10    -0.10171       12.0110 ; qtot   -0.494
        11           c10bf         1   UNL       c10        11    -0.11987       12.0110 ; qtot   -0.614
        12           c11bf         1   UNL       c11        12    -0.09864       12.0110 ; qtot   -0.713
        13           c12bf         1   UNL       c12        13     0.18699       12.0110 ; qtot   -0.526
        14           n13bf         1   UNL       n13        14    -0.21695       14.0070 ; qtot   -0.743
        15           n14bf         1   UNL       n14        15    -0.44757       14.0070 ; qtot   -1.190
        16           c15bf         1   UNL       c15        16     0.87515       12.0110 ; qtot   -0.315
        17           n16bf         1   UNL       n16        17    -0.82653       14.0070 ; qtot   -1.142
        18           c17bf         1   UNL       c17        18     0.62852       12.0110 ; qtot   -0.513
        19          cl18bf         1   UNL      cl18        19    -0.08348       35.4530 ; qtot   -0.597
        20          cl19bf         1   UNL      cl19        20    -0.07625       35.4530 ; qtot   -0.673
        21           n20bf         1   UNL       n20        21    -0.91810       14.0070 ; qtot   -1.591
        22           n21bf         1   UNL       n21        22    -0.86673       14.0070 ; qtot   -2.458
        23           c22bf         1   UNL       c22        23    -0.13034       12.0110 ; qtot   -2.588
        24           h23bf         1   UNL       h23        24     0.07821        1.0080 ; qtot   -2.510
        25           h24bf         1   UNL       h24        25     0.07821        1.0080 ; qtot   -2.432
        26           h25bf         1   UNL       h25        26     0.08339        1.0080 ; qtot   -2.348
        27           h26bf         1   UNL       h26        27     0.08339        1.0080 ; qtot   -2.265
        28           h27bf         1   UNL       h27        28     0.08339        1.0080 ; qtot   -2.182
        29           h28bf         1   UNL       h28        29     0.08339        1.0080 ; qtot   -2.098
        30           h29bf         1   UNL       h29        30     0.07821        1.0080 ; qtot   -2.020
        31           h30bf         1   UNL       h30        31     0.07821        1.0080 ; qtot   -1.942
        32           h31bf         1   UNL       h31        32     0.15499        1.0080 ; qtot   -1.787
        33           h32bf         1   UNL       h32        33     0.14497        1.0080 ; qtot   -1.642
        34           h33bf         1   UNL       h33        34     0.15154        1.0080 ; qtot   -1.490
        35           h34bf         1   UNL       h34        35     0.43214        1.0080 ; qtot   -1.058
        36           h35bf         1   UNL       h35        36     0.43214        1.0080 ; qtot   -0.626
        37           h36bf         1   UNL       h36        37     0.46464        1.0080 ; qtot   -0.161
        38           h37bf         1   UNL       h37        38     0.07734        1.0080 ; qtot   -0.084
        39           h38bf         1   UNL       h38        39     0.07734        1.0080 ; qtot   -0.007
        40           h39bf         1   UNL       h39        40     0.07734        1.0080 ; qtot    0.071
        41           h40bf         1   UNL       h40        41     0.46464        1.0080 ; qtot    0.535
        42           h41bf         1   UNL       h41        42     0.46466        1.0080 ; qtot    1.000

[ bonds ]
;       ai        aj funct               r               k
         1         2     1        0.145090   250055.748730    ;  uncertainty r = 0.000153, k = 9.838232
         1         6     1        0.145090   250055.748730    ;  uncertainty r = 0.000153, k = 9.838232
         1        16     1        0.137341   298654.297949    ;  uncertainty r = 0.000441, k = 11.845787
         2         3     1        0.153991   207814.126611    ;  uncertainty r = 0.000224, k = 14.400070
         2        24     1        0.109447   306927.631885    ;  uncertainty r = 0.000046, k = 1.153099
         2        25     1        0.109447   306927.631885    ;  uncertainty r = 0.000046, k = 1.153099
         3         4     1        0.153723   202820.651318    ;  uncertainty r = 0.000184, k = 7.066036
         3        26     1        0.109581   310499.532910    ;  uncertainty r = 0.000037, k = 1.905368
         3        27     1        0.109581   310499.532910    ;  uncertainty r = 0.000037, k = 1.905368
         4         5     1        0.153723   202820.651318    ;  uncertainty r = 0.000184, k = 7.066036
         4        22     1        0.155122   197292.186353    ;  uncertainty r = 0.000211, k = 49.108522
         4        23     1        0.152893   210290.460107    ;  uncertainty r = 0.000125, k = 13.841219
         5         6     1        0.153991   207814.126611    ;  uncertainty r = 0.000224, k = 14.400070
         5        28     1        0.109581   310499.532910    ;  uncertainty r = 0.000037, k = 1.905368
         5        29     1        0.109581   310499.532910    ;  uncertainty r = 0.000037, k = 1.905368
         6        30     1        0.109447   306927.631885    ;  uncertainty r = 0.000046, k = 1.153099
         6        31     1        0.109447   306927.631885    ;  uncertainty r = 0.000046, k = 1.153099
         7         8     1        0.140165   324674.926953    ;  uncertainty r = 0.000097, k = 5.908969
         7        12     1        0.139964   347459.493457    ;  uncertainty r = 0.000052, k = 2.643244
         7        13     1        0.148359   284830.958496    ;  uncertainty r = 0.000108, k = 12.981885
         8         9     1        0.140098   338052.694922    ;  uncertainty r = 0.000058, k = 1.274175
         8        20     1        0.174166   186579.969092    ;  uncertainty r = 0.000071, k = 4.086769
         9        10     1        0.139432   364703.094580    ;  uncertainty r = 0.000027, k = 3.877521
         9        19     1        0.174626   190975.416357    ;  uncertainty r = 0.000065, k = 1.953772
        10        11     1        0.139275   380193.470996    ;  uncertainty r = 0.000019, k = 0.375568
        10        32     1        0.108658   335617.322949    ;  uncertainty r = 0.000011, k = 0.544911
        11        12     1        0.139223   370866.322705    ;  uncertainty r = 0.000030, k = 1.073088
        11        33     1        0.108744   332681.040576    ;  uncertainty r = 0.000006, k = 1.317305
        12        34     1        0.108655   332704.407031    ;  uncertainty r = 0.000017, k = 0.857390
        13        14     1        0.132691   324599.745703    ;  uncertainty r = 0.000071, k = 56.150511
        13        18     1        0.140837   359391.963184    ;  uncertainty r = 0.000360, k = 29.988338
        14        15     1        0.130752   340818.134033    ;  uncertainty r = 0.000188, k = 55.614126
        15        16     1        0.134727   341415.166113    ;  uncertainty r = 0.000198, k = 38.774603
        16        17     1        0.136226   403238.873535    ;  uncertainty r = 0.000138, k = 25.001075
        17        18     1        0.135553   533463.421973    ;  uncertainty r = 0.000167, k = 17.848591
        18        21     1        0.140620   498502.404199    ;  uncertainty r = 0.000566, k = 43.752837
        21        35     1        0.101821   424146.922168    ;  uncertainty r = 0.000062, k = 2.244630
        21        36     1        0.101821   424146.922168    ;  uncertainty r = 0.000062, k = 2.244630
        22        37     1        0.102893   408930.686621    ;  uncertainty r = 0.000060, k = 6.495046
        22        41     1        0.102893   408930.686621    ;  uncertainty r = 0.000060, k = 6.495046
        22        42     1        0.102893   408930.686621    ;  uncertainty r = 0.000060, k = 6.495046
        23        38     1        0.109485   313302.332813    ;  uncertainty r = 0.000023, k = 3.037366
        23        39     1        0.109485   313302.332813    ;  uncertainty r = 0.000023, k = 3.037366
        23        40     1        0.109485   313302.332813    ;  uncertainty r = 0.000023, k = 3.037366

[ angles ]
;       ai        aj        ak funct           theta             cth
         1         2         3     1      109.374588      696.420850    ;  uncertainty theta = 0.000844, k = 0.172625
         1         2        24     1      106.470840      460.368292    ;  uncertainty theta = 0.001225, k = 0.062312
         1         2        25     1      106.470840      460.368292    ;  uncertainty theta = 0.001225, k = 0.062312
         1         6         5     1      109.374588      696.420850    ;  uncertainty theta = 0.000844, k = 0.172625
         1         6        30     1      106.470840      460.368292    ;  uncertainty theta = 0.001225, k = 0.062312
         1         6        31     1      106.470840      460.368292    ;  uncertainty theta = 0.001225, k = 0.062312
         1        16        15     1      116.488441      520.090749    ;  uncertainty theta = 0.008540, k = 0.213962
         1        16        17     1      120.750450      580.802545    ;  uncertainty theta = 0.006257, k = 0.298534
         2         1         6     1      107.811913      417.734599    ;  uncertainty theta = 0.017062, k = 0.129902
         2         1        16     1      110.391495      430.208359    ;  uncertainty theta = 0.006702, k = 0.091642
         2         3         4     1      110.257973      545.853670    ;  uncertainty theta = 0.003053, k = 0.103228
         2         3        26     1      108.178383      399.608071    ;  uncertainty theta = 0.001613, k = 0.127489
         2         3        27     1      108.178383      399.608071    ;  uncertainty theta = 0.001613, k = 0.127489
         3         2        24     1      108.873802      414.515870    ;  uncertainty theta = 0.003605, k = 0.108526
         3         2        25     1      108.873802      414.515870    ;  uncertainty theta = 0.003605, k = 0.108526
         3         4         5     1      110.758156      579.433309    ;  uncertainty theta = 0.006554, k = 0.204301
         3         4        22     1      107.278976      685.372092    ;  uncertainty theta = 0.005309, k = 0.324780
         3         4        23     1      111.951096      573.556198    ;  uncertainty theta = 0.003615, k = 0.042900
         4         3        26     1      107.188622      391.727607    ;  uncertainty theta = 0.002259, k = 0.172799
         4         3        27     1      107.188622      391.727607    ;  uncertainty theta = 0.002259, k = 0.172799
         4         5         6     1      110.257973      545.853670    ;  uncertainty theta = 0.003053, k = 0.103228
         4         5        28     1      107.188622      391.727607    ;  uncertainty theta = 0.002259, k = 0.172799
         4         5        29     1      107.188622      391.727607    ;  uncertainty theta = 0.002259, k = 0.172799
         4        22        37     1      110.464333      409.034616    ;  uncertainty theta = 0.003988, k = 0.162351
         4        22        41     1      110.464333      409.034616    ;  uncertainty theta = 0.003988, k = 0.162351
         4        22        42     1      110.464333      409.034616    ;  uncertainty theta = 0.003988, k = 0.162351
         4        23        38     1      107.456223      389.152796    ;  uncertainty theta = 0.000505, k = 0.034812
         4        23        39     1      107.456223      389.152796    ;  uncertainty theta = 0.000505, k = 0.034812
         4        23        40     1      107.456223      389.152796    ;  uncertainty theta = 0.000505, k = 0.034812
         5         4        22     1      107.278976      685.372092    ;  uncertainty theta = 0.005309, k = 0.324780
         5         4        23     1      111.951096      573.556198    ;  uncertainty theta = 0.003615, k = 0.042900
         5         6        30     1      108.873802      414.515870    ;  uncertainty theta = 0.003605, k = 0.108526
         5         6        31     1      108.873802      414.515870    ;  uncertainty theta = 0.003605, k = 0.108526
         6         1        16     1      110.391495      430.208359    ;  uncertainty theta = 0.006702, k = 0.091642
         6         5        28     1      108.178383      399.608071    ;  uncertainty theta = 0.001613, k = 0.127489
         6         5        29     1      108.178383      399.608071    ;  uncertainty theta = 0.001613, k = 0.127489
         7         8         9     1      123.899414      374.158299    ;  uncertainty theta = 0.005194, k = 0.138520
         7         8        20     1      117.522141      417.066324    ;  uncertainty theta = 0.003481, k = 0.063310
         7        12        11     1      121.119034      521.027769    ;  uncertainty theta = 0.002873, k = 0.050580
         7        12        34     1      118.186668      273.141155    ;  uncertainty theta = 0.003386, k = 0.046086
         7        13        14     1      116.845558      433.396667    ;  uncertainty theta = 0.010031, k = 0.278375
         7        13        18     1      121.363785      323.050626    ;  uncertainty theta = 0.006384, k = 0.401537
         8         7        12     1      121.985413      407.076878    ;  uncertainty theta = 0.004729, k = 0.142257
         8         7        13     1      120.207321      369.981226    ;  uncertainty theta = 0.003755, k = 0.083084
         8         9        10     1      121.546188      354.280851    ;  uncertainty theta = 0.004148, k = 0.154357
         8         9        19     1      120.569069      449.852430    ;  uncertainty theta = 0.001680, k = 0.085278
         9         8        20     1      120.168167      453.530827    ;  uncertainty theta = 0.002888, k = 0.108407
         9        10        11     1      118.521408      504.243759    ;  uncertainty theta = 0.003727, k = 0.077042
         9        10        32     1      119.895508      282.330875    ;  uncertainty theta = 0.002549, k = 0.077648
        10         9        19     1      120.234840      454.908777    ;  uncertainty theta = 0.002092, k = 0.126480
        10        11        12     1      119.336014      507.498911    ;  uncertainty theta = 0.002581, k = 0.046638
        10        11        33     1      120.122826      285.662543    ;  uncertainty theta = 0.000443, k = 0.032129
        11        10        32     1      121.361893      281.867473    ;  uncertainty theta = 0.001546, k = 0.022762
        11        12        34     1      120.758400      291.542207    ;  uncertainty theta = 0.001645, k = 0.044853
        12         7        13     1      121.218826      406.233930    ;  uncertainty theta = 0.004054, k = 0.210116
        12        11        33     1      120.347130      284.160609    ;  uncertainty theta = 0.001325, k = 0.024858
        13        14        15     1      120.898560      661.245716    ;  uncertainty theta = 0.005503, k = 0.280171
        13        18        17     1      118.779358      486.701648    ;  uncertainty theta = 0.011829, k = 0.221837
        13        18        21     1      122.886559      455.384821    ;  uncertainty theta = 0.007462, k = 0.373291
        14        13        18     1      119.629562      495.112647    ;  uncertainty theta = 0.008267, k = 0.190671
        14        15        16     1      113.421326      572.322692    ;  uncertainty theta = 0.002437, k = 0.304468
        15        16        17     1      127.310020      636.783528    ;  uncertainty theta = 0.004747, k = 0.246187
        16        17        18     1      119.351303      463.045188    ;  uncertainty theta = 0.007231, k = 0.394403
        17        18        21     1      126.975304      878.056222    ;  uncertainty theta = 0.006336, k = 0.093495
        18        21        35     1      117.720482      400.447572    ;  uncertainty theta = 0.004002, k = 0.111060
        18        21        36     1      117.720482      400.447572    ;  uncertainty theta = 0.004002, k = 0.111060
        22         4        23     1      107.732376      711.715791    ;  uncertainty theta = 0.003143, k = 0.202828
        24         2        25     1      105.669823      324.170014    ;  uncertainty theta = 0.003059, k = 0.032200
        26         3        27     1      106.079811      314.629541    ;  uncertainty theta = 0.002798, k = 0.097750
        28         5        29     1      106.079811      314.629541    ;  uncertainty theta = 0.002798, k = 0.097750
        30         6        31     1      105.669823      324.170014    ;  uncertainty theta = 0.003059, k = 0.032200
        35        21        36     1      108.361122      274.765092    ;  uncertainty theta = 0.001428, k = 0.058107
        37        22        41     1      108.017105      374.242252    ;  uncertainty theta = 0.003302, k = 0.129446
        37        22        42     1      108.017105      374.242252    ;  uncertainty theta = 0.003302, k = 0.129446
        38        23        39     1      105.936523      319.817118    ;  uncertainty theta = 0.000605, k = 0.051303
        38        23        40     1      105.936523      319.817118    ;  uncertainty theta = 0.000605, k = 0.051303
        39        23        40     1      105.936523      319.817118    ;  uncertainty theta = 0.000605, k = 0.051303
        41        22        42     1      108.017105      374.242252    ;  uncertainty theta = 0.003302, k = 0.129446

[ dihedrals ] ; propers for gromacs 4.5 or higher, use funct 9
;       ai        aj        ak        al funct           phase               k        pn
         1         2         3         4     9        0.000000        3.531778         1    ;  uncertainty k = 2.687596
         1         2         3         4     9      180.000000       -4.529921         2    ;  uncertainty k = 0.860132
         1         2         3         4     9        0.000000        1.965504         3    ;  uncertainty k = 0.289238
         1         2         3         4     9      180.000000       -0.430179         4    ;  uncertainty k = 0.267585
         1         2         3        26     9        0.000000       -1.904941         1    ;  uncertainty k = 1.095356
         1         2         3        26     9      180.000000        0.296650         2    ;  uncertainty k = 0.439321
         1         2         3        26     9        0.000000        1.295649         3    ;  uncertainty k = 0.337222
         1         2         3        26     9      180.000000       -0.258362         4    ;  uncertainty k = 0.084788
         1         2         3        27     9        0.000000       -1.904941         1    ;  uncertainty k = 1.095356
         1         2         3        27     9      180.000000        0.296650         2    ;  uncertainty k = 0.439321
         1         2         3        27     9        0.000000        1.295649         3    ;  uncertainty k = 0.337222
         1         2         3        27     9      180.000000       -0.258362         4    ;  uncertainty k = 0.084788
         1         6         5         4     9        0.000000        3.531778         1    ;  uncertainty k = 2.687596
         1         6         5         4     9      180.000000       -4.529921         2    ;  uncertainty k = 0.860132
         1         6         5         4     9        0.000000        1.965504         3    ;  uncertainty k = 0.289238
         1         6         5         4     9      180.000000       -0.430179         4    ;  uncertainty k = 0.267585
         1         6         5        28     9        0.000000       -1.904941         1    ;  uncertainty k = 1.095356
         1         6         5        28     9      180.000000        0.296650         2    ;  uncertainty k = 0.439321
         1         6         5        28     9        0.000000        1.295649         3    ;  uncertainty k = 0.337222
         1         6         5        28     9      180.000000       -0.258362         4    ;  uncertainty k = 0.084788
         1         6         5        29     9        0.000000       -1.904941         1    ;  uncertainty k = 1.095356
         1         6         5        29     9      180.000000        0.296650         2    ;  uncertainty k = 0.439321
         1         6         5        29     9        0.000000        1.295649         3    ;  uncertainty k = 0.337222
         1         6         5        29     9      180.000000       -0.258362         4    ;  uncertainty k = 0.084788
         1        16        15        14     9        0.000000        2.403486         1    ;  uncertainty k = 2.303616
         1        16        15        14     9      180.000000        9.271021         2    ;  uncertainty k = 0.954022
         1        16        15        14     9        0.000000        1.853544         3    ;  uncertainty k = 0.618570
         1        16        15        14     9      180.000000        0.601853         4    ;  uncertainty k = 0.577791
         1        16        17        18     9        0.000000        1.184947         1    ;  uncertainty k = 1.011108
         1        16        17        18     9      180.000000        9.360942         2    ;  uncertainty k = 0.459930
         1        16        17        18     9        0.000000        1.575487         3    ;  uncertainty k = 0.471988
         1        16        17        18     9      180.000000        0.673305         4    ;  uncertainty k = 0.225622
         2         1         6         5     9        0.000000       -6.454003         1    ;  uncertainty k = 2.289016
         2         1         6         5     9      180.000000        1.529481         2    ;  uncertainty k = 0.865559
         2         1         6         5     9        0.000000        1.183509         3    ;  uncertainty k = 0.305157
         2         1         6         5     9      180.000000       -0.475136         4    ;  uncertainty k = 0.214168
         2         1         6        30     9        0.000000       -5.987189         1    ;  uncertainty k = 1.935923
         2         1         6        30     9      180.000000        0.905936         2    ;  uncertainty k = 0.503079
         2         1         6        30     9        0.000000        0.785624         3    ;  uncertainty k = 0.034928
         2         1         6        30     9      180.000000       -0.061541         4    ;  uncertainty k = 0.064915
         2         1         6        31     9        0.000000       -5.987189         1    ;  uncertainty k = 1.935923
         2         1         6        31     9      180.000000        0.905936         2    ;  uncertainty k = 0.503079
         2         1         6        31     9        0.000000        0.785624         3    ;  uncertainty k = 0.034928
         2         1         6        31     9      180.000000       -0.061541         4    ;  uncertainty k = 0.064915
         2         1        16        15     9        0.000000        2.828178         1    ;  uncertainty k = 1.191833
         2         1        16        15     9      180.000000       10.219532         2    ;  uncertainty k = 0.155566
         2         1        16        15     9        0.000000        0.450305         3    ;  uncertainty k = 0.243781
         2         1        16        15     9      180.000000       -0.068766         4    ;  uncertainty k = 0.181706
         2         1        16        17     9        0.000000        6.827488         1    ;  uncertainty k = 0.836958
         2         1        16        17     9      180.000000       11.210709         2    ;  uncertainty k = 0.146500
         2         1        16        17     9        0.000000        0.563672         3    ;  uncertainty k = 0.139460
         2         1        16        17     9      180.000000       -0.209208         4    ;  uncertainty k = 0.132630
         2         3         4         5     9        0.000000       -1.979287         1    ;  uncertainty k = 1.890118
         2         3         4         5     9      180.000000        0.457124         2    ;  uncertainty k = 0.605312
         2         3         4         5     9        0.000000        0.635127         3    ;  uncertainty k = 0.423182
         2         3         4         5     9      180.000000       -1.000812         4    ;  uncertainty k = 0.202554
         2         3         4        22     9        0.000000       -4.979276         1    ;  uncertainty k = 1.430563
         2         3         4        22     9      180.000000       -1.294579         2    ;  uncertainty k = 1.595729
         2         3         4        22     9        0.000000        1.038912         3    ;  uncertainty k = 0.329766
         2         3         4        22     9      180.000000        0.206208         4    ;  uncertainty k = 0.143367
         2         3         4        23     9        0.000000       -4.847231         1    ;  uncertainty k = 0.950051
         2         3         4        23     9      180.000000        1.249245         2    ;  uncertainty k = 0.483612
         2         3         4        23     9        0.000000        0.497573         3    ;  uncertainty k = 0.325464
         2         3         4        23     9      180.000000       -0.188686         4    ;  uncertainty k = 0.106191
         3         2         1         6     9        0.000000       -6.454003         1    ;  uncertainty k = 2.289016
         3         2         1         6     9      180.000000        1.529481         2    ;  uncertainty k = 0.865559
         3         2         1         6     9        0.000000        1.183509         3    ;  uncertainty k = 0.305157
         3         2         1         6     9      180.000000       -0.475136         4    ;  uncertainty k = 0.214168
         3         2         1        16     9        0.000000       -3.701883         1    ;  uncertainty k = 0.672918
         3         2         1        16     9      180.000000        0.947959         2    ;  uncertainty k = 0.506593
         3         2         1        16     9        0.000000        0.024515         3    ;  uncertainty k = 0.249213
         3         2         1        16     9      180.000000        0.244232         4    ;  uncertainty k = 0.167296
         3         4         5         6     9        0.000000       -1.979287         1    ;  uncertainty k = 1.890118
         3         4         5         6     9      180.000000        0.457124         2    ;  uncertainty k = 0.605312
         3         4         5         6     9        0.000000        0.635127         3    ;  uncertainty k = 0.423182
         3         4         5         6     9      180.000000       -1.000812         4    ;  uncertainty k = 0.202554
         3         4         5        28     9        0.000000       -1.041765         1    ;  uncertainty k = 0.265447
         3         4         5        28     9      180.000000       -0.356594         2    ;  uncertainty k = 0.191548
         3         4         5        28     9        0.000000       -0.007680         3    ;  uncertainty k = 0.093809
         3         4         5        28     9      180.000000       -0.100570         4    ;  uncertainty k = 0.058705
         3         4         5        29     9        0.000000       -1.041765         1    ;  uncertainty k = 0.265447
         3         4         5        29     9      180.000000       -0.356594         2    ;  uncertainty k = 0.191548
         3         4         5        29     9        0.000000       -0.007680         3    ;  uncertainty k = 0.093809
         3         4         5        29     9      180.000000       -0.100570         4    ;  uncertainty k = 0.058705
         3         4        22        37     9        0.000000       -0.378618         1    ;  uncertainty k = 1.202868
         3         4        22        37     9      180.000000       -0.218968         2    ;  uncertainty k = 0.263352
         3         4        22        37     9        0.000000        0.752335         3    ;  uncertainty k = 0.133799
         3         4        22        37     9      180.000000       -0.117476         4    ;  uncertainty k = 0.099713
         3         4        22        41     9        0.000000       -0.378618         1    ;  uncertainty k = 1.202868
         3         4        22        41     9      180.000000       -0.218968         2    ;  uncertainty k = 0.263352
         3         4        22        41     9        0.000000        0.752335         3    ;  uncertainty k = 0.133799
         3         4        22        41     9      180.000000       -0.117476         4    ;  uncertainty k = 0.099713
         3         4        22        42     9        0.000000       -0.378618         1    ;  uncertainty k = 1.202868
         3         4        22        42     9      180.000000       -0.218968         2    ;  uncertainty k = 0.263352
         3         4        22        42     9        0.000000        0.752335         3    ;  uncertainty k = 0.133799
         3         4        22        42     9      180.000000       -0.117476         4    ;  uncertainty k = 0.099713
         3         4        23        38     9        0.000000       -0.914078         1    ;  uncertainty k = 0.356128
         3         4        23        38     9      180.000000       -0.481015         2    ;  uncertainty k = 0.207164
         3         4        23        38     9        0.000000        0.542170         3    ;  uncertainty k = 0.077000
         3         4        23        38     9      180.000000       -0.146042         4    ;  uncertainty k = 0.059767
         3         4        23        39     9        0.000000       -0.914078         1    ;  uncertainty k = 0.356128
         3         4        23        39     9      180.000000       -0.481015         2    ;  uncertainty k = 0.207164
         3         4        23        39     9        0.000000        0.542170         3    ;  uncertainty k = 0.077000
         3         4        23        39     9      180.000000       -0.146042         4    ;  uncertainty k = 0.059767
         3         4        23        40     9        0.000000       -0.914078         1    ;  uncertainty k = 0.356128
         3         4        23        40     9      180.000000       -0.481015         2    ;  uncertainty k = 0.207164
         3         4        23        40     9        0.000000        0.542170         3    ;  uncertainty k = 0.077000
         3         4        23        40     9      180.000000       -0.146042         4    ;  uncertainty k = 0.059767
         4         3         2        24     9        0.000000        2.805003         1    ;  uncertainty k = 1.351006
         4         3         2        24     9      180.000000       -2.635452         2    ;  uncertainty k = 0.203061
         4         3         2        24     9        0.000000        0.069758         3    ;  uncertainty k = 0.132516
         4         3         2        24     9      180.000000        0.233589         4    ;  uncertainty k = 0.065484
         4         3         2        25     9        0.000000        2.805003         1    ;  uncertainty k = 1.351006
         4         3         2        25     9      180.000000       -2.635452         2    ;  uncertainty k = 0.203061
         4         3         2        25     9        0.000000        0.069758         3    ;  uncertainty k = 0.132516
         4         3         2        25     9      180.000000        0.233589         4    ;  uncertainty k = 0.065484
         4         5         6        30     9        0.000000        2.805003         1    ;  uncertainty k = 1.351006
         4         5         6        30     9      180.000000       -2.635452         2    ;  uncertainty k = 0.203061
         4         5         6        30     9        0.000000        0.069758         3    ;  uncertainty k = 0.132516
         4         5         6        30     9      180.000000        0.233589         4    ;  uncertainty k = 0.065484
         4         5         6        31     9        0.000000        2.805003         1    ;  uncertainty k = 1.351006
         4         5         6        31     9      180.000000       -2.635452         2    ;  uncertainty k = 0.203061
         4         5         6        31     9        0.000000        0.069758         3    ;  uncertainty k = 0.132516
         4         5         6        31     9      180.000000        0.233589         4    ;  uncertainty k = 0.065484
         5         4         3        26     9        0.000000       -1.041765         1    ;  uncertainty k = 0.265447
         5         4         3        26     9      180.000000       -0.356594         2    ;  uncertainty k = 0.191548
         5         4         3        26     9        0.000000       -0.007680         3    ;  uncertainty k = 0.093809
         5         4         3        26     9      180.000000       -0.100570         4    ;  uncertainty k = 0.058705
         5         4         3        27     9        0.000000       -1.041765         1    ;  uncertainty k = 0.265447
         5         4         3        27     9      180.000000       -0.356594         2    ;  uncertainty k = 0.191548
         5         4         3        27     9        0.000000       -0.007680         3    ;  uncertainty k = 0.093809
         5         4         3        27     9      180.000000       -0.100570         4    ;  uncertainty k = 0.058705
         5         4        22        37     9        0.000000       -0.378618         1    ;  uncertainty k = 1.202868
         5         4        22        37     9      180.000000       -0.218968         2    ;  uncertainty k = 0.263352
         5         4        22        37     9        0.000000        0.752335         3    ;  uncertainty k = 0.133799
         5         4        22        37     9      180.000000       -0.117476         4    ;  uncertainty k = 0.099713
         5         4        22        41     9        0.000000       -0.378618         1    ;  uncertainty k = 1.202868
         5         4        22        41     9      180.000000       -0.218968         2    ;  uncertainty k = 0.263352
         5         4        22        41     9        0.000000        0.752335         3    ;  uncertainty k = 0.133799
         5         4        22        41     9      180.000000       -0.117476         4    ;  uncertainty k = 0.099713
         5         4        22        42     9        0.000000       -0.378618         1    ;  uncertainty k = 1.202868
         5         4        22        42     9      180.000000       -0.218968         2    ;  uncertainty k = 0.263352
         5         4        22        42     9        0.000000        0.752335         3    ;  uncertainty k = 0.133799
         5         4        22        42     9      180.000000       -0.117476         4    ;  uncertainty k = 0.099713
         5         4        23        38     9        0.000000       -0.914078         1    ;  uncertainty k = 0.356128
         5         4        23        38     9      180.000000       -0.481015         2    ;  uncertainty k = 0.207164
         5         4        23        38     9        0.000000        0.542170         3    ;  uncertainty k = 0.077000
         5         4        23        38     9      180.000000       -0.146042         4    ;  uncertainty k = 0.059767
         5         4        23        39     9        0.000000       -0.914078         1    ;  uncertainty k = 0.356128
         5         4        23        39     9      180.000000       -0.481015         2    ;  uncertainty k = 0.207164
         5         4        23        39     9        0.000000        0.542170         3    ;  uncertainty k = 0.077000
         5         4        23        39     9      180.000000       -0.146042         4    ;  uncertainty k = 0.059767
         5         4        23        40     9        0.000000       -0.914078         1    ;  uncertainty k = 0.356128
         5         4        23        40     9      180.000000       -0.481015         2    ;  uncertainty k = 0.207164
         5         4        23        40     9        0.000000        0.542170         3    ;  uncertainty k = 0.077000
         5         4        23        40     9      180.000000       -0.146042         4    ;  uncertainty k = 0.059767
         5         6         1        16     9        0.000000       -3.701883         1    ;  uncertainty k = 0.672918
         5         6         1        16     9      180.000000        0.947959         2    ;  uncertainty k = 0.506593
         5         6         1        16     9        0.000000        0.024515         3    ;  uncertainty k = 0.249213
         5         6         1        16     9      180.000000        0.244232         4    ;  uncertainty k = 0.167296
         6         1         2        24     9        0.000000       -5.987189         1    ;  uncertainty k = 1.935923
         6         1         2        24     9      180.000000        0.905936         2    ;  uncertainty k = 0.503079
         6         1         2        24     9        0.000000        0.785624         3    ;  uncertainty k = 0.034928
         6         1         2        24     9      180.000000       -0.061541         4    ;  uncertainty k = 0.064915
         6         1         2        25     9        0.000000       -5.987189         1    ;  uncertainty k = 1.935923
         6         1         2        25     9      180.000000        0.905936         2    ;  uncertainty k = 0.503079
         6         1         2        25     9        0.000000        0.785624         3    ;  uncertainty k = 0.034928
         6         1         2        25     9      180.000000       -0.061541         4    ;  uncertainty k = 0.064915
         6         1        16        15     9        0.000000        2.828178         1    ;  uncertainty k = 1.191833
         6         1        16        15     9      180.000000       10.219532         2    ;  uncertainty k = 0.155566
         6         1        16        15     9        0.000000        0.450305         3    ;  uncertainty k = 0.243781
         6         1        16        15     9      180.000000       -0.068766         4    ;  uncertainty k = 0.181706
         6         1        16        17     9        0.000000        6.827488         1    ;  uncertainty k = 0.836958
         6         1        16        17     9      180.000000       11.210709         2    ;  uncertainty k = 0.146500
         6         1        16        17     9        0.000000        0.563672         3    ;  uncertainty k = 0.139460
         6         1        16        17     9      180.000000       -0.209208         4    ;  uncertainty k = 0.132630
         6         5         4        22     9        0.000000       -4.979276         1    ;  uncertainty k = 1.430563
         6         5         4        22     9      180.000000       -1.294579         2    ;  uncertainty k = 1.595729
         6         5         4        22     9        0.000000        1.038912         3    ;  uncertainty k = 0.329766
         6         5         4        22     9      180.000000        0.206208         4    ;  uncertainty k = 0.143367
         6         5         4        23     9        0.000000       -4.847231         1    ;  uncertainty k = 0.950051
         6         5         4        23     9      180.000000        1.249245         2    ;  uncertainty k = 0.483612
         6         5         4        23     9        0.000000        0.497573         3    ;  uncertainty k = 0.325464
         6         5         4        23     9      180.000000       -0.188686         4    ;  uncertainty k = 0.106191
         7         8         9        10     9        0.000000       -0.206371         1    ;  uncertainty k = 0.427572
         7         8         9        10     9      180.000000        5.423640         2    ;  uncertainty k = 0.930925
         7         8         9        10     9        0.000000        0.583101         3    ;  uncertainty k = 0.226140
         7         8         9        10     9      180.000000        1.364493         4    ;  uncertainty k = 0.317495
         7         8         9        19     9        0.000000        0.238725         1    ;  uncertainty k = 0.200693
         7         8         9        19     9      180.000000        6.849815         2    ;  uncertainty k = 0.671694
         7         8         9        19     9        0.000000        1.478268         3    ;  uncertainty k = 0.243809
         7         8         9        19     9      180.000000        1.773400         4    ;  uncertainty k = 0.154042
         7        12        11        10     9        0.000000       -0.037585         1    ;  uncertainty k = 0.125117
         7        12        11        10     9      180.000000       13.595467         2    ;  uncertainty k = 0.459326
         7        12        11        10     9        0.000000       -0.882566         3    ;  uncertainty k = 0.379584
         7        12        11        10     9      180.000000        0.758383         4    ;  uncertainty k = 0.253374
         7        12        11        33     9        0.000000        0.085874         1    ;  uncertainty k = 0.107498
         7        12        11        33     9      180.000000        7.213361         2    ;  uncertainty k = 0.339014
         7        12        11        33     9        0.000000        1.415104         3    ;  uncertainty k = 0.125550
         7        12        11        33     9      180.000000        1.855953         4    ;  uncertainty k = 0.117565
         7        13        14        15     9        0.000000       -0.213702         1    ;  uncertainty k = 0.659178
         7        13        14        15     9      180.000000       19.692862         2    ;  uncertainty k = 0.340993
         7        13        14        15     9        0.000000        3.059127         3    ;  uncertainty k = 0.719003
         7        13        14        15     9      180.000000        1.453173         4    ;  uncertainty k = 0.566098
         7        13        18        17     9        0.000000       -0.288586         1    ;  uncertainty k = 0.727506
         7        13        18        17     9      180.000000        3.736099         2    ;  uncertainty k = 0.836655
         7        13        18        17     9        0.000000       -0.044453         3    ;  uncertainty k = 0.451836
         7        13        18        17     9      180.000000        0.719243         4    ;  uncertainty k = 0.489611
         7        13        18        21     9        0.000000        0.280316         1    ;  uncertainty k = 1.097328
         7        13        18        21     9      180.000000        4.373205         2    ;  uncertainty k = 1.025819
         7        13        18        21     9        0.000000        0.480373         3    ;  uncertainty k = 0.591990
         7        13        18        21     9      180.000000        0.441759         4    ;  uncertainty k = 0.314355
         8         7        12        11     9        0.000000       -0.158555         1    ;  uncertainty k = 0.145324
         8         7        12        11     9      180.000000       10.559345         2    ;  uncertainty k = 0.325783
         8         7        12        11     9        0.000000       -0.088400         3    ;  uncertainty k = 0.280481
         8         7        12        11     9      180.000000        1.285375         4    ;  uncertainty k = 0.360959
         8         7        12        34     9        0.000000        0.239919         1    ;  uncertainty k = 0.268581
         8         7        12        34     9      180.000000        7.041625         2    ;  uncertainty k = 0.392053
         8         7        12        34     9        0.000000        1.325938         3    ;  uncertainty k = 0.271622
         8         7        12        34     9      180.000000        1.679899         4    ;  uncertainty k = 0.182193
         8         7        13        14     9        0.000000       -0.861657         1    ;  uncertainty k = 1.405852
         8         7        13        14     9      180.000000        4.576795         2    ;  uncertainty k = 0.153609
         8         7        13        14     9        0.000000        0.920371         3    ;  uncertainty k = 0.165999
         8         7        13        14     9      180.000000        0.150537         4    ;  uncertainty k = 0.212207
         8         7        13        18     9        0.000000        2.967150         1    ;  uncertainty k = 2.111617
         8         7        13        18     9      180.000000        2.594484         2    ;  uncertainty k = 0.572515
         8         7        13        18     9        0.000000        1.003545         3    ;  uncertainty k = 0.254348
         8         7        13        18     9      180.000000        0.266281         4    ;  uncertainty k = 0.274170
         8         9        10        11     9        0.000000       -0.000654         1    ;  uncertainty k = 0.124105
         8         9        10        11     9      180.000000        9.674520         2    ;  uncertainty k = 0.297905
         8         9        10        11     9        0.000000        0.099427         3    ;  uncertainty k = 0.573105
         8         9        10        11     9      180.000000        1.252412         4    ;  uncertainty k = 0.298469
         8         9        10        32     9        0.000000        0.146517         1    ;  uncertainty k = 0.107561
         8         9        10        32     9      180.000000        6.157872         2    ;  uncertainty k = 0.571792
         8         9        10        32     9        0.000000        1.416794         3    ;  uncertainty k = 0.366530
         8         9        10        32     9      180.000000        1.577853         4    ;  uncertainty k = 0.181853
         9         8         7        12     9        0.000000        0.065705         1    ;  uncertainty k = 0.577010
         9         8         7        12     9      180.000000        6.738006         2    ;  uncertainty k = 0.560761
         9         8         7        12     9        0.000000        0.399305         3    ;  uncertainty k = 0.397195
         9         8         7        12     9      180.000000        1.308694         4    ;  uncertainty k = 0.269049
         9         8         7        13     9        0.000000       -0.043984         1    ;  uncertainty k = 0.303326
         9         8         7        13     9      180.000000        6.298949         2    ;  uncertainty k = 0.394095
         9         8         7        13     9        0.000000        1.450811         3    ;  uncertainty k = 0.337983
         9         8         7        13     9      180.000000        1.780793         4    ;  uncertainty k = 0.137343
         9        10        11        12     9        0.000000        0.022805         1    ;  uncertainty k = 0.132816
         9        10        11        12     9      180.000000       14.321189         2    ;  uncertainty k = 0.156848
         9        10        11        12     9        0.000000       -1.079834         3    ;  uncertainty k = 0.617526
         9        10        11        12     9      180.000000        0.776090         4    ;  uncertainty k = 0.249881
         9        10        11        33     9        0.000000        0.039035         1    ;  uncertainty k = 0.138062
         9        10        11        33     9      180.000000        7.573957         2    ;  uncertainty k = 0.326463
         9        10        11        33     9        0.000000        1.498646         3    ;  uncertainty k = 0.240396
         9        10        11        33     9      180.000000        1.852602         4    ;  uncertainty k = 0.140866
        10         9         8        20     9        0.000000        0.120364         1    ;  uncertainty k = 0.235162
        10         9         8        20     9      180.000000        7.012680         2    ;  uncertainty k = 0.278943
        10         9         8        20     9        0.000000        1.452802         3    ;  uncertainty k = 0.217757
        10         9         8        20     9      180.000000        1.658792         4    ;  uncertainty k = 0.152901
        10        11        12        34     9        0.000000        0.054655         1    ;  uncertainty k = 0.064082
        10        11        12        34     9      180.000000        7.836515         2    ;  uncertainty k = 0.204599
        10        11        12        34     9        0.000000        1.370306         3    ;  uncertainty k = 0.297983
        10        11        12        34     9      180.000000        1.833960         4    ;  uncertainty k = 0.146010
        11        10         9        19     9        0.000000        0.138880         1    ;  uncertainty k = 0.273316
        11        10         9        19     9      180.000000        9.611408         2    ;  uncertainty k = 0.646931
        11        10         9        19     9        0.000000        1.485930         3    ;  uncertainty k = 0.454577
        11        10         9        19     9      180.000000        1.742540         4    ;  uncertainty k = 0.176936
        11        12         7        13     9        0.000000        0.126531         1    ;  uncertainty k = 0.116166
        11        12         7        13     9      180.000000        8.974922         2    ;  uncertainty k = 0.687847
        11        12         7        13     9        0.000000        1.247263         3    ;  uncertainty k = 0.381199
        11        12         7        13     9      180.000000        1.913796         4    ;  uncertainty k = 0.302600
        12         7         8        20     9        0.000000       -0.062921         1    ;  uncertainty k = 0.219954
        12         7         8        20     9      180.000000        7.878832         2    ;  uncertainty k = 0.382465
        12         7         8        20     9        0.000000        1.348656         3    ;  uncertainty k = 0.317235
        12         7         8        20     9      180.000000        1.559469         4    ;  uncertainty k = 0.161278
        12         7        13        14     9        0.000000        0.463140         1    ;  uncertainty k = 0.758316
        12         7        13        14     9      180.000000        5.207077         2    ;  uncertainty k = 0.197048
        12         7        13        14     9        0.000000        0.627864         3    ;  uncertainty k = 0.336421
        12         7        13        14     9      180.000000        0.227824         4    ;  uncertainty k = 0.138473
        12         7        13        18     9        0.000000       -0.399972         1    ;  uncertainty k = 1.229828
        12         7        13        18     9      180.000000        3.540412         2    ;  uncertainty k = 0.250336
        12         7        13        18     9        0.000000        0.566284         3    ;  uncertainty k = 0.281192
        12         7        13        18     9      180.000000        0.207678         4    ;  uncertainty k = 0.163060
        12        11        10        32     9        0.000000        0.125981         1    ;  uncertainty k = 0.110932
        12        11        10        32     9      180.000000        7.545302         2    ;  uncertainty k = 0.300910
        12        11        10        32     9        0.000000        1.487190         3    ;  uncertainty k = 0.226686
        12        11        10        32     9      180.000000        1.783183         4    ;  uncertainty k = 0.176732
        13         7         8        20     9        0.000000       -0.286886         1    ;  uncertainty k = 0.832245
        13         7         8        20     9      180.000000        7.652224         2    ;  uncertainty k = 0.297279
        13         7         8        20     9        0.000000        1.177506         3    ;  uncertainty k = 0.288716
        13         7         8        20     9      180.000000        1.497113         4    ;  uncertainty k = 0.212453
        13         7        12        34     9        0.000000       -0.154900         1    ;  uncertainty k = 0.253514
        13         7        12        34     9      180.000000        7.555985         2    ;  uncertainty k = 0.320485
        13         7        12        34     9        0.000000        0.743655         3    ;  uncertainty k = 0.371920
        13         7        12        34     9      180.000000        1.258690         4    ;  uncertainty k = 0.210034
        13        14        15        16     9        0.000000       -2.455323         1    ;  uncertainty k = 3.270426
        13        14        15        16     9      180.000000       25.556434         2    ;  uncertainty k = 0.638954
        13        14        15        16     9        0.000000        0.280597         3    ;  uncertainty k = 1.194685
        13        14        15        16     9      180.000000        0.238658         4    ;  uncertainty k = 0.908327
        13        18        17        16     9        0.000000        0.500303         1    ;  uncertainty k = 1.389571
        13        18        17        16     9      180.000000       10.101483         2    ;  uncertainty k = 0.739144
        13        18        17        16     9        0.000000        0.996989         3    ;  uncertainty k = 0.293900
        13        18        17        16     9      180.000000        1.249988         4    ;  uncertainty k = 0.437728
        13        18        21        35     9        0.000000       10.846773         1    ;  uncertainty k = 0.328221
        13        18        21        35     9      180.000000        7.611155         2    ;  uncertainty k = 0.213009
        13        18        21        35     9        0.000000        1.046210         3    ;  uncertainty k = 0.230397
        13        18        21        35     9      180.000000       -0.051537         4    ;  uncertainty k = 0.049635
        13        18        21        36     9        0.000000       10.846773         1    ;  uncertainty k = 0.328221
        13        18        21        36     9      180.000000        7.611155         2    ;  uncertainty k = 0.213009
        13        18        21        36     9        0.000000        1.046210         3    ;  uncertainty k = 0.230397
        13        18        21        36     9      180.000000       -0.051537         4    ;  uncertainty k = 0.049635
        14        13        18        17     9        0.000000       -1.077573         1    ;  uncertainty k = 1.197060
        14        13        18        17     9      180.000000        2.752559         2    ;  uncertainty k = 0.752185
        14        13        18        17     9        0.000000       -0.712954         3    ;  uncertainty k = 0.589928
        14        13        18        17     9      180.000000        0.479681         4    ;  uncertainty k = 0.437048
        14        13        18        21     9        0.000000       -0.820543         1    ;  uncertainty k = 1.034577
        14        13        18        21     9      180.000000        2.801563         2    ;  uncertainty k = 1.478968
        14        13        18        21     9        0.000000        0.107714         3    ;  uncertainty k = 0.385723
        14        13        18        21     9      180.000000        0.473308         4    ;  uncertainty k = 0.336788
        14        15        16        17     9        0.000000        0.729834         1    ;  uncertainty k = 0.968941
        14        15        16        17     9      180.000000        6.808607         2    ;  uncertainty k = 0.644388
        14        15        16        17     9        0.000000        1.349665         3    ;  uncertainty k = 0.680801
        14        15        16        17     9      180.000000        0.879687         4    ;  uncertainty k = 0.426976
        15        14        13        18     9        0.000000        0.939782         1    ;  uncertainty k = 1.016193
        15        14        13        18     9      180.000000       17.113738         2    ;  uncertainty k = 0.420810
        15        14        13        18     9        0.000000        2.416703         3    ;  uncertainty k = 0.978144
        15        14        13        18     9      180.000000        1.406407         4    ;  uncertainty k = 0.324499
        15        16        17        18     9        0.000000        0.411031         1    ;  uncertainty k = 0.628738
        15        16        17        18     9      180.000000        5.525908         2    ;  uncertainty k = 1.052647
        15        16        17        18     9        0.000000        1.430852         3    ;  uncertainty k = 0.273296
        15        16        17        18     9      180.000000        0.532510         4    ;  uncertainty k = 0.537630
        16         1         2        24     9        0.000000       -0.308184         1    ;  uncertainty k = 0.623611
        16         1         2        24     9      180.000000        0.079008         2    ;  uncertainty k = 0.135875
        16         1         2        24     9        0.000000       -0.040065         3    ;  uncertainty k = 0.057023
        16         1         2        24     9      180.000000        0.281662         4    ;  uncertainty k = 0.043690
        16         1         2        25     9        0.000000       -0.308184         1    ;  uncertainty k = 0.623611
        16         1         2        25     9      180.000000        0.079008         2    ;  uncertainty k = 0.135875
        16         1         2        25     9        0.000000       -0.040065         3    ;  uncertainty k = 0.057023
        16         1         2        25     9      180.000000        0.281662         4    ;  uncertainty k = 0.043690
        16         1         6        30     9        0.000000       -0.308184         1    ;  uncertainty k = 0.623611
        16         1         6        30     9      180.000000        0.079008         2    ;  uncertainty k = 0.135875
        16         1         6        30     9        0.000000       -0.040065         3    ;  uncertainty k = 0.057023
        16         1         6        30     9      180.000000        0.281662         4    ;  uncertainty k = 0.043690
        16         1         6        31     9        0.000000       -0.308184         1    ;  uncertainty k = 0.623611
        16         1         6        31     9      180.000000        0.079008         2    ;  uncertainty k = 0.135875
        16         1         6        31     9        0.000000       -0.040065         3    ;  uncertainty k = 0.057023
        16         1         6        31     9      180.000000        0.281662         4    ;  uncertainty k = 0.043690
        16        17        18        21     9        0.000000        0.198663         1    ;  uncertainty k = 1.009267
        16        17        18        21     9      180.000000       15.791957         2    ;  uncertainty k = 0.405670
        16        17        18        21     9        0.000000        2.566500         3    ;  uncertainty k = 0.488783
        16        17        18        21     9      180.000000        1.832525         4    ;  uncertainty k = 0.264380
        17        18        21        35     9        0.000000       20.686477         1    ;  uncertainty k = 0.362539
        17        18        21        35     9      180.000000       13.272322         2    ;  uncertainty k = 0.236969
        17        18        21        35     9        0.000000        0.535346         3    ;  uncertainty k = 0.098630
        17        18        21        35     9      180.000000       -0.619150         4    ;  uncertainty k = 0.307038
        17        18        21        36     9        0.000000       20.686477         1    ;  uncertainty k = 0.362539
        17        18        21        36     9      180.000000       13.272322         2    ;  uncertainty k = 0.236969
        17        18        21        36     9        0.000000        0.535346         3    ;  uncertainty k = 0.098630
        17        18        21        36     9      180.000000       -0.619150         4    ;  uncertainty k = 0.307038
        19         9         8        20     9        0.000000        0.129087         1    ;  uncertainty k = 0.474575
        19         9         8        20     9      180.000000        7.610032         2    ;  uncertainty k = 0.298684
        19         9         8        20     9        0.000000        1.218214         3    ;  uncertainty k = 0.253884
        19         9         8        20     9      180.000000        1.446983         4    ;  uncertainty k = 0.245571
        19         9        10        32     9        0.000000       -0.183324         1    ;  uncertainty k = 0.309109
        19         9        10        32     9      180.000000        7.615952         2    ;  uncertainty k = 0.378043
        19         9        10        32     9        0.000000        0.553325         3    ;  uncertainty k = 0.272076
        19         9        10        32     9      180.000000        1.023076         4    ;  uncertainty k = 0.167401
        22         4         3        26     9        0.000000       -0.957015         1    ;  uncertainty k = 0.777479
        22         4         3        26     9      180.000000       -1.810504         2    ;  uncertainty k = 0.431986
        22         4         3        26     9        0.000000        0.536111         3    ;  uncertainty k = 0.153239
        22         4         3        26     9      180.000000       -0.242448         4    ;  uncertainty k = 0.143920
        22         4         3        27     9        0.000000       -0.957015         1    ;  uncertainty k = 0.777479
        22         4         3        27     9      180.000000       -1.810504         2    ;  uncertainty k = 0.431986
        22         4         3        27     9        0.000000        0.536111         3    ;  uncertainty k = 0.153239
        22         4         3        27     9      180.000000       -0.242448         4    ;  uncertainty k = 0.143920
        22         4         5        28     9        0.000000       -0.957015         1    ;  uncertainty k = 0.777479
        22         4         5        28     9      180.000000       -1.810504         2    ;  uncertainty k = 0.431986
        22         4         5        28     9        0.000000        0.536111         3    ;  uncertainty k = 0.153239
        22         4         5        28     9      180.000000       -0.242448         4    ;  uncertainty k = 0.143920
        22         4         5        29     9        0.000000       -0.957015         1    ;  uncertainty k = 0.777479
        22         4         5        29     9      180.000000       -1.810504         2    ;  uncertainty k = 0.431986
        22         4         5        29     9        0.000000        0.536111         3    ;  uncertainty k = 0.153239
        22         4         5        29     9      180.000000       -0.242448         4    ;  uncertainty k = 0.143920
        22         4        23        38     9        0.000000       -1.658331         1    ;  uncertainty k = 1.431247
        22         4        23        38     9      180.000000       -2.618283         2    ;  uncertainty k = 0.451254
        22         4        23        38     9        0.000000        0.778238         3    ;  uncertainty k = 0.254191
        22         4        23        38     9      180.000000       -0.194334         4    ;  uncertainty k = 0.172568
        22         4        23        39     9        0.000000       -1.658331         1    ;  uncertainty k = 1.431247
        22         4        23        39     9      180.000000       -2.618283         2    ;  uncertainty k = 0.451254
        22         4        23        39     9        0.000000        0.778238         3    ;  uncertainty k = 0.254191
        22         4        23        39     9      180.000000       -0.194334         4    ;  uncertainty k = 0.172568
        22         4        23        40     9        0.000000       -1.658331         1    ;  uncertainty k = 1.431247
        22         4        23        40     9      180.000000       -2.618283         2    ;  uncertainty k = 0.451254
        22         4        23        40     9        0.000000        0.778238         3    ;  uncertainty k = 0.254191
        22         4        23        40     9      180.000000       -0.194334         4    ;  uncertainty k = 0.172568
        23         4         3        26     9        0.000000       -0.345184         1    ;  uncertainty k = 0.389032
        23         4         3        26     9      180.000000       -0.057709         2    ;  uncertainty k = 0.382826
        23         4         3        26     9        0.000000        0.281401         3    ;  uncertainty k = 0.220111
        23         4         3        26     9      180.000000       -0.051810         4    ;  uncertainty k = 0.076920
        23         4         3        27     9        0.000000       -0.345184         1    ;  uncertainty k = 0.389032
        23         4         3        27     9      180.000000       -0.057709         2    ;  uncertainty k = 0.382826
        23         4         3        27     9        0.000000        0.281401         3    ;  uncertainty k = 0.220111
        23         4         3        27     9      180.000000       -0.051810         4    ;  uncertainty k = 0.076920
        23         4         5        28     9        0.000000       -0.345184         1    ;  uncertainty k = 0.389032
        23         4         5        28     9      180.000000       -0.057709         2    ;  uncertainty k = 0.382826
        23         4         5        28     9        0.000000        0.281401         3    ;  uncertainty k = 0.220111
        23         4         5        28     9      180.000000       -0.051810         4    ;  uncertainty k = 0.076920
        23         4         5        29     9        0.000000       -0.345184         1    ;  uncertainty k = 0.389032
        23         4         5        29     9      180.000000       -0.057709         2    ;  uncertainty k = 0.382826
        23         4         5        29     9        0.000000        0.281401         3    ;  uncertainty k = 0.220111
        23         4         5        29     9      180.000000       -0.051810         4    ;  uncertainty k = 0.076920
        23         4        22        37     9        0.000000        0.214189         1    ;  uncertainty k = 1.165375
        23         4        22        37     9      180.000000       -0.101715         2    ;  uncertainty k = 0.387077
        23         4        22        37     9        0.000000        0.750310         3    ;  uncertainty k = 0.221539
        23         4        22        37     9      180.000000       -0.027140         4    ;  uncertainty k = 0.139765
        23         4        22        41     9        0.000000        0.214189         1    ;  uncertainty k = 1.165375
        23         4        22        41     9      180.000000       -0.101715         2    ;  uncertainty k = 0.387077
        23         4        22        41     9        0.000000        0.750310         3    ;  uncertainty k = 0.221539
        23         4        22        41     9      180.000000       -0.027140         4    ;  uncertainty k = 0.139765
        23         4        22        42     9        0.000000        0.214189         1    ;  uncertainty k = 1.165375
        23         4        22        42     9      180.000000       -0.101715         2    ;  uncertainty k = 0.387077
        23         4        22        42     9        0.000000        0.750310         3    ;  uncertainty k = 0.221539
        23         4        22        42     9      180.000000       -0.027140         4    ;  uncertainty k = 0.139765
        24         2         3        26     9        0.000000        0.144566         1    ;  uncertainty k = 0.218547
        24         2         3        26     9      180.000000        0.343385         2    ;  uncertainty k = 0.362419
        24         2         3        26     9        0.000000        0.158109         3    ;  uncertainty k = 0.088117
        24         2         3        26     9      180.000000       -0.124606         4    ;  uncertainty k = 0.140162
        24         2         3        27     9        0.000000        0.144566         1    ;  uncertainty k = 0.218547
        24         2         3        27     9      180.000000        0.343385         2    ;  uncertainty k = 0.362419
        24         2         3        27     9        0.000000        0.158109         3    ;  uncertainty k = 0.088117
        24         2         3        27     9      180.000000       -0.124606         4    ;  uncertainty k = 0.140162
        25         2         3        26     9        0.000000        0.144566         1    ;  uncertainty k = 0.218547
        25         2         3        26     9      180.000000        0.343385         2    ;  uncertainty k = 0.362419
        25         2         3        26     9        0.000000        0.158109         3    ;  uncertainty k = 0.088117
        25         2         3        26     9      180.000000       -0.124606         4    ;  uncertainty k = 0.140162
        25         2         3        27     9        0.000000        0.144566         1    ;  uncertainty k = 0.218547
        25         2         3        27     9      180.000000        0.343385         2    ;  uncertainty k = 0.362419
        25         2         3        27     9        0.000000        0.158109         3    ;  uncertainty k = 0.088117
        25         2         3        27     9      180.000000       -0.124606         4    ;  uncertainty k = 0.140162
        28         5         6        30     9        0.000000        0.144566         1    ;  uncertainty k = 0.218547
        28         5         6        30     9      180.000000        0.343385         2    ;  uncertainty k = 0.362419
        28         5         6        30     9        0.000000        0.158109         3    ;  uncertainty k = 0.088117
        28         5         6        30     9      180.000000       -0.124606         4    ;  uncertainty k = 0.140162
        28         5         6        31     9        0.000000        0.144566         1    ;  uncertainty k = 0.218547
        28         5         6        31     9      180.000000        0.343385         2    ;  uncertainty k = 0.362419
        28         5         6        31     9        0.000000        0.158109         3    ;  uncertainty k = 0.088117
        28         5         6        31     9      180.000000       -0.124606         4    ;  uncertainty k = 0.140162
        29         5         6        30     9        0.000000        0.144566         1    ;  uncertainty k = 0.218547
        29         5         6        30     9      180.000000        0.343385         2    ;  uncertainty k = 0.362419
        29         5         6        30     9        0.000000        0.158109         3    ;  uncertainty k = 0.088117
        29         5         6        30     9      180.000000       -0.124606         4    ;  uncertainty k = 0.140162
        29         5         6        31     9        0.000000        0.144566         1    ;  uncertainty k = 0.218547
        29         5         6        31     9      180.000000        0.343385         2    ;  uncertainty k = 0.362419
        29         5         6        31     9        0.000000        0.158109         3    ;  uncertainty k = 0.088117
        29         5         6        31     9      180.000000       -0.124606         4    ;  uncertainty k = 0.140162
        32        10        11        33     9        0.000000       -0.063231         1    ;  uncertainty k = 0.143919
        32        10        11        33     9      180.000000        7.894391         2    ;  uncertainty k = 0.469259
        32        10        11        33     9        0.000000       -0.422798         3    ;  uncertainty k = 0.255830
        32        10        11        33     9      180.000000        0.044530         4    ;  uncertainty k = 0.174749
        33        11        12        34     9        0.000000       -0.018080         1    ;  uncertainty k = 0.218859
        33        11        12        34     9      180.000000        7.984677         2    ;  uncertainty k = 0.410385
        33        11        12        34     9        0.000000       -0.396066         3    ;  uncertainty k = 0.235732
        33        11        12        34     9      180.000000        0.168386         4    ;  uncertainty k = 0.128724

[ dihedrals ] ; impropers
;       ai        aj        ak        al funct           phase               k        pn
         1         2         6        16     4      180.000000        0.434805         2    ;  uncertainty k = 0.972253
         1         6        16         2     4      180.000000        0.434805         2    ;  uncertainty k = 0.972253
         1        16         2         6     4      180.000000        0.434805         2    ;  uncertainty k = 0.972253
         7         8        12        13     4      180.000000       14.147544         2    ;  uncertainty k = 0.093967
         7        12        13         8     4      180.000000       14.147544         2    ;  uncertainty k = 0.093967
         7        13         8        12     4      180.000000       14.147544         2    ;  uncertainty k = 0.093967
         8         7         9        20     4      180.000000       14.001111         2    ;  uncertainty k = 0.052807
         8         9        20         7     4      180.000000       14.001111         2    ;  uncertainty k = 0.052807
         8        20         7         9     4      180.000000       14.001111         2    ;  uncertainty k = 0.052807
         9         8        10        19     4      180.000000       13.373090         2    ;  uncertainty k = 0.064822
         9        10        19         8     4      180.000000       13.373090         2    ;  uncertainty k = 0.064822
         9        19         8        10     4      180.000000       13.373090         2    ;  uncertainty k = 0.064822
        10         9        11        32     4      180.000000        3.899337         2    ;  uncertainty k = 0.119505
        10        11        32         9     4      180.000000        3.899337         2    ;  uncertainty k = 0.119505
        10        32         9        11     4      180.000000        3.899337         2    ;  uncertainty k = 0.119505
        11        10        12        33     4      180.000000        4.122614         2    ;  uncertainty k = 0.077270
        11        12        33        10     4      180.000000        4.122614         2    ;  uncertainty k = 0.077270
        11        33        10        12     4      180.000000        4.122614         2    ;  uncertainty k = 0.077270
        12         7        11        34     4      180.000000        3.970390         2    ;  uncertainty k = 0.065437
        12        11        34         7     4      180.000000        3.970390         2    ;  uncertainty k = 0.065437
        12        34         7        11     4      180.000000        3.970390         2    ;  uncertainty k = 0.065437
        13         7        14        18     4      180.000000       17.184863         2    ;  uncertainty k = 0.141564
        13        14        18         7     4      180.000000       17.184863         2    ;  uncertainty k = 0.141564
        13        18         7        14     4      180.000000       17.184863         2    ;  uncertainty k = 0.141564
        16         1        15        17     4      180.000000       41.549366         2    ;  uncertainty k = 0.079773
        16        15        17         1     4      180.000000       41.549366         2    ;  uncertainty k = 0.079773
        16        17         1        15     4      180.000000       41.549366         2    ;  uncertainty k = 0.079773
        18        13        17        21     4      180.000000       33.967603         2    ;  uncertainty k = 0.060096
        18        17        21        13     4      180.000000       33.967603         2    ;  uncertainty k = 0.060096
        18        21        13        17     4      180.000000       33.967603         2    ;  uncertainty k = 0.060096
        21        18        35        36     4      180.000000        0.232391         2    ;  uncertainty k = 0.435938
        21        35        36        18     4      180.000000        0.232391         2    ;  uncertainty k = 0.435938
        21        36        18        35     4      180.000000        0.232391         2    ;  uncertainty k = 0.435938

[ pairs ]
;       ai        aj funct
         1         4     1
         1        14     1
         1        18     1
         1        26     1
         1        27     1
         1        28     1
         1        29     1
         2         5     1
         2        15     1
         2        17     1
         2        22     1
         2        23     1
         2        30     1
         2        31     1
         3         6     1
         3        16     1
         3        28     1
         3        29     1
         3        37     1
         3        38     1
         3        39     1
         3        40     1
         3        41     1
         3        42     1
         4        24     1
         4        25     1
         4        30     1
         4        31     1
         5        16     1
         5        26     1
         5        27     1
         5        37     1
         5        38     1
         5        39     1
         5        40     1
         5        41     1
         5        42     1
         6        15     1
         6        17     1
         6        22     1
         6        23     1
         6        24     1
         6        25     1
         7        10     1
         7        15     1
         7        17     1
         7        19     1
         7        21     1
         7        33     1
         8        11     1
         8        14     1
         8        18     1
         8        32     1
         8        34     1
         9        12     1
         9        13     1
         9        33     1
        10        20     1
        10        34     1
        11        13     1
        11        19     1
        12        14     1
        12        18     1
        12        20     1
        12        32     1
        13        16     1
        13        20     1
        13        34     1
        13        35     1
        13        36     1
        14        17     1
        14        21     1
        15        18     1
        16        21     1
        16        24     1
        16        25     1
        16        30     1
        16        31     1
        17        35     1
        17        36     1
        19        20     1
        19        32     1
        22        26     1
        22        27     1
        22        28     1
        22        29     1
        22        38     1
        22        39     1
        22        40     1
        23        26     1
        23        27     1
        23        28     1
        23        29     1
        23        37     1
        23        41     1
        23        42     1
        24        26     1
        24        27     1
        25        26     1
        25        27     1
        28        30     1
        28        31     1
        29        30     1
        29        31     1
        32        33     1
        33        34     1
