; ITP file created by ByteFF-joint-25, 2026-02-17 09:33:32.256336

[ atomtypes ]
;name           bonded.type        at.num        mass        charge   ptype           sigma         epsilon
 n0bf                                   7      0.0000       0.00000       A     3.18992e-01     8.98658e-01    ;  uncertainty sigma = 0.000053, epsilon = 0.002962
 c1bf                                   6      0.0000       0.00000       A     3.39773e-01     4.50481e-01    ;  uncertainty sigma = 0.000023, epsilon = 0.001142
 c2bf                                   6      0.0000       0.00000       A     3.39768e-01     4.51100e-01    ;  uncertainty sigma = 0.000021, epsilon = 0.000603
 c3bf                                   6      0.0000       0.00000       A     3.39788e-01     4.49780e-01    ;  uncertainty sigma = 0.000038, epsilon = 0.001520
 c4bf                                   6      0.0000       0.00000       A     3.39768e-01     4.51100e-01    ;  uncertainty sigma = 0.000021, epsilon = 0.000603
 c5bf                                   6      0.0000       0.00000       A     3.39773e-01     4.50481e-01    ;  uncertainty sigma = 0.000023, epsilon = 0.001142
 c6bf                                   6      0.0000       0.00000       A     3.31536e-01     4.13501e-01    ;  uncertainty sigma = 0.000014, epsilon = 0.001310
 c7bf                                   6      0.0000       0.00000       A     3.31513e-01     4.13559e-01    ;  uncertainty sigma = 0.000010, epsilon = 0.000750
 c8bf                                   6      0.0000       0.00000       A     3.31517e-01     4.13418e-01    ;  uncertainty sigma = 0.000007, epsilon = 0.000490
 c9bf                                   6      0.0000       0.00000       A     3.31517e-01     4.13339e-01    ;  uncertainty sigma = 0.000004, epsilon = 0.000628
 c10bf                                  6      0.0000       0.00000       A     3.31515e-01     4.13294e-01    ;  uncertainty sigma = 0.000004, epsilon = 0.000592
 c11bf                                  6      0.0000       0.00000       A     3.31518e-01     4.13425e-01    ;  uncertainty sigma = 0.000005, epsilon = 0.000679
 c12bf                                  6      0.0000       0.00000       A     3.31442e-01     4.12343e-01    ;  uncertainty sigma = 0.000027, epsilon = 0.001432
 n13bf                                  7      0.0000       0.00000       A     3.38420e-01     3.92929e-01    ;  uncertainty sigma = 0.000039, epsilon = 0.000939
 c14bf                                  6      0.0000       0.00000       A     3.31474e-01     4.14042e-01    ;  uncertainty sigma = 0.000043, epsilon = 0.003660
 c15bf                                  6      0.0000       0.00000       A     3.31454e-01     4.13940e-01    ;  uncertainty sigma = 0.000028, epsilon = 0.002044
 n16bf                                  7      0.0000       0.00000       A     3.38417e-01     3.93200e-01    ;  uncertainty sigma = 0.000041, epsilon = 0.000864
 c17bf                                  6      0.0000       0.00000       A     3.31489e-01     4.11901e-01    ;  uncertainty sigma = 0.000021, epsilon = 0.001531
 cl18bf                                17      0.0000       0.00000       A     3.46639e-01     1.10469e+00    ;  uncertainty sigma = 0.000020, epsilon = 0.001458
 cl19bf                                17      0.0000       0.00000       A     3.46596e-01     1.10464e+00    ;  uncertainty sigma = 0.000016, epsilon = 0.003016
 n20bf                                  7      0.0000       0.00000       A     3.36870e-01     4.67721e-01    ;  uncertainty sigma = 0.000043, epsilon = 0.002784
 c21bf                                  6      0.0000       0.00000       A     3.39744e-01     4.51058e-01    ;  uncertainty sigma = 0.000018, epsilon = 0.000674
 n22bf                                  7      0.0000       0.00000       A     2.77101e-01     4.77733e+00    ;  uncertainty sigma = 0.000102, epsilon = 0.025603
 c23bf                                  6      0.0000       0.00000       A     3.31481e-01     4.13003e-01    ;  uncertainty sigma = 0.000037, epsilon = 0.001547
 n24bf                                  7      0.0000       0.00000       A     3.35830e-01     3.55312e-01    ;  uncertainty sigma = 0.000031, epsilon = 0.003345
 o25bf                                  8      0.0000       0.00000       A     3.04823e-01     6.12158e-01    ;  uncertainty sigma = 0.000013, epsilon = 0.001470
 h26bf                                  1      0.0000       0.00000       A     2.42223e-01     8.69233e-02    ;  uncertainty sigma = 0.000017, epsilon = 0.000659
 h27bf                                  1      0.0000       0.00000       A     2.42223e-01     8.69233e-02    ;  uncertainty sigma = 0.000017, epsilon = 0.000659
 h28bf                                  1      0.0000       0.00000       A     2.60047e-01     8.66235e-02    ;  uncertainty sigma = 0.000026, epsilon = 0.001019
 h29bf                                  1      0.0000       0.00000       A     2.60047e-01     8.66235e-02    ;  uncertainty sigma = 0.000026, epsilon = 0.001019
 h30bf                                  1      0.0000       0.00000       A     2.60047e-01     8.66235e-02    ;  uncertainty sigma = 0.000026, epsilon = 0.001019
 h31bf                                  1      0.0000       0.00000       A     2.60047e-01     8.66235e-02    ;  uncertainty sigma = 0.000026, epsilon = 0.001019
 h32bf                                  1      0.0000       0.00000       A     2.42223e-01     8.69233e-02    ;  uncertainty sigma = 0.000017, epsilon = 0.000659
 h33bf                                  1      0.0000       0.00000       A     2.42223e-01     8.69233e-02    ;  uncertainty sigma = 0.000017, epsilon = 0.000659
 h34bf                                  1      0.0000       0.00000       A     2.62556e-01     6.70339e-02    ;  uncertainty sigma = 0.000007, epsilon = 0.000600
 h35bf                                  1      0.0000       0.00000       A     2.62568e-01     6.69666e-02    ;  uncertainty sigma = 0.000007, epsilon = 0.000468
 h36bf                                  1      0.0000       0.00000       A     2.62563e-01     6.70979e-02    ;  uncertainty sigma = 0.000011, epsilon = 0.000540
 h37bf                                  1      0.0000       0.00000       A     1.10722e-01     4.12462e-02    ;  uncertainty sigma = 0.000082, epsilon = 0.000527
 h38bf                                  1      0.0000       0.00000       A     1.10722e-01     4.12462e-02    ;  uncertainty sigma = 0.000082, epsilon = 0.000527
 h39bf                                  1      0.0000       0.00000       A     1.10696e-01     4.13205e-02    ;  uncertainty sigma = 0.000061, epsilon = 0.000646
 h40bf                                  1      0.0000       0.00000       A     1.10696e-01     4.13205e-02    ;  uncertainty sigma = 0.000061, epsilon = 0.000646
 h41bf                                  1      0.0000       0.00000       A     1.10744e-01     4.05586e-02    ;  uncertainty sigma = 0.000197, epsilon = 0.001138
 h42bf                                  1      0.0000       0.00000       A     1.10744e-01     4.05586e-02    ;  uncertainty sigma = 0.000197, epsilon = 0.001138
 h43bf                                  1      0.0000       0.00000       A     1.10744e-01     4.05586e-02    ;  uncertainty sigma = 0.000197, epsilon = 0.001138
 h44bf                                  1      0.0000       0.00000       A     2.60029e-01     8.68919e-02    ;  uncertainty sigma = 0.000018, epsilon = 0.000792
 h45bf                                  1      0.0000       0.00000       A     2.60029e-01     8.68919e-02    ;  uncertainty sigma = 0.000018, epsilon = 0.000792
 h46bf                                  1      0.0000       0.00000       A     2.60029e-01     8.68919e-02    ;  uncertainty sigma = 0.000018, epsilon = 0.000792

[ moleculetype ]
;name             nrexcl
 MOL                   3

[ atoms ]
;       nr            type      resi   res      atom      cgnr      charge          mass ; qtot
         1            n0bf         1   UNL        n0         1    -0.75854       14.0070 ; qtot   -0.759
         2            c1bf         1   UNL        c1         2     0.22484       12.0110 ; qtot   -0.534
         3            c2bf         1   UNL        c2         3    -0.11860       12.0110 ; qtot   -0.652
         4            c3bf         1   UNL        c3         4     0.18791       12.0110 ; qtot   -0.464
         5            c4bf         1   UNL        c4         5    -0.11860       12.0110 ; qtot   -0.583
         6            c5bf         1   UNL        c5         6     0.22484       12.0110 ; qtot   -0.358
         7            c6bf         1   UNL        c6         7    -0.10396       12.0110 ; qtot   -0.462
         8            c7bf         1   UNL        c7         8     0.05088       12.0110 ; qtot   -0.411
         9            c8bf         1   UNL        c8         9     0.02451       12.0110 ; qtot   -0.387
        10            c9bf         1   UNL        c9        10    -0.10171       12.0110 ; qtot   -0.488
        11           c10bf         1   UNL       c10        11    -0.12241       12.0110 ; qtot   -0.611
        12           c11bf         1   UNL       c11        12    -0.10217       12.0110 ; qtot   -0.713
        13           c12bf         1   UNL       c12        13     0.24641       12.0110 ; qtot   -0.467
        14           n13bf         1   UNL       n13        14    -0.59037       14.0070 ; qtot   -1.057
        15           c14bf         1   UNL       c14        15     0.16456       12.0110 ; qtot   -0.892
        16           c15bf         1   UNL       c15        16     0.64626       12.0110 ; qtot   -0.246
        17           n16bf         1   UNL       n16        17    -0.82503       14.0070 ; qtot   -1.071
        18           c17bf         1   UNL       c17        18     0.61141       12.0110 ; qtot   -0.460
        19          cl18bf         1   UNL      cl18        19    -0.08348       35.4530 ; qtot   -0.543
        20          cl19bf         1   UNL      cl19        20    -0.07905       35.4530 ; qtot   -0.622
        21           n20bf         1   UNL       n20        21    -0.91390       14.0070 ; qtot   -1.536
        22           c21bf         1   UNL       c21        22    -0.13034       12.0110 ; qtot   -1.667
        23           n22bf         1   UNL       n22        23    -0.86673       14.0070 ; qtot   -2.533
        24           c23bf         1   UNL       c23        24     0.58709       12.0110 ; qtot   -1.946
        25           n24bf         1   UNL       n24        25    -0.65898       14.0070 ; qtot   -2.605
        26           o25bf         1   UNL       o25        26    -0.60175       15.9990 ; qtot   -3.207
        27           h26bf         1   UNL       h26        27     0.07573        1.0080 ; qtot   -3.131
        28           h27bf         1   UNL       h27        28     0.07573        1.0080 ; qtot   -3.055
        29           h28bf         1   UNL       h28        29     0.08278        1.0080 ; qtot   -2.973
        30           h29bf         1   UNL       h29        30     0.08278        1.0080 ; qtot   -2.890
        31           h30bf         1   UNL       h30        31     0.08278        1.0080 ; qtot   -2.807
        32           h31bf         1   UNL       h31        32     0.08278        1.0080 ; qtot   -2.724
        33           h32bf         1   UNL       h32        33     0.07573        1.0080 ; qtot   -2.649
        34           h33bf         1   UNL       h33        34     0.07573        1.0080 ; qtot   -2.573
        35           h34bf         1   UNL       h34        35     0.15499        1.0080 ; qtot   -2.418
        36           h35bf         1   UNL       h35        36     0.14497        1.0080 ; qtot   -2.273
        37           h36bf         1   UNL       h36        37     0.15054        1.0080 ; qtot   -2.122
        38           h37bf         1   UNL       h37        38     0.41702        1.0080 ; qtot   -1.705
        39           h38bf         1   UNL       h38        39     0.41702        1.0080 ; qtot   -1.288
        40           h39bf         1   UNL       h39        40     0.33120        1.0080 ; qtot   -0.957
        41           h40bf         1   UNL       h40        41     0.33120        1.0080 ; qtot   -0.626
        42           h41bf         1   UNL       h41        42     0.46464        1.0080 ; qtot   -0.161
        43           h42bf         1   UNL       h42        43     0.46464        1.0080 ; qtot    0.303
        44           h43bf         1   UNL       h43        44     0.46464        1.0080 ; qtot    0.768
        45           h44bf         1   UNL       h44        45     0.07734        1.0080 ; qtot    0.845
        46           h45bf         1   UNL       h45        46     0.07734        1.0080 ; qtot    0.923
        47           h46bf         1   UNL       h46        47     0.07733        1.0080 ; qtot    1.000

[ bonds ]
;       ai        aj funct               r               k
         1         2     1        0.145697   249776.806885    ;  uncertainty r = 0.000167, k = 8.735633
         1         6     1        0.145697   249776.806885    ;  uncertainty r = 0.000167, k = 8.735633
         1        16     1        0.139169   292661.964160    ;  uncertainty r = 0.000588, k = 23.501876
         2         3     1        0.153984   208345.081421    ;  uncertainty r = 0.000236, k = 11.142860
         2        27     1        0.109503   307134.737842    ;  uncertainty r = 0.000046, k = 1.976431
         2        28     1        0.109503   307134.737842    ;  uncertainty r = 0.000046, k = 1.976431
         3         4     1        0.153676   203189.253955    ;  uncertainty r = 0.000166, k = 7.266039
         3        29     1        0.109591   310533.446191    ;  uncertainty r = 0.000042, k = 1.839131
         3        30     1        0.109591   310533.446191    ;  uncertainty r = 0.000042, k = 1.839131
         4         5     1        0.153676   203189.253955    ;  uncertainty r = 0.000166, k = 7.266039
         4        22     1        0.152893   210290.409033    ;  uncertainty r = 0.000125, k = 13.841204
         4        23     1        0.155122   197292.186353    ;  uncertainty r = 0.000211, k = 49.108609
         5         6     1        0.153984   208345.081421    ;  uncertainty r = 0.000236, k = 11.142860
         5        31     1        0.109591   310533.446191    ;  uncertainty r = 0.000042, k = 1.839131
         5        32     1        0.109591   310533.446191    ;  uncertainty r = 0.000042, k = 1.839131
         6        33     1        0.109503   307134.737842    ;  uncertainty r = 0.000046, k = 1.976431
         6        34     1        0.109503   307134.737842    ;  uncertainty r = 0.000046, k = 1.976431
         7         8     1        0.140188   325095.165625    ;  uncertainty r = 0.000116, k = 6.322335
         7        12     1        0.140022   347487.533203    ;  uncertainty r = 0.000049, k = 4.325305
         7        13     1        0.148381   285273.337842    ;  uncertainty r = 0.000170, k = 14.020450
         8         9     1        0.140081   338158.290869    ;  uncertainty r = 0.000066, k = 1.557491
         8        20     1        0.174228   186667.254932    ;  uncertainty r = 0.000057, k = 4.731528
         9        10     1        0.139432   364703.069043    ;  uncertainty r = 0.000027, k = 3.877522
         9        19     1        0.174626   190975.416357    ;  uncertainty r = 0.000065, k = 1.953790
        10        11     1        0.139275   380193.470996    ;  uncertainty r = 0.000019, k = 0.375563
        10        35     1        0.108658   335617.322949    ;  uncertainty r = 0.000011, k = 0.544911
        11        12     1        0.139222   371106.856738    ;  uncertainty r = 0.000025, k = 1.271468
        11        36     1        0.108744   332681.066113    ;  uncertainty r = 0.000006, k = 1.317294
        12        37     1        0.108655   332465.532910    ;  uncertainty r = 0.000021, k = 1.100534
        13        14     1        0.131988   361169.422607    ;  uncertainty r = 0.000250, k = 31.459484
        13        18     1        0.139545   403635.464844    ;  uncertainty r = 0.000444, k = 28.576733
        14        15     1        0.132321   400587.508691    ;  uncertainty r = 0.000258, k = 24.611548
        15        16     1        0.141269   332622.126465    ;  uncertainty r = 0.000342, k = 37.335603
        15        24     1        0.148815   240328.791455    ;  uncertainty r = 0.000356, k = 26.077701
        16        17     1        0.135645   362000.119238    ;  uncertainty r = 0.000369, k = 30.775050
        17        18     1        0.135758   498846.337988    ;  uncertainty r = 0.000235, k = 27.896377
        18        21     1        0.140923   487971.359961    ;  uncertainty r = 0.000332, k = 38.320920
        21        38     1        0.101788   426937.489795    ;  uncertainty r = 0.000055, k = 2.235148
        21        39     1        0.101788   426937.489795    ;  uncertainty r = 0.000055, k = 2.235148
        22        45     1        0.109485   313302.332813    ;  uncertainty r = 0.000023, k = 3.037335
        22        46     1        0.109485   313302.332813    ;  uncertainty r = 0.000023, k = 3.037335
        22        47     1        0.109485   313302.332813    ;  uncertainty r = 0.000023, k = 3.037335
        23        42     1        0.102893   408930.686621    ;  uncertainty r = 0.000060, k = 6.495000
        23        43     1        0.102893   408930.686621    ;  uncertainty r = 0.000060, k = 6.495000
        23        44     1        0.102893   408930.686621    ;  uncertainty r = 0.000060, k = 6.495000
        24        25     1        0.138699   438258.984180    ;  uncertainty r = 0.000170, k = 11.927687
        24        26     1        0.124187   833668.384277    ;  uncertainty r = 0.000108, k = 5.555435
        25        40     1        0.101692   427309.029199    ;  uncertainty r = 0.000064, k = 1.746247
        25        41     1        0.101692   427309.029199    ;  uncertainty r = 0.000064, k = 1.746257

[ angles ]
;       ai        aj        ak funct           theta             cth
         1         2         3     1      109.813438      680.424405    ;  uncertainty theta = 0.002904, k = 0.131885
         1         2        27     1      107.285629      446.193409    ;  uncertainty theta = 0.002031, k = 0.057149
         1         2        28     1      107.285629      446.193409    ;  uncertainty theta = 0.002031, k = 0.057149
         1         6         5     1      109.813438      680.424405    ;  uncertainty theta = 0.002904, k = 0.131885
         1         6        33     1      107.285629      446.193409    ;  uncertainty theta = 0.002031, k = 0.057149
         1         6        34     1      107.285629      446.193409    ;  uncertainty theta = 0.002031, k = 0.057149
         1        16        15     1      117.319275      410.119018    ;  uncertainty theta = 0.015623, k = 0.305115
         1        16        17     1      122.353271      653.225468    ;  uncertainty theta = 0.005823, k = 0.243318
         2         1         6     1      108.277855      407.688491    ;  uncertainty theta = 0.009343, k = 0.210585
         2         1        16     1      111.570969      407.151638    ;  uncertainty theta = 0.003976, k = 0.053339
         2         3         4     1      110.155930      546.827591    ;  uncertainty theta = 0.002938, k = 0.078864
         2         3        29     1      108.262779      399.825775    ;  uncertainty theta = 0.001155, k = 0.108335
         2         3        30     1      108.262779      399.825775    ;  uncertainty theta = 0.001155, k = 0.108335
         3         2        27     1      108.701111      413.537064    ;  uncertainty theta = 0.003339, k = 0.101452
         3         2        28     1      108.701111      413.537064    ;  uncertainty theta = 0.003339, k = 0.101452
         3         4         5     1      110.679581      579.870632    ;  uncertainty theta = 0.006768, k = 0.197925
         3         4        22     1      111.976845      573.046350    ;  uncertainty theta = 0.003349, k = 0.044873
         3         4        23     1      107.283340      684.092874    ;  uncertainty theta = 0.005196, k = 0.323364
         4         3        29     1      107.183029      390.978316    ;  uncertainty theta = 0.002183, k = 0.173231
         4         3        30     1      107.183029      390.978316    ;  uncertainty theta = 0.002183, k = 0.173231
         4         5         6     1      110.155930      546.827591    ;  uncertainty theta = 0.002938, k = 0.078864
         4         5        31     1      107.183029      390.978316    ;  uncertainty theta = 0.002183, k = 0.173231
         4         5        32     1      107.183029      390.978316    ;  uncertainty theta = 0.002183, k = 0.173231
         4        22        45     1      107.456223      389.152796    ;  uncertainty theta = 0.000505, k = 0.034813
         4        22        46     1      107.456223      389.152796    ;  uncertainty theta = 0.000505, k = 0.034813
         4        22        47     1      107.456223      389.152796    ;  uncertainty theta = 0.000505, k = 0.034813
         4        23        42     1      110.464333      409.034552    ;  uncertainty theta = 0.003988, k = 0.162351
         4        23        43     1      110.464333      409.034552    ;  uncertainty theta = 0.003988, k = 0.162351
         4        23        44     1      110.464333      409.034552    ;  uncertainty theta = 0.003988, k = 0.162351
         5         4        22     1      111.976845      573.046350    ;  uncertainty theta = 0.003349, k = 0.044873
         5         4        23     1      107.283340      684.092874    ;  uncertainty theta = 0.005196, k = 0.323364
         5         6        33     1      108.701111      413.537064    ;  uncertainty theta = 0.003339, k = 0.101452
         5         6        34     1      108.701111      413.537064    ;  uncertainty theta = 0.003339, k = 0.101452
         6         1        16     1      111.570969      407.151638    ;  uncertainty theta = 0.003976, k = 0.053339
         6         5        31     1      108.262779      399.825775    ;  uncertainty theta = 0.001155, k = 0.108335
         6         5        32     1      108.262779      399.825775    ;  uncertainty theta = 0.001155, k = 0.108335
         7         8         9     1      123.955666      372.533053    ;  uncertainty theta = 0.005030, k = 0.183533
         7         8        20     1      117.608032      413.527105    ;  uncertainty theta = 0.004037, k = 0.094239
         7        12        11     1      121.216110      521.516102    ;  uncertainty theta = 0.002196, k = 0.033100
         7        12        37     1      118.472679      273.372426    ;  uncertainty theta = 0.003038, k = 0.080077
         7        13        14     1      118.583351      432.288421    ;  uncertainty theta = 0.007969, k = 0.197710
         7        13        18     1      120.563927      330.996243    ;  uncertainty theta = 0.007042, k = 0.463090
         8         7        12     1      121.680763      400.849749    ;  uncertainty theta = 0.004346, k = 0.238915
         8         7        13     1      120.033813      367.398849    ;  uncertainty theta = 0.001608, k = 0.105692
         8         9        10     1      121.600662      355.472030    ;  uncertainty theta = 0.004430, k = 0.117176
         8         9        19     1      120.568947      449.474768    ;  uncertainty theta = 0.001428, k = 0.087847
         9         8        20     1      120.137085      453.066019    ;  uncertainty theta = 0.003161, k = 0.095973
         9        10        11     1      118.521408      504.243759    ;  uncertainty theta = 0.003727, k = 0.077042
         9        10        35     1      119.895508      282.330875    ;  uncertainty theta = 0.002549, k = 0.077648
        10         9        19     1      120.234840      454.908777    ;  uncertainty theta = 0.002092, k = 0.126480
        10        11        12     1      119.323929      506.342974    ;  uncertainty theta = 0.002723, k = 0.050820
        10        11        36     1      120.122826      285.662511    ;  uncertainty theta = 0.000443, k = 0.032129
        11        10        35     1      121.361893      281.867473    ;  uncertainty theta = 0.001546, k = 0.022762
        11        12        37     1      120.750656      291.201861    ;  uncertainty theta = 0.001707, k = 0.042747
        12         7        13     1      120.990685      398.487503    ;  uncertainty theta = 0.001797, k = 0.119422
        12        11        36     1      120.387840      283.633108    ;  uncertainty theta = 0.001257, k = 0.017514
        13        14        15     1      126.409256      483.512830    ;  uncertainty theta = 0.005382, k = 0.570034
        13        18        17     1      119.623093      468.554691    ;  uncertainty theta = 0.007241, k = 0.044059
        13        18        21     1      122.245529      451.736909    ;  uncertainty theta = 0.006912, k = 0.362296
        14        13        18     1      118.956337      476.919308    ;  uncertainty theta = 0.008202, k = 0.636317
        14        15        16     1      123.120285      526.777449    ;  uncertainty theta = 0.011154, k = 0.327383
        14        15        24     1      113.483444      462.727059    ;  uncertainty theta = 0.009175, k = 0.128640
        15        16        17     1      123.180038      456.355199    ;  uncertainty theta = 0.010787, k = 0.479917
        15        24        25     1      111.622787      433.668733    ;  uncertainty theta = 0.009262, k = 0.310192
        15        24        26     1      122.451614      445.638998    ;  uncertainty theta = 0.002915, k = 0.185126
        16        15        24     1      124.340271      362.084960    ;  uncertainty theta = 0.009563, k = 0.370969
        16        17        18     1      121.450058      468.285626    ;  uncertainty theta = 0.012074, k = 0.329491
        17        18        21     1      126.680298      935.268859    ;  uncertainty theta = 0.005215, k = 0.188140
        18        21        38     1      117.333664      387.910160    ;  uncertainty theta = 0.002197, k = 0.192931
        18        21        39     1      117.333664      387.910160    ;  uncertainty theta = 0.002197, k = 0.192931
        22         4        23     1      107.732376      711.715791    ;  uncertainty theta = 0.003143, k = 0.202828
        24        25        40     1      115.702660      344.923065    ;  uncertainty theta = 0.003439, k = 0.132325
        24        25        41     1      115.702660      344.923065    ;  uncertainty theta = 0.003439, k = 0.132325
        25        24        26     1      126.937012      927.161529    ;  uncertainty theta = 0.002659, k = 0.063084
        27         2        28     1      105.522095      324.725701    ;  uncertainty theta = 0.002846, k = 0.044020
        29         3        30     1      106.069984      314.890881    ;  uncertainty theta = 0.002539, k = 0.094492
        31         5        32     1      106.069984      314.890881    ;  uncertainty theta = 0.002539, k = 0.094492
        33         6        34     1      105.522095      324.725701    ;  uncertainty theta = 0.002846, k = 0.044020
        38        21        39     1      108.264320      277.112176    ;  uncertainty theta = 0.001999, k = 0.081832
        40        25        41     1      110.201126      262.923566    ;  uncertainty theta = 0.001791, k = 0.109819
        42        23        43     1      108.017105      374.242188    ;  uncertainty theta = 0.003302, k = 0.129445
        42        23        44     1      108.017105      374.242188    ;  uncertainty theta = 0.003302, k = 0.129445
        43        23        44     1      108.017105      374.242188    ;  uncertainty theta = 0.003302, k = 0.129445
        45        22        46     1      105.936523      319.817118    ;  uncertainty theta = 0.000605, k = 0.051303
        45        22        47     1      105.936523      319.817118    ;  uncertainty theta = 0.000605, k = 0.051303
        46        22        47     1      105.936523      319.817118    ;  uncertainty theta = 0.000605, k = 0.051303

[ dihedrals ] ; propers for gromacs 4.5 or higher, use funct 9
;       ai        aj        ak        al funct           phase               k        pn
         1         2         3         4     9        0.000000        2.881534         1    ;  uncertainty k = 2.346797
         1         2         3         4     9      180.000000       -4.137439         2    ;  uncertainty k = 1.044836
         1         2         3         4     9        0.000000        1.987708         3    ;  uncertainty k = 0.345031
         1         2         3         4     9      180.000000       -0.460791         4    ;  uncertainty k = 0.202938
         1         2         3        29     9        0.000000       -1.964167         1    ;  uncertainty k = 0.769901
         1         2         3        29     9      180.000000        0.100267         2    ;  uncertainty k = 0.530423
         1         2         3        29     9        0.000000        1.248742         3    ;  uncertainty k = 0.278066
         1         2         3        29     9      180.000000       -0.223499         4    ;  uncertainty k = 0.068648
         1         2         3        30     9        0.000000       -1.964167         1    ;  uncertainty k = 0.769901
         1         2         3        30     9      180.000000        0.100267         2    ;  uncertainty k = 0.530423
         1         2         3        30     9        0.000000        1.248742         3    ;  uncertainty k = 0.278066
         1         2         3        30     9      180.000000       -0.223499         4    ;  uncertainty k = 0.068648
         1         6         5         4     9        0.000000        2.881534         1    ;  uncertainty k = 2.346797
         1         6         5         4     9      180.000000       -4.137439         2    ;  uncertainty k = 1.044836
         1         6         5         4     9        0.000000        1.987708         3    ;  uncertainty k = 0.345031
         1         6         5         4     9      180.000000       -0.460791         4    ;  uncertainty k = 0.202938
         1         6         5        31     9        0.000000       -1.964167         1    ;  uncertainty k = 0.769901
         1         6         5        31     9      180.000000        0.100267         2    ;  uncertainty k = 0.530423
         1         6         5        31     9        0.000000        1.248742         3    ;  uncertainty k = 0.278066
         1         6         5        31     9      180.000000       -0.223499         4    ;  uncertainty k = 0.068648
         1         6         5        32     9        0.000000       -1.964167         1    ;  uncertainty k = 0.769901
         1         6         5        32     9      180.000000        0.100267         2    ;  uncertainty k = 0.530423
         1         6         5        32     9        0.000000        1.248742         3    ;  uncertainty k = 0.278066
         1         6         5        32     9      180.000000       -0.223499         4    ;  uncertainty k = 0.068648
         1        16        15        14     9        0.000000        0.412548         1    ;  uncertainty k = 1.410541
         1        16        15        14     9      180.000000        2.960407         2    ;  uncertainty k = 1.934333
         1        16        15        14     9        0.000000        0.469155         3    ;  uncertainty k = 0.217735
         1        16        15        14     9      180.000000        0.902107         4    ;  uncertainty k = 0.691447
         1        16        15        24     9        0.000000        0.013407         1    ;  uncertainty k = 2.758814
         1        16        15        24     9      180.000000        3.662960         2    ;  uncertainty k = 1.202765
         1        16        15        24     9        0.000000        0.437279         3    ;  uncertainty k = 0.761891
         1        16        15        24     9      180.000000        0.612920         4    ;  uncertainty k = 0.381708
         1        16        17        18     9        0.000000        0.207317         1    ;  uncertainty k = 0.929819
         1        16        17        18     9      180.000000       14.364372         2    ;  uncertainty k = 0.560472
         1        16        17        18     9        0.000000        2.287771         3    ;  uncertainty k = 0.460593
         1        16        17        18     9      180.000000        1.436608         4    ;  uncertainty k = 0.502575
         2         1         6         5     9        0.000000       -6.887586         1    ;  uncertainty k = 2.267029
         2         1         6         5     9      180.000000        0.559335         2    ;  uncertainty k = 0.955813
         2         1         6         5     9        0.000000        1.079034         3    ;  uncertainty k = 0.623710
         2         1         6         5     9      180.000000       -0.378238         4    ;  uncertainty k = 0.136480
         2         1         6        33     9        0.000000       -5.852366         1    ;  uncertainty k = 1.695297
         2         1         6        33     9      180.000000        0.708327         2    ;  uncertainty k = 0.163892
         2         1         6        33     9        0.000000        0.767479         3    ;  uncertainty k = 0.109015
         2         1         6        33     9      180.000000       -0.081149         4    ;  uncertainty k = 0.130989
         2         1         6        34     9        0.000000       -5.852366         1    ;  uncertainty k = 1.695297
         2         1         6        34     9      180.000000        0.708327         2    ;  uncertainty k = 0.163892
         2         1         6        34     9        0.000000        0.767479         3    ;  uncertainty k = 0.109015
         2         1         6        34     9      180.000000       -0.081149         4    ;  uncertainty k = 0.130989
         2         1        16        15     9        0.000000        2.244617         1    ;  uncertainty k = 2.129726
         2         1        16        15     9      180.000000        9.134279         2    ;  uncertainty k = 0.301799
         2         1        16        15     9        0.000000       -0.303713         3    ;  uncertainty k = 0.471504
         2         1        16        15     9      180.000000        0.252578         4    ;  uncertainty k = 0.120826
         2         1        16        17     9        0.000000        7.319523         1    ;  uncertainty k = 1.072279
         2         1        16        17     9      180.000000       12.618381         2    ;  uncertainty k = 0.261549
         2         1        16        17     9        0.000000        0.348031         3    ;  uncertainty k = 0.231555
         2         1        16        17     9      180.000000        0.065160         4    ;  uncertainty k = 0.151621
         2         3         4         5     9        0.000000       -2.113752         1    ;  uncertainty k = 2.002551
         2         3         4         5     9      180.000000        0.461960         2    ;  uncertainty k = 0.583872
         2         3         4         5     9        0.000000        0.641392         3    ;  uncertainty k = 0.439517
         2         3         4         5     9      180.000000       -1.016434         4    ;  uncertainty k = 0.206131
         2         3         4        22     9        0.000000       -4.912512         1    ;  uncertainty k = 0.907489
         2         3         4        22     9      180.000000        1.312433         2    ;  uncertainty k = 0.393677
         2         3         4        22     9        0.000000        0.507130         3    ;  uncertainty k = 0.332003
         2         3         4        22     9      180.000000       -0.195781         4    ;  uncertainty k = 0.108868
         2         3         4        23     9        0.000000       -5.036733         1    ;  uncertainty k = 1.237107
         2         3         4        23     9      180.000000       -1.202178         2    ;  uncertainty k = 1.450497
         2         3         4        23     9        0.000000        1.021583         3    ;  uncertainty k = 0.384992
         2         3         4        23     9      180.000000        0.223167         4    ;  uncertainty k = 0.143011
         3         2         1         6     9        0.000000       -6.887586         1    ;  uncertainty k = 2.267029
         3         2         1         6     9      180.000000        0.559335         2    ;  uncertainty k = 0.955813
         3         2         1         6     9        0.000000        1.079034         3    ;  uncertainty k = 0.623710
         3         2         1         6     9      180.000000       -0.378238         4    ;  uncertainty k = 0.136480
         3         2         1        16     9        0.000000       -2.520015         1    ;  uncertainty k = 0.746887
         3         2         1        16     9      180.000000        0.214521         2    ;  uncertainty k = 0.357281
         3         2         1        16     9        0.000000        0.030808         3    ;  uncertainty k = 0.070606
         3         2         1        16     9      180.000000        0.221286         4    ;  uncertainty k = 0.105817
         3         4         5         6     9        0.000000       -2.113752         1    ;  uncertainty k = 2.002551
         3         4         5         6     9      180.000000        0.461960         2    ;  uncertainty k = 0.583872
         3         4         5         6     9        0.000000        0.641392         3    ;  uncertainty k = 0.439517
         3         4         5         6     9      180.000000       -1.016434         4    ;  uncertainty k = 0.206131
         3         4         5        31     9        0.000000       -1.032717         1    ;  uncertainty k = 0.277218
         3         4         5        31     9      180.000000       -0.372391         2    ;  uncertainty k = 0.195211
         3         4         5        31     9        0.000000       -0.016948         3    ;  uncertainty k = 0.088966
         3         4         5        31     9      180.000000       -0.099463         4    ;  uncertainty k = 0.056988
         3         4         5        32     9        0.000000       -1.032717         1    ;  uncertainty k = 0.277218
         3         4         5        32     9      180.000000       -0.372391         2    ;  uncertainty k = 0.195211
         3         4         5        32     9        0.000000       -0.016948         3    ;  uncertainty k = 0.088966
         3         4         5        32     9      180.000000       -0.099463         4    ;  uncertainty k = 0.056988
         3         4        22        45     9        0.000000       -0.895310         1    ;  uncertainty k = 0.339458
         3         4        22        45     9      180.000000       -0.491980         2    ;  uncertainty k = 0.208211
         3         4        22        45     9        0.000000        0.541905         3    ;  uncertainty k = 0.078615
         3         4        22        45     9      180.000000       -0.143850         4    ;  uncertainty k = 0.057472
         3         4        22        46     9        0.000000       -0.895310         1    ;  uncertainty k = 0.339458
         3         4        22        46     9      180.000000       -0.491980         2    ;  uncertainty k = 0.208211
         3         4        22        46     9        0.000000        0.541905         3    ;  uncertainty k = 0.078615
         3         4        22        46     9      180.000000       -0.143850         4    ;  uncertainty k = 0.057472
         3         4        22        47     9        0.000000       -0.895310         1    ;  uncertainty k = 0.339458
         3         4        22        47     9      180.000000       -0.491980         2    ;  uncertainty k = 0.208211
         3         4        22        47     9        0.000000        0.541905         3    ;  uncertainty k = 0.078615
         3         4        22        47     9      180.000000       -0.143850         4    ;  uncertainty k = 0.057472
         3         4        23        42     9        0.000000       -0.347105         1    ;  uncertainty k = 1.193620
         3         4        23        42     9      180.000000       -0.225843         2    ;  uncertainty k = 0.264572
         3         4        23        42     9        0.000000        0.751154         3    ;  uncertainty k = 0.137670
         3         4        23        42     9      180.000000       -0.116187         4    ;  uncertainty k = 0.103302
         3         4        23        43     9        0.000000       -0.347105         1    ;  uncertainty k = 1.193620
         3         4        23        43     9      180.000000       -0.225843         2    ;  uncertainty k = 0.264572
         3         4        23        43     9        0.000000        0.751154         3    ;  uncertainty k = 0.137670
         3         4        23        43     9      180.000000       -0.116187         4    ;  uncertainty k = 0.103302
         3         4        23        44     9        0.000000       -0.347105         1    ;  uncertainty k = 1.193620
         3         4        23        44     9      180.000000       -0.225843         2    ;  uncertainty k = 0.264572
         3         4        23        44     9        0.000000        0.751154         3    ;  uncertainty k = 0.137670
         3         4        23        44     9      180.000000       -0.116187         4    ;  uncertainty k = 0.103302
         4         3         2        27     9        0.000000        3.076838         1    ;  uncertainty k = 1.131621
         4         3         2        27     9      180.000000       -2.738824         2    ;  uncertainty k = 0.227782
         4         3         2        27     9        0.000000        0.026960         3    ;  uncertainty k = 0.134481
         4         3         2        27     9      180.000000        0.275305         4    ;  uncertainty k = 0.074077
         4         3         2        28     9        0.000000        3.076838         1    ;  uncertainty k = 1.131621
         4         3         2        28     9      180.000000       -2.738824         2    ;  uncertainty k = 0.227782
         4         3         2        28     9        0.000000        0.026960         3    ;  uncertainty k = 0.134481
         4         3         2        28     9      180.000000        0.275305         4    ;  uncertainty k = 0.074077
         4         5         6        33     9        0.000000        3.076838         1    ;  uncertainty k = 1.131621
         4         5         6        33     9      180.000000       -2.738824         2    ;  uncertainty k = 0.227782
         4         5         6        33     9        0.000000        0.026960         3    ;  uncertainty k = 0.134481
         4         5         6        33     9      180.000000        0.275305         4    ;  uncertainty k = 0.074077
         4         5         6        34     9        0.000000        3.076838         1    ;  uncertainty k = 1.131621
         4         5         6        34     9      180.000000       -2.738824         2    ;  uncertainty k = 0.227782
         4         5         6        34     9        0.000000        0.026960         3    ;  uncertainty k = 0.134481
         4         5         6        34     9      180.000000        0.275305         4    ;  uncertainty k = 0.074077
         5         4         3        29     9        0.000000       -1.032717         1    ;  uncertainty k = 0.277218
         5         4         3        29     9      180.000000       -0.372391         2    ;  uncertainty k = 0.195211
         5         4         3        29     9        0.000000       -0.016948         3    ;  uncertainty k = 0.088966
         5         4         3        29     9      180.000000       -0.099463         4    ;  uncertainty k = 0.056988
         5         4         3        30     9        0.000000       -1.032717         1    ;  uncertainty k = 0.277218
         5         4         3        30     9      180.000000       -0.372391         2    ;  uncertainty k = 0.195211
         5         4         3        30     9        0.000000       -0.016948         3    ;  uncertainty k = 0.088966
         5         4         3        30     9      180.000000       -0.099463         4    ;  uncertainty k = 0.056988
         5         4        22        45     9        0.000000       -0.895310         1    ;  uncertainty k = 0.339458
         5         4        22        45     9      180.000000       -0.491980         2    ;  uncertainty k = 0.208211
         5         4        22        45     9        0.000000        0.541905         3    ;  uncertainty k = 0.078615
         5         4        22        45     9      180.000000       -0.143850         4    ;  uncertainty k = 0.057472
         5         4        22        46     9        0.000000       -0.895310         1    ;  uncertainty k = 0.339458
         5         4        22        46     9      180.000000       -0.491980         2    ;  uncertainty k = 0.208211
         5         4        22        46     9        0.000000        0.541905         3    ;  uncertainty k = 0.078615
         5         4        22        46     9      180.000000       -0.143850         4    ;  uncertainty k = 0.057472
         5         4        22        47     9        0.000000       -0.895310         1    ;  uncertainty k = 0.339458
         5         4        22        47     9      180.000000       -0.491980         2    ;  uncertainty k = 0.208211
         5         4        22        47     9        0.000000        0.541905         3    ;  uncertainty k = 0.078615
         5         4        22        47     9      180.000000       -0.143850         4    ;  uncertainty k = 0.057472
         5         4        23        42     9        0.000000       -0.347105         1    ;  uncertainty k = 1.193620
         5         4        23        42     9      180.000000       -0.225843         2    ;  uncertainty k = 0.264572
         5         4        23        42     9        0.000000        0.751154         3    ;  uncertainty k = 0.137670
         5         4        23        42     9      180.000000       -0.116187         4    ;  uncertainty k = 0.103302
         5         4        23        43     9        0.000000       -0.347105         1    ;  uncertainty k = 1.193620
         5         4        23        43     9      180.000000       -0.225843         2    ;  uncertainty k = 0.264572
         5         4        23        43     9        0.000000        0.751154         3    ;  uncertainty k = 0.137670
         5         4        23        43     9      180.000000       -0.116187         4    ;  uncertainty k = 0.103302
         5         4        23        44     9        0.000000       -0.347105         1    ;  uncertainty k = 1.193620
         5         4        23        44     9      180.000000       -0.225843         2    ;  uncertainty k = 0.264572
         5         4        23        44     9        0.000000        0.751154         3    ;  uncertainty k = 0.137670
         5         4        23        44     9      180.000000       -0.116187         4    ;  uncertainty k = 0.103302
         5         6         1        16     9        0.000000       -2.520015         1    ;  uncertainty k = 0.746887
         5         6         1        16     9      180.000000        0.214521         2    ;  uncertainty k = 0.357281
         5         6         1        16     9        0.000000        0.030808         3    ;  uncertainty k = 0.070606
         5         6         1        16     9      180.000000        0.221286         4    ;  uncertainty k = 0.105817
         6         1         2        27     9        0.000000       -5.852366         1    ;  uncertainty k = 1.695297
         6         1         2        27     9      180.000000        0.708327         2    ;  uncertainty k = 0.163892
         6         1         2        27     9        0.000000        0.767479         3    ;  uncertainty k = 0.109015
         6         1         2        27     9      180.000000       -0.081149         4    ;  uncertainty k = 0.130989
         6         1         2        28     9        0.000000       -5.852366         1    ;  uncertainty k = 1.695297
         6         1         2        28     9      180.000000        0.708327         2    ;  uncertainty k = 0.163892
         6         1         2        28     9        0.000000        0.767479         3    ;  uncertainty k = 0.109015
         6         1         2        28     9      180.000000       -0.081149         4    ;  uncertainty k = 0.130989
         6         1        16        15     9        0.000000        2.244617         1    ;  uncertainty k = 2.129726
         6         1        16        15     9      180.000000        9.134279         2    ;  uncertainty k = 0.301799
         6         1        16        15     9        0.000000       -0.303713         3    ;  uncertainty k = 0.471504
         6         1        16        15     9      180.000000        0.252578         4    ;  uncertainty k = 0.120826
         6         1        16        17     9        0.000000        7.319523         1    ;  uncertainty k = 1.072279
         6         1        16        17     9      180.000000       12.618381         2    ;  uncertainty k = 0.261549
         6         1        16        17     9        0.000000        0.348031         3    ;  uncertainty k = 0.231555
         6         1        16        17     9      180.000000        0.065160         4    ;  uncertainty k = 0.151621
         6         5         4        22     9        0.000000       -4.912512         1    ;  uncertainty k = 0.907489
         6         5         4        22     9      180.000000        1.312433         2    ;  uncertainty k = 0.393677
         6         5         4        22     9        0.000000        0.507130         3    ;  uncertainty k = 0.332003
         6         5         4        22     9      180.000000       -0.195781         4    ;  uncertainty k = 0.108868
         6         5         4        23     9        0.000000       -5.036733         1    ;  uncertainty k = 1.237107
         6         5         4        23     9      180.000000       -1.202178         2    ;  uncertainty k = 1.450497
         6         5         4        23     9        0.000000        1.021583         3    ;  uncertainty k = 0.384992
         6         5         4        23     9      180.000000        0.223167         4    ;  uncertainty k = 0.143011
         7         8         9        10     9        0.000000       -0.185469         1    ;  uncertainty k = 0.363785
         7         8         9        10     9      180.000000        5.431896         2    ;  uncertainty k = 0.875419
         7         8         9        10     9        0.000000        0.573401         3    ;  uncertainty k = 0.202083
         7         8         9        10     9      180.000000        1.373098         4    ;  uncertainty k = 0.301057
         7         8         9        19     9        0.000000        0.274226         1    ;  uncertainty k = 0.183645
         7         8         9        19     9      180.000000        6.848583         2    ;  uncertainty k = 0.636488
         7         8         9        19     9        0.000000        1.485802         3    ;  uncertainty k = 0.246230
         7         8         9        19     9      180.000000        1.767267         4    ;  uncertainty k = 0.161034
         7        12        11        10     9        0.000000       -0.013791         1    ;  uncertainty k = 0.168361
         7        12        11        10     9      180.000000       13.712470         2    ;  uncertainty k = 0.396383
         7        12        11        10     9        0.000000       -0.896600         3    ;  uncertainty k = 0.381734
         7        12        11        10     9      180.000000        0.749425         4    ;  uncertainty k = 0.240501
         7        12        11        36     9        0.000000        0.084857         1    ;  uncertainty k = 0.115266
         7        12        11        36     9      180.000000        7.228988         2    ;  uncertainty k = 0.322407
         7        12        11        36     9        0.000000        1.386567         3    ;  uncertainty k = 0.119753
         7        12        11        36     9      180.000000        1.848777         4    ;  uncertainty k = 0.119197
         7        13        14        15     9        0.000000        0.294806         1    ;  uncertainty k = 0.741112
         7        13        14        15     9      180.000000       17.187071         2    ;  uncertainty k = 0.574305
         7        13        14        15     9        0.000000        2.309324         3    ;  uncertainty k = 0.270353
         7        13        14        15     9      180.000000        1.537618         4    ;  uncertainty k = 0.217652
         7        13        18        17     9        0.000000       -0.369755         1    ;  uncertainty k = 0.778438
         7        13        18        17     9      180.000000        4.210392         2    ;  uncertainty k = 0.936000
         7        13        18        17     9        0.000000       -0.040049         3    ;  uncertainty k = 0.463584
         7        13        18        17     9      180.000000        0.779726         4    ;  uncertainty k = 0.509075
         7        13        18        21     9        0.000000        0.277567         1    ;  uncertainty k = 1.179861
         7        13        18        21     9      180.000000        4.445890         2    ;  uncertainty k = 0.998243
         7        13        18        21     9        0.000000        0.460988         3    ;  uncertainty k = 0.473745
         7        13        18        21     9      180.000000        0.558787         4    ;  uncertainty k = 0.384365
         8         7        12        11     9        0.000000       -0.148717         1    ;  uncertainty k = 0.121625
         8         7        12        11     9      180.000000       10.385738         2    ;  uncertainty k = 0.364615
         8         7        12        11     9        0.000000       -0.051428         3    ;  uncertainty k = 0.262911
         8         7        12        11     9      180.000000        1.302129         4    ;  uncertainty k = 0.351018
         8         7        12        37     9        0.000000        0.205926         1    ;  uncertainty k = 0.276878
         8         7        12        37     9      180.000000        7.062664         2    ;  uncertainty k = 0.437750
         8         7        12        37     9        0.000000        1.288910         3    ;  uncertainty k = 0.264887
         8         7        12        37     9      180.000000        1.668232         4    ;  uncertainty k = 0.165920
         8         7        13        14     9        0.000000       -1.908733         1    ;  uncertainty k = 0.994525
         8         7        13        14     9      180.000000        4.891969         2    ;  uncertainty k = 0.282442
         8         7        13        14     9        0.000000        1.131781         3    ;  uncertainty k = 0.503604
         8         7        13        14     9      180.000000        0.155788         4    ;  uncertainty k = 0.210683
         8         7        13        18     9        0.000000        3.007040         1    ;  uncertainty k = 2.244837
         8         7        13        18     9      180.000000        2.920816         2    ;  uncertainty k = 0.831188
         8         7        13        18     9        0.000000        0.991584         3    ;  uncertainty k = 0.457001
         8         7        13        18     9      180.000000        0.275247         4    ;  uncertainty k = 0.217861
         8         9        10        11     9        0.000000        0.002852         1    ;  uncertainty k = 0.111935
         8         9        10        11     9      180.000000        9.686774         2    ;  uncertainty k = 0.296867
         8         9        10        11     9        0.000000        0.091223         3    ;  uncertainty k = 0.576898
         8         9        10        11     9      180.000000        1.248193         4    ;  uncertainty k = 0.301793
         8         9        10        35     9        0.000000        0.160469         1    ;  uncertainty k = 0.115845
         8         9        10        35     9      180.000000        6.143170         2    ;  uncertainty k = 0.584636
         8         9        10        35     9        0.000000        1.422833         3    ;  uncertainty k = 0.370866
         8         9        10        35     9      180.000000        1.585209         4    ;  uncertainty k = 0.191219
         9         8         7        12     9        0.000000        0.046905         1    ;  uncertainty k = 0.624390
         9         8         7        12     9      180.000000        6.708436         2    ;  uncertainty k = 0.597777
         9         8         7        12     9        0.000000        0.414544         3    ;  uncertainty k = 0.391503
         9         8         7        12     9      180.000000        1.316760         4    ;  uncertainty k = 0.276136
         9         8         7        13     9        0.000000        0.046966         1    ;  uncertainty k = 0.370765
         9         8         7        13     9      180.000000        6.024995         2    ;  uncertainty k = 0.338762
         9         8         7        13     9        0.000000        1.418247         3    ;  uncertainty k = 0.395507
         9         8         7        13     9      180.000000        1.813551         4    ;  uncertainty k = 0.132832
         9        10        11        12     9        0.000000        0.032379         1    ;  uncertainty k = 0.116696
         9        10        11        12     9      180.000000       14.345522         2    ;  uncertainty k = 0.160340
         9        10        11        12     9        0.000000       -1.087256         3    ;  uncertainty k = 0.625240
         9        10        11        12     9      180.000000        0.770564         4    ;  uncertainty k = 0.260775
         9        10        11        36     9        0.000000        0.039036         1    ;  uncertainty k = 0.138063
         9        10        11        36     9      180.000000        7.573958         2    ;  uncertainty k = 0.326461
         9        10        11        36     9        0.000000        1.498646         3    ;  uncertainty k = 0.240396
         9        10        11        36     9      180.000000        1.852603         4    ;  uncertainty k = 0.140866
        10         9         8        20     9        0.000000        0.141596         1    ;  uncertainty k = 0.227101
        10         9         8        20     9      180.000000        7.003529         2    ;  uncertainty k = 0.264439
        10         9         8        20     9        0.000000        1.459862         3    ;  uncertainty k = 0.224785
        10         9         8        20     9      180.000000        1.666452         4    ;  uncertainty k = 0.137453
        10        11        12        37     9        0.000000        0.069646         1    ;  uncertainty k = 0.067796
        10        11        12        37     9      180.000000        7.812868         2    ;  uncertainty k = 0.200630
        10        11        12        37     9        0.000000        1.367062         3    ;  uncertainty k = 0.299642
        10        11        12        37     9      180.000000        1.835394         4    ;  uncertainty k = 0.152349
        11        10         9        19     9        0.000000        0.138880         1    ;  uncertainty k = 0.273316
        11        10         9        19     9      180.000000        9.611408         2    ;  uncertainty k = 0.646931
        11        10         9        19     9        0.000000        1.485930         3    ;  uncertainty k = 0.454577
        11        10         9        19     9      180.000000        1.742540         4    ;  uncertainty k = 0.176936
        11        12         7        13     9        0.000000        0.179762         1    ;  uncertainty k = 0.291836
        11        12         7        13     9      180.000000        8.793343         2    ;  uncertainty k = 0.658240
        11        12         7        13     9        0.000000        1.248995         3    ;  uncertainty k = 0.350838
        11        12         7        13     9      180.000000        1.953492         4    ;  uncertainty k = 0.268614
        12         7         8        20     9        0.000000       -0.034582         1    ;  uncertainty k = 0.200059
        12         7         8        20     9      180.000000        7.928348         2    ;  uncertainty k = 0.440137
        12         7         8        20     9        0.000000        1.365354         3    ;  uncertainty k = 0.341513
        12         7         8        20     9      180.000000        1.580319         4    ;  uncertainty k = 0.164217
        12         7        13        14     9        0.000000        0.721152         1    ;  uncertainty k = 0.692579
        12         7        13        14     9      180.000000        5.455011         2    ;  uncertainty k = 0.187071
        12         7        13        14     9        0.000000        0.537243         3    ;  uncertainty k = 0.352708
        12         7        13        14     9      180.000000        0.258417         4    ;  uncertainty k = 0.150076
        12         7        13        18     9        0.000000       -0.380696         1    ;  uncertainty k = 0.947857
        12         7        13        18     9      180.000000        3.684029         2    ;  uncertainty k = 0.238916
        12         7        13        18     9        0.000000        0.539082         3    ;  uncertainty k = 0.284118
        12         7        13        18     9      180.000000        0.276452         4    ;  uncertainty k = 0.121835
        12        11        10        35     9        0.000000        0.131595         1    ;  uncertainty k = 0.106145
        12        11        10        35     9      180.000000        7.555672         2    ;  uncertainty k = 0.306483
        12        11        10        35     9        0.000000        1.476388         3    ;  uncertainty k = 0.228295
        12        11        10        35     9      180.000000        1.782294         4    ;  uncertainty k = 0.178684
        13         7         8        20     9        0.000000       -0.256971         1    ;  uncertainty k = 0.742354
        13         7         8        20     9      180.000000        7.821680         2    ;  uncertainty k = 0.344543
        13         7         8        20     9        0.000000        1.127769         3    ;  uncertainty k = 0.289351
        13         7         8        20     9      180.000000        1.456797         4    ;  uncertainty k = 0.214835
        13         7        12        37     9        0.000000       -0.198887         1    ;  uncertainty k = 0.181260
        13         7        12        37     9      180.000000        7.368930         2    ;  uncertainty k = 0.307907
        13         7        12        37     9        0.000000        0.696032         3    ;  uncertainty k = 0.363447
        13         7        12        37     9      180.000000        1.269067         4    ;  uncertainty k = 0.228522
        13        14        15        16     9        0.000000       -0.149446         1    ;  uncertainty k = 1.577402
        13        14        15        16     9      180.000000       11.385233         2    ;  uncertainty k = 0.453649
        13        14        15        16     9        0.000000        1.701492         3    ;  uncertainty k = 0.732742
        13        14        15        16     9      180.000000        1.388755         4    ;  uncertainty k = 0.207270
        13        14        15        24     9        0.000000        1.124226         1    ;  uncertainty k = 2.001376
        13        14        15        24     9      180.000000       12.956438         2    ;  uncertainty k = 0.781779
        13        14        15        24     9        0.000000        2.402990         3    ;  uncertainty k = 0.563268
        13        14        15        24     9      180.000000        1.565190         4    ;  uncertainty k = 0.393416
        13        18        17        16     9        0.000000        0.979065         1    ;  uncertainty k = 1.308290
        13        18        17        16     9      180.000000        7.799226         2    ;  uncertainty k = 0.943658
        13        18        17        16     9        0.000000        1.321682         3    ;  uncertainty k = 0.281467
        13        18        17        16     9      180.000000        1.191367         4    ;  uncertainty k = 0.640407
        13        18        21        38     9        0.000000       10.013197         1    ;  uncertainty k = 0.406075
        13        18        21        38     9      180.000000        6.907016         2    ;  uncertainty k = 0.317592
        13        18        21        38     9        0.000000        0.938779         3    ;  uncertainty k = 0.213367
        13        18        21        38     9      180.000000        0.006425         4    ;  uncertainty k = 0.108606
        13        18        21        39     9        0.000000       10.013197         1    ;  uncertainty k = 0.406075
        13        18        21        39     9      180.000000        6.907016         2    ;  uncertainty k = 0.317592
        13        18        21        39     9        0.000000        0.938779         3    ;  uncertainty k = 0.213367
        13        18        21        39     9      180.000000        0.006425         4    ;  uncertainty k = 0.108606
        14        13        18        17     9        0.000000       -0.919057         1    ;  uncertainty k = 1.334073
        14        13        18        17     9      180.000000        4.324459         2    ;  uncertainty k = 1.587958
        14        13        18        17     9        0.000000       -0.581128         3    ;  uncertainty k = 0.651540
        14        13        18        17     9      180.000000        0.734567         4    ;  uncertainty k = 0.630563
        14        13        18        21     9        0.000000        0.375474         1    ;  uncertainty k = 0.344307
        14        13        18        21     9      180.000000        4.320007         2    ;  uncertainty k = 1.085898
        14        13        18        21     9        0.000000        0.229919         3    ;  uncertainty k = 0.402110
        14        13        18        21     9      180.000000        0.704402         4    ;  uncertainty k = 0.264417
        14        15        16        17     9        0.000000       -0.163742         1    ;  uncertainty k = 1.106538
        14        15        16        17     9      180.000000        2.336455         2    ;  uncertainty k = 2.049757
        14        15        16        17     9        0.000000       -0.060934         3    ;  uncertainty k = 0.559696
        14        15        16        17     9      180.000000        0.735051         4    ;  uncertainty k = 0.409945
        14        15        24        25     9        0.000000        3.659380         1    ;  uncertainty k = 1.354786
        14        15        24        25     9      180.000000        4.127595         2    ;  uncertainty k = 0.588909
        14        15        24        25     9        0.000000       -0.648441         3    ;  uncertainty k = 0.428678
        14        15        24        25     9      180.000000        0.261740         4    ;  uncertainty k = 0.234683
        14        15        24        26     9        0.000000       -4.613413         1    ;  uncertainty k = 1.590702
        14        15        24        26     9      180.000000        3.986526         2    ;  uncertainty k = 0.389624
        14        15        24        26     9        0.000000        0.577574         3    ;  uncertainty k = 0.325485
        14        15        24        26     9      180.000000        0.123323         4    ;  uncertainty k = 0.123673
        15        14        13        18     9        0.000000        0.582661         1    ;  uncertainty k = 1.262390
        15        14        13        18     9      180.000000       14.464827         2    ;  uncertainty k = 0.299158
        15        14        13        18     9        0.000000        1.513582         3    ;  uncertainty k = 0.444450
        15        14        13        18     9      180.000000        1.175642         4    ;  uncertainty k = 0.223343
        15        16        17        18     9        0.000000        1.253312         1    ;  uncertainty k = 1.429587
        15        16        17        18     9      180.000000        6.440772         2    ;  uncertainty k = 1.297038
        15        16        17        18     9        0.000000        1.601276         3    ;  uncertainty k = 0.730283
        15        16        17        18     9      180.000000        0.754121         4    ;  uncertainty k = 0.702533
        15        24        25        40     9        0.000000        3.407663         1    ;  uncertainty k = 0.422588
        15        24        25        40     9      180.000000        8.363558         2    ;  uncertainty k = 0.515842
        15        24        25        40     9        0.000000        2.399243         3    ;  uncertainty k = 0.294233
        15        24        25        40     9      180.000000       -0.358975         4    ;  uncertainty k = 0.367359
        15        24        25        41     9        0.000000        3.407663         1    ;  uncertainty k = 0.422588
        15        24        25        41     9      180.000000        8.363558         2    ;  uncertainty k = 0.515842
        15        24        25        41     9        0.000000        2.399243         3    ;  uncertainty k = 0.294233
        15        24        25        41     9      180.000000       -0.358975         4    ;  uncertainty k = 0.367359
        16         1         2        27     9        0.000000        0.507454         1    ;  uncertainty k = 0.625478
        16         1         2        27     9      180.000000       -1.107277         2    ;  uncertainty k = 0.141964
        16         1         2        27     9        0.000000        0.083543         3    ;  uncertainty k = 0.145867
        16         1         2        27     9      180.000000        0.279280         4    ;  uncertainty k = 0.099536
        16         1         2        28     9        0.000000        0.507454         1    ;  uncertainty k = 0.625478
        16         1         2        28     9      180.000000       -1.107277         2    ;  uncertainty k = 0.141964
        16         1         2        28     9        0.000000        0.083543         3    ;  uncertainty k = 0.145867
        16         1         2        28     9      180.000000        0.279280         4    ;  uncertainty k = 0.099536
        16         1         6        33     9        0.000000        0.507454         1    ;  uncertainty k = 0.625478
        16         1         6        33     9      180.000000       -1.107277         2    ;  uncertainty k = 0.141964
        16         1         6        33     9        0.000000        0.083543         3    ;  uncertainty k = 0.145867
        16         1         6        33     9      180.000000        0.279280         4    ;  uncertainty k = 0.099536
        16         1         6        34     9        0.000000        0.507454         1    ;  uncertainty k = 0.625478
        16         1         6        34     9      180.000000       -1.107277         2    ;  uncertainty k = 0.141964
        16         1         6        34     9        0.000000        0.083543         3    ;  uncertainty k = 0.145867
        16         1         6        34     9      180.000000        0.279280         4    ;  uncertainty k = 0.099536
        16        15        24        25     9        0.000000       -0.067456         1    ;  uncertainty k = 2.490378
        16        15        24        25     9      180.000000        4.232718         2    ;  uncertainty k = 1.188472
        16        15        24        25     9        0.000000        0.610467         3    ;  uncertainty k = 0.458446
        16        15        24        25     9      180.000000        0.093177         4    ;  uncertainty k = 0.240935
        16        15        24        26     9        0.000000       -4.501456         1    ;  uncertainty k = 2.555967
        16        15        24        26     9      180.000000        3.382303         2    ;  uncertainty k = 1.082921
        16        15        24        26     9        0.000000        0.749500         3    ;  uncertainty k = 0.363924
        16        15        24        26     9      180.000000        0.085979         4    ;  uncertainty k = 0.112937
        16        17        18        21     9        0.000000        0.710314         1    ;  uncertainty k = 1.509386
        16        17        18        21     9      180.000000       13.828784         2    ;  uncertainty k = 0.246057
        16        17        18        21     9        0.000000        2.523414         3    ;  uncertainty k = 0.383346
        16        17        18        21     9      180.000000        1.638551         4    ;  uncertainty k = 0.166975
        17        16        15        24     9        0.000000        1.354277         1    ;  uncertainty k = 2.580008
        17        16        15        24     9      180.000000        2.000596         2    ;  uncertainty k = 0.792504
        17        16        15        24     9        0.000000        0.523449         3    ;  uncertainty k = 1.008353
        17        16        15        24     9      180.000000        0.837381         4    ;  uncertainty k = 0.697357
        17        18        21        38     9        0.000000       19.875903         1    ;  uncertainty k = 0.210409
        17        18        21        38     9      180.000000       11.835288         2    ;  uncertainty k = 0.247711
        17        18        21        38     9        0.000000        0.531889         3    ;  uncertainty k = 0.088383
        17        18        21        38     9      180.000000       -0.385584         4    ;  uncertainty k = 0.243170
        17        18        21        39     9        0.000000       19.875903         1    ;  uncertainty k = 0.210409
        17        18        21        39     9      180.000000       11.835288         2    ;  uncertainty k = 0.247711
        17        18        21        39     9        0.000000        0.531889         3    ;  uncertainty k = 0.088383
        17        18        21        39     9      180.000000       -0.385584         4    ;  uncertainty k = 0.243170
        19         9         8        20     9        0.000000        0.127028         1    ;  uncertainty k = 0.458559
        19         9         8        20     9      180.000000        7.584079         2    ;  uncertainty k = 0.298205
        19         9         8        20     9        0.000000        1.208450         3    ;  uncertainty k = 0.256922
        19         9         8        20     9      180.000000        1.439487         4    ;  uncertainty k = 0.242719
        19         9        10        35     9        0.000000       -0.183324         1    ;  uncertainty k = 0.309109
        19         9        10        35     9      180.000000        7.615952         2    ;  uncertainty k = 0.378043
        19         9        10        35     9        0.000000        0.553325         3    ;  uncertainty k = 0.272076
        19         9        10        35     9      180.000000        1.023076         4    ;  uncertainty k = 0.167401
        22         4         3        29     9        0.000000       -0.343026         1    ;  uncertainty k = 0.403496
        22         4         3        29     9      180.000000       -0.061672         2    ;  uncertainty k = 0.389276
        22         4         3        29     9        0.000000        0.274791         3    ;  uncertainty k = 0.213692
        22         4         3        29     9      180.000000       -0.053928         4    ;  uncertainty k = 0.077785
        22         4         3        30     9        0.000000       -0.343026         1    ;  uncertainty k = 0.403496
        22         4         3        30     9      180.000000       -0.061672         2    ;  uncertainty k = 0.389276
        22         4         3        30     9        0.000000        0.274791         3    ;  uncertainty k = 0.213692
        22         4         3        30     9      180.000000       -0.053928         4    ;  uncertainty k = 0.077785
        22         4         5        31     9        0.000000       -0.343026         1    ;  uncertainty k = 0.403496
        22         4         5        31     9      180.000000       -0.061672         2    ;  uncertainty k = 0.389276
        22         4         5        31     9        0.000000        0.274791         3    ;  uncertainty k = 0.213692
        22         4         5        31     9      180.000000       -0.053928         4    ;  uncertainty k = 0.077785
        22         4         5        32     9        0.000000       -0.343026         1    ;  uncertainty k = 0.403496
        22         4         5        32     9      180.000000       -0.061672         2    ;  uncertainty k = 0.389276
        22         4         5        32     9        0.000000        0.274791         3    ;  uncertainty k = 0.213692
        22         4         5        32     9      180.000000       -0.053928         4    ;  uncertainty k = 0.077785
        22         4        23        42     9        0.000000        0.214190         1    ;  uncertainty k = 1.165376
        22         4        23        42     9      180.000000       -0.101717         2    ;  uncertainty k = 0.387077
        22         4        23        42     9        0.000000        0.750309         3    ;  uncertainty k = 0.221539
        22         4        23        42     9      180.000000       -0.027140         4    ;  uncertainty k = 0.139765
        22         4        23        43     9        0.000000        0.214190         1    ;  uncertainty k = 1.165376
        22         4        23        43     9      180.000000       -0.101717         2    ;  uncertainty k = 0.387077
        22         4        23        43     9        0.000000        0.750309         3    ;  uncertainty k = 0.221539
        22         4        23        43     9      180.000000       -0.027140         4    ;  uncertainty k = 0.139765
        22         4        23        44     9        0.000000        0.214190         1    ;  uncertainty k = 1.165376
        22         4        23        44     9      180.000000       -0.101717         2    ;  uncertainty k = 0.387077
        22         4        23        44     9        0.000000        0.750309         3    ;  uncertainty k = 0.221539
        22         4        23        44     9      180.000000       -0.027140         4    ;  uncertainty k = 0.139765
        23         4         3        29     9        0.000000       -0.953768         1    ;  uncertainty k = 0.757470
        23         4         3        29     9      180.000000       -1.816829         2    ;  uncertainty k = 0.442934
        23         4         3        29     9        0.000000        0.532727         3    ;  uncertainty k = 0.157901
        23         4         3        29     9      180.000000       -0.244066         4    ;  uncertainty k = 0.144685
        23         4         3        30     9        0.000000       -0.953768         1    ;  uncertainty k = 0.757470
        23         4         3        30     9      180.000000       -1.816829         2    ;  uncertainty k = 0.442934
        23         4         3        30     9        0.000000        0.532727         3    ;  uncertainty k = 0.157901
        23         4         3        30     9      180.000000       -0.244066         4    ;  uncertainty k = 0.144685
        23         4         5        31     9        0.000000       -0.953768         1    ;  uncertainty k = 0.757470
        23         4         5        31     9      180.000000       -1.816829         2    ;  uncertainty k = 0.442934
        23         4         5        31     9        0.000000        0.532727         3    ;  uncertainty k = 0.157901
        23         4         5        31     9      180.000000       -0.244066         4    ;  uncertainty k = 0.144685
        23         4         5        32     9        0.000000       -0.953768         1    ;  uncertainty k = 0.757470
        23         4         5        32     9      180.000000       -1.816829         2    ;  uncertainty k = 0.442934
        23         4         5        32     9        0.000000        0.532727         3    ;  uncertainty k = 0.157901
        23         4         5        32     9      180.000000       -0.244066         4    ;  uncertainty k = 0.144685
        23         4        22        45     9        0.000000       -1.658332         1    ;  uncertainty k = 1.431247
        23         4        22        45     9      180.000000       -2.618284         2    ;  uncertainty k = 0.451255
        23         4        22        45     9        0.000000        0.778237         3    ;  uncertainty k = 0.254190
        23         4        22        45     9      180.000000       -0.194334         4    ;  uncertainty k = 0.172569
        23         4        22        46     9        0.000000       -1.658332         1    ;  uncertainty k = 1.431247
        23         4        22        46     9      180.000000       -2.618284         2    ;  uncertainty k = 0.451255
        23         4        22        46     9        0.000000        0.778237         3    ;  uncertainty k = 0.254190
        23         4        22        46     9      180.000000       -0.194334         4    ;  uncertainty k = 0.172569
        23         4        22        47     9        0.000000       -1.658332         1    ;  uncertainty k = 1.431247
        23         4        22        47     9      180.000000       -2.618284         2    ;  uncertainty k = 0.451255
        23         4        22        47     9        0.000000        0.778237         3    ;  uncertainty k = 0.254190
        23         4        22        47     9      180.000000       -0.194334         4    ;  uncertainty k = 0.172569
        26        24        25        40     9        0.000000        4.201957         1    ;  uncertainty k = 1.007130
        26        24        25        40     9      180.000000       13.869593         2    ;  uncertainty k = 0.187271
        26        24        25        40     9        0.000000        2.402573         3    ;  uncertainty k = 0.296876
        26        24        25        40     9      180.000000       -0.052068         4    ;  uncertainty k = 0.320717
        26        24        25        41     9        0.000000        4.201957         1    ;  uncertainty k = 1.007130
        26        24        25        41     9      180.000000       13.869593         2    ;  uncertainty k = 0.187271
        26        24        25        41     9        0.000000        2.402573         3    ;  uncertainty k = 0.296876
        26        24        25        41     9      180.000000       -0.052068         4    ;  uncertainty k = 0.320717
        27         2         3        29     9        0.000000        0.168833         1    ;  uncertainty k = 0.252227
        27         2         3        29     9      180.000000        0.410860         2    ;  uncertainty k = 0.376541
        27         2         3        29     9        0.000000        0.134992         3    ;  uncertainty k = 0.092337
        27         2         3        29     9      180.000000       -0.139821         4    ;  uncertainty k = 0.141366
        27         2         3        30     9        0.000000        0.168833         1    ;  uncertainty k = 0.252227
        27         2         3        30     9      180.000000        0.410860         2    ;  uncertainty k = 0.376541
        27         2         3        30     9        0.000000        0.134992         3    ;  uncertainty k = 0.092337
        27         2         3        30     9      180.000000       -0.139821         4    ;  uncertainty k = 0.141366
        28         2         3        29     9        0.000000        0.168833         1    ;  uncertainty k = 0.252227
        28         2         3        29     9      180.000000        0.410860         2    ;  uncertainty k = 0.376541
        28         2         3        29     9        0.000000        0.134992         3    ;  uncertainty k = 0.092337
        28         2         3        29     9      180.000000       -0.139821         4    ;  uncertainty k = 0.141366
        28         2         3        30     9        0.000000        0.168833         1    ;  uncertainty k = 0.252227
        28         2         3        30     9      180.000000        0.410860         2    ;  uncertainty k = 0.376541
        28         2         3        30     9        0.000000        0.134992         3    ;  uncertainty k = 0.092337
        28         2         3        30     9      180.000000       -0.139821         4    ;  uncertainty k = 0.141366
        31         5         6        33     9        0.000000        0.168833         1    ;  uncertainty k = 0.252227
        31         5         6        33     9      180.000000        0.410860         2    ;  uncertainty k = 0.376541
        31         5         6        33     9        0.000000        0.134992         3    ;  uncertainty k = 0.092337
        31         5         6        33     9      180.000000       -0.139821         4    ;  uncertainty k = 0.141366
        31         5         6        34     9        0.000000        0.168833         1    ;  uncertainty k = 0.252227
        31         5         6        34     9      180.000000        0.410860         2    ;  uncertainty k = 0.376541
        31         5         6        34     9        0.000000        0.134992         3    ;  uncertainty k = 0.092337
        31         5         6        34     9      180.000000       -0.139821         4    ;  uncertainty k = 0.141366
        32         5         6        33     9        0.000000        0.168833         1    ;  uncertainty k = 0.252227
        32         5         6        33     9      180.000000        0.410860         2    ;  uncertainty k = 0.376541
        32         5         6        33     9        0.000000        0.134992         3    ;  uncertainty k = 0.092337
        32         5         6        33     9      180.000000       -0.139821         4    ;  uncertainty k = 0.141366
        32         5         6        34     9        0.000000        0.168833         1    ;  uncertainty k = 0.252227
        32         5         6        34     9      180.000000        0.410860         2    ;  uncertainty k = 0.376541
        32         5         6        34     9        0.000000        0.134992         3    ;  uncertainty k = 0.092337
        32         5         6        34     9      180.000000       -0.139821         4    ;  uncertainty k = 0.141366
        35        10        11        36     9        0.000000       -0.063230         1    ;  uncertainty k = 0.143919
        35        10        11        36     9      180.000000        7.894392         2    ;  uncertainty k = 0.469259
        35        10        11        36     9        0.000000       -0.422798         3    ;  uncertainty k = 0.255830
        35        10        11        36     9      180.000000        0.044530         4    ;  uncertainty k = 0.174749
        36        11        12        37     9        0.000000       -0.025737         1    ;  uncertainty k = 0.216295
        36        11        12        37     9      180.000000        7.946947         2    ;  uncertainty k = 0.428487
        36        11        12        37     9        0.000000       -0.407574         3    ;  uncertainty k = 0.245418
        36        11        12        37     9      180.000000        0.167857         4    ;  uncertainty k = 0.135379

[ dihedrals ] ; impropers
;       ai        aj        ak        al funct           phase               k        pn
         1         2         6        16     4      180.000000        0.193780         2    ;  uncertainty k = 0.433306
         1         6        16         2     4      180.000000        0.193780         2    ;  uncertainty k = 0.433306
         1        16         2         6     4      180.000000        0.193780         2    ;  uncertainty k = 0.433306
         7         8        12        13     4      180.000000       14.240660         2    ;  uncertainty k = 0.056974
         7        12        13         8     4      180.000000       14.240660         2    ;  uncertainty k = 0.056974
         7        13         8        12     4      180.000000       14.240660         2    ;  uncertainty k = 0.056974
         8         7         9        20     4      180.000000       13.881977         2    ;  uncertainty k = 0.049333
         8         9        20         7     4      180.000000       13.881977         2    ;  uncertainty k = 0.049333
         8        20         7         9     4      180.000000       13.881977         2    ;  uncertainty k = 0.049333
         9         8        10        19     4      180.000000       13.291986         2    ;  uncertainty k = 0.070510
         9        10        19         8     4      180.000000       13.291986         2    ;  uncertainty k = 0.070510
         9        19         8        10     4      180.000000       13.291986         2    ;  uncertainty k = 0.070510
        10         9        11        35     4      180.000000        3.899337         2    ;  uncertainty k = 0.119505
        10        11        35         9     4      180.000000        3.899337         2    ;  uncertainty k = 0.119505
        10        35         9        11     4      180.000000        3.899337         2    ;  uncertainty k = 0.119505
        11        10        12        36     4      180.000000        4.055685         2    ;  uncertainty k = 0.065234
        11        12        36        10     4      180.000000        4.055685         2    ;  uncertainty k = 0.065234
        11        36        10        12     4      180.000000        4.055685         2    ;  uncertainty k = 0.065234
        12         7        11        37     4      180.000000        3.976351         2    ;  uncertainty k = 0.109332
        12        11        37         7     4      180.000000        3.976351         2    ;  uncertainty k = 0.109332
        12        37         7        11     4      180.000000        3.976351         2    ;  uncertainty k = 0.109332
        13         7        14        18     4      180.000000       17.010402         2    ;  uncertainty k = 0.092267
        13        14        18         7     4      180.000000       17.010402         2    ;  uncertainty k = 0.092267
        13        18         7        14     4      180.000000       17.010402         2    ;  uncertainty k = 0.092267
        15        14        16        24     4      180.000000       14.022417         2    ;  uncertainty k = 0.247806
        15        16        24        14     4      180.000000       14.022417         2    ;  uncertainty k = 0.247806
        15        24        14        16     4      180.000000       14.022417         2    ;  uncertainty k = 0.247806
        16         1        15        17     4      180.000000       34.536802         2    ;  uncertainty k = 0.088369
        16        15        17         1     4      180.000000       34.536802         2    ;  uncertainty k = 0.088369
        16        17         1        15     4      180.000000       34.536802         2    ;  uncertainty k = 0.088369
        18        13        17        21     4      180.000000       31.569084         2    ;  uncertainty k = 0.068153
        18        17        21        13     4      180.000000       31.569084         2    ;  uncertainty k = 0.068153
        18        21        13        17     4      180.000000       31.569084         2    ;  uncertainty k = 0.068153
        21        18        38        39     4      180.000000        0.498464         2    ;  uncertainty k = 1.114600
        21        38        39        18     4      180.000000        0.498464         2    ;  uncertainty k = 1.114600
        21        39        18        38     4      180.000000        0.498464         2    ;  uncertainty k = 1.114600
        24        15        25        26     4      180.000000       52.689797         2    ;  uncertainty k = 0.086368
        24        25        26        15     4      180.000000       52.689797         2    ;  uncertainty k = 0.086368
        24        26        15        25     4      180.000000       52.689797         2    ;  uncertainty k = 0.086368
        25        24        40        41     4      180.000000        0.097048         2    ;  uncertainty k = 0.217007
        25        40        41        24     4      180.000000        0.097048         2    ;  uncertainty k = 0.217007
        25        41        24        40     4      180.000000        0.097048         2    ;  uncertainty k = 0.217007

[ pairs ]
;       ai        aj funct
         1         4     1
         1        14     1
         1        18     1
         1        24     1
         1        29     1
         1        30     1
         1        31     1
         1        32     1
         2         5     1
         2        15     1
         2        17     1
         2        22     1
         2        23     1
         2        33     1
         2        34     1
         3         6     1
         3        16     1
         3        31     1
         3        32     1
         3        42     1
         3        43     1
         3        44     1
         3        45     1
         3        46     1
         3        47     1
         4        27     1
         4        28     1
         4        33     1
         4        34     1
         5        16     1
         5        29     1
         5        30     1
         5        42     1
         5        43     1
         5        44     1
         5        45     1
         5        46     1
         5        47     1
         6        15     1
         6        17     1
         6        22     1
         6        23     1
         6        27     1
         6        28     1
         7        10     1
         7        15     1
         7        17     1
         7        19     1
         7        21     1
         7        36     1
         8        11     1
         8        14     1
         8        18     1
         8        35     1
         8        37     1
         9        12     1
         9        13     1
         9        36     1
        10        20     1
        10        37     1
        11        13     1
        11        19     1
        12        14     1
        12        18     1
        12        20     1
        12        35     1
        13        16     1
        13        20     1
        13        24     1
        13        37     1
        13        38     1
        13        39     1
        14        17     1
        14        21     1
        14        25     1
        14        26     1
        15        18     1
        15        40     1
        15        41     1
        16        21     1
        16        25     1
        16        26     1
        16        27     1
        16        28     1
        16        33     1
        16        34     1
        17        24     1
        17        38     1
        17        39     1
        19        20     1
        19        35     1
        22        29     1
        22        30     1
        22        31     1
        22        32     1
        22        42     1
        22        43     1
        22        44     1
        23        29     1
        23        30     1
        23        31     1
        23        32     1
        23        45     1
        23        46     1
        23        47     1
        26        40     1
        26        41     1
        27        29     1
        27        30     1
        28        29     1
        28        30     1
        31        33     1
        31        34     1
        32        33     1
        32        34     1
        35        36     1
        36        37     1
