; ITP file created by ByteFF-joint-25, 2026-02-17 09:33:13.443381

[ atomtypes ]
;name           bonded.type        at.num        mass        charge   ptype           sigma         epsilon
 n0bf                                   7      0.0000       0.00000       A     3.18998e-01     8.99142e-01    ;  uncertainty sigma = 0.000029, epsilon = 0.002716
 c1bf                                   6      0.0000       0.00000       A     3.39780e-01     4.50260e-01    ;  uncertainty sigma = 0.000020, epsilon = 0.001089
 c2bf                                   6      0.0000       0.00000       A     3.39771e-01     4.51072e-01    ;  uncertainty sigma = 0.000022, epsilon = 0.000654
 c3bf                                   6      0.0000       0.00000       A     3.39788e-01     4.49780e-01    ;  uncertainty sigma = 0.000038, epsilon = 0.001520
 c4bf                                   6      0.0000       0.00000       A     3.39771e-01     4.51072e-01    ;  uncertainty sigma = 0.000022, epsilon = 0.000654
 c5bf                                   6      0.0000       0.00000       A     3.39780e-01     4.50260e-01    ;  uncertainty sigma = 0.000020, epsilon = 0.001089
 c6bf                                   6      0.0000       0.00000       A     3.31487e-01     4.13816e-01    ;  uncertainty sigma = 0.000014, epsilon = 0.000926
 c7bf                                   6      0.0000       0.00000       A     3.31500e-01     4.13393e-01    ;  uncertainty sigma = 0.000009, epsilon = 0.000545
 n8bf                                   7      0.0000       0.00000       A     3.38417e-01     3.93941e-01    ;  uncertainty sigma = 0.000023, epsilon = 0.001354
 c9bf                                   6      0.0000       0.00000       A     3.31540e-01     4.14260e-01    ;  uncertainty sigma = 0.000012, epsilon = 0.001134
 n10bf                                  7      0.0000       0.00000       A     3.38467e-01     3.93958e-01    ;  uncertainty sigma = 0.000032, epsilon = 0.001413
 c11bf                                  6      0.0000       0.00000       A     3.31528e-01     4.12009e-01    ;  uncertainty sigma = 0.000010, epsilon = 0.002178
 n12bf                                  7      0.0000       0.00000       A     3.36839e-01     4.68261e-01    ;  uncertainty sigma = 0.000047, epsilon = 0.004494
 n13bf                                  7      0.0000       0.00000       A     2.77101e-01     4.77733e+00    ;  uncertainty sigma = 0.000102, epsilon = 0.025603
 c14bf                                  6      0.0000       0.00000       A     3.39744e-01     4.51058e-01    ;  uncertainty sigma = 0.000018, epsilon = 0.000674
 h15bf                                  1      0.0000       0.00000       A     2.42224e-01     8.69291e-02    ;  uncertainty sigma = 0.000024, epsilon = 0.000777
 h16bf                                  1      0.0000       0.00000       A     2.42224e-01     8.69291e-02    ;  uncertainty sigma = 0.000024, epsilon = 0.000777
 h17bf                                  1      0.0000       0.00000       A     2.60047e-01     8.66236e-02    ;  uncertainty sigma = 0.000026, epsilon = 0.001019
 h18bf                                  1      0.0000       0.00000       A     2.60047e-01     8.66236e-02    ;  uncertainty sigma = 0.000026, epsilon = 0.001019
 h19bf                                  1      0.0000       0.00000       A     2.60047e-01     8.66236e-02    ;  uncertainty sigma = 0.000026, epsilon = 0.001019
 h20bf                                  1      0.0000       0.00000       A     2.60047e-01     8.66235e-02    ;  uncertainty sigma = 0.000026, epsilon = 0.001019
 h21bf                                  1      0.0000       0.00000       A     2.42224e-01     8.69291e-02    ;  uncertainty sigma = 0.000024, epsilon = 0.000777
 h22bf                                  1      0.0000       0.00000       A     2.42224e-01     8.69291e-02    ;  uncertainty sigma = 0.000024, epsilon = 0.000777
 h23bf                                  1      0.0000       0.00000       A     1.10744e-01     4.05583e-02    ;  uncertainty sigma = 0.000197, epsilon = 0.001139
 h24bf                                  1      0.0000       0.00000       A     2.60029e-01     8.68919e-02    ;  uncertainty sigma = 0.000018, epsilon = 0.000792
 h25bf                                  1      0.0000       0.00000       A     2.60029e-01     8.68919e-02    ;  uncertainty sigma = 0.000018, epsilon = 0.000792
 h26bf                                  1      0.0000       0.00000       A     2.60029e-01     8.68919e-02    ;  uncertainty sigma = 0.000018, epsilon = 0.000792
 h27bf                                  1      0.0000       0.00000       A     1.10744e-01     4.05583e-02    ;  uncertainty sigma = 0.000197, epsilon = 0.001139
 h28bf                                  1      0.0000       0.00000       A     1.10717e-01     4.12865e-02    ;  uncertainty sigma = 0.000086, epsilon = 0.000392
 h29bf                                  1      0.0000       0.00000       A     2.53679e-01     6.68665e-02    ;  uncertainty sigma = 0.000037, epsilon = 0.000963
 h30bf                                  1      0.0000       0.00000       A     1.10717e-01     4.12866e-02    ;  uncertainty sigma = 0.000086, epsilon = 0.000392
 c31bf                                  6      0.0000       0.00000       A     3.31494e-01     4.13980e-01    ;  uncertainty sigma = 0.000008, epsilon = 0.000495
 c32bf                                  6      0.0000       0.00000       A     3.31528e-01     4.13293e-01    ;  uncertainty sigma = 0.000005, epsilon = 0.000907
 c33bf                                  6      0.0000       0.00000       A     3.31501e-01     4.13488e-01    ;  uncertainty sigma = 0.000005, epsilon = 0.000534
 c34bf                                  6      0.0000       0.00000       A     3.31521e-01     4.12747e-01    ;  uncertainty sigma = 0.000009, epsilon = 0.000658
 s35bf                                 16      0.0000       0.00000       A     3.53255e-01     1.18187e+00    ;  uncertainty sigma = 0.000013, epsilon = 0.001984
 h36bf                                  1      0.0000       0.00000       A     2.62520e-01     6.70885e-02    ;  uncertainty sigma = 0.000029, epsilon = 0.000540
 h37bf                                  1      0.0000       0.00000       A     2.62550e-01     6.71287e-02    ;  uncertainty sigma = 0.000014, epsilon = 0.000471
 cl38bf                                17      0.0000       0.00000       A     3.46623e-01     1.10490e+00    ;  uncertainty sigma = 0.000007, epsilon = 0.001425
 h39bf                                  1      0.0000       0.00000       A     1.10744e-01     4.05584e-02    ;  uncertainty sigma = 0.000197, epsilon = 0.001139

[ moleculetype ]
;name             nrexcl
 MOL                   3

[ atoms ]
;       nr            type      resi   res      atom      cgnr      charge          mass ; qtot
         1            n0bf         1   UNL        n0         1    -0.78097       14.0070 ; qtot   -0.781
         2            c1bf         1   UNL        c1         2     0.23266       12.0110 ; qtot   -0.548
         3            c2bf         1   UNL        c2         3    -0.11952       12.0110 ; qtot   -0.668
         4            c3bf         1   UNL        c3         4     0.18766       12.0110 ; qtot   -0.480
         5            c4bf         1   UNL        c4         5    -0.11952       12.0110 ; qtot   -0.600
         6            c5bf         1   UNL        c5         6     0.23266       12.0110 ; qtot   -0.367
         7            c6bf         1   UNL        c6         7    -0.34709       12.0110 ; qtot   -0.714
         8            c7bf         1   UNL        c7         8     0.50116       12.0110 ; qtot   -0.213
         9            n8bf         1   UNL        n8         9    -0.79137       14.0070 ; qtot   -1.004
        10            c9bf         1   UNL        c9        10     0.93757       12.0110 ; qtot   -0.067
        11           n10bf         1   UNL       n10        11    -0.85783       14.0070 ; qtot   -0.925
        12           c11bf         1   UNL       c11        12     0.72202       12.0110 ; qtot   -0.203
        13           n12bf         1   UNL       n12        13    -0.92744       14.0070 ; qtot   -1.130
        14           n13bf         1   UNL       n13        14    -0.86673       14.0070 ; qtot   -1.997
        15           c14bf         1   UNL       c14        15    -0.13034       12.0110 ; qtot   -2.127
        16           h15bf         1   UNL       h15        16     0.07772        1.0080 ; qtot   -2.049
        17           h16bf         1   UNL       h16        17     0.07772        1.0080 ; qtot   -1.972
        18           h17bf         1   UNL       h17        18     0.08339        1.0080 ; qtot   -1.888
        19           h18bf         1   UNL       h18        19     0.08339        1.0080 ; qtot   -1.805
        20           h19bf         1   UNL       h19        20     0.08339        1.0080 ; qtot   -1.721
        21           h20bf         1   UNL       h20        21     0.08339        1.0080 ; qtot   -1.638
        22           h21bf         1   UNL       h21        22     0.07772        1.0080 ; qtot   -1.560
        23           h22bf         1   UNL       h22        23     0.07772        1.0080 ; qtot   -1.483
        24           h23bf         1   UNL       h23        24     0.46464        1.0080 ; qtot   -1.018
        25           h24bf         1   UNL       h24        25     0.07734        1.0080 ; qtot   -0.941
        26           h25bf         1   UNL       h25        26     0.07734        1.0080 ; qtot   -0.863
        27           h26bf         1   UNL       h26        27     0.07734        1.0080 ; qtot   -0.786
        28           h27bf         1   UNL       h27        28     0.46464        1.0080 ; qtot   -0.321
        29           h28bf         1   UNL       h28        29     0.42687        1.0080 ; qtot    0.106
        30           h29bf         1   UNL       h29        30     0.02270        1.0080 ; qtot    0.128
        31           h30bf         1   UNL       h30        31     0.42687        1.0080 ; qtot    0.555
        32           c31bf         1   UNL       c31        32     0.02144       12.0110 ; qtot    0.577
        33           c32bf         1   UNL       c32        33    -0.13944       12.0110 ; qtot    0.437
        34           c33bf         1   UNL       c33        34    -0.13717       12.0110 ; qtot    0.300
        35           c34bf         1   UNL       c34        35     0.04496       12.0110 ; qtot    0.345
        36           s35bf         1   UNL       s35        36    -0.08293       32.0670 ; qtot    0.262
        37           h36bf         1   UNL       h36        37     0.16178        1.0080 ; qtot    0.424
        38           h37bf         1   UNL       h37        38     0.16691        1.0080 ; qtot    0.591
        39          cl38bf         1   UNL      cl38        39    -0.05527       35.4530 ; qtot    0.535
        40           h39bf         1   UNL       h39        40     0.46462        1.0080 ; qtot    1.000

[ bonds ]
;       ai        aj funct               r               k
         1         2     1        0.144968   251114.134229    ;  uncertainty r = 0.000170, k = 12.476836
         1         6     1        0.144968   251114.134229    ;  uncertainty r = 0.000170, k = 12.476836
         1        10     1        0.138275   305775.678418    ;  uncertainty r = 0.000341, k = 18.839039
         2         3     1        0.154006   208103.206689    ;  uncertainty r = 0.000229, k = 14.884648
         2        16     1        0.109449   306948.597852    ;  uncertainty r = 0.000047, k = 1.171910
         2        17     1        0.109449   306948.597852    ;  uncertainty r = 0.000047, k = 1.171910
         3         4     1        0.153723   202820.651318    ;  uncertainty r = 0.000184, k = 7.066036
         3        18     1        0.109581   310499.532910    ;  uncertainty r = 0.000037, k = 1.905376
         3        19     1        0.109581   310499.532910    ;  uncertainty r = 0.000037, k = 1.905376
         4         5     1        0.153723   202820.651318    ;  uncertainty r = 0.000184, k = 7.066036
         4        14     1        0.155122   197292.186353    ;  uncertainty r = 0.000211, k = 49.108522
         4        15     1        0.152893   210290.434570    ;  uncertainty r = 0.000125, k = 13.841188
         5         6     1        0.154006   208103.206689    ;  uncertainty r = 0.000229, k = 14.884648
         5        20     1        0.109581   310499.532910    ;  uncertainty r = 0.000037, k = 1.905376
         5        21     1        0.109581   310499.532910    ;  uncertainty r = 0.000037, k = 1.905368
         6        22     1        0.109449   306948.623389    ;  uncertainty r = 0.000047, k = 1.171879
         6        23     1        0.109449   306948.623389    ;  uncertainty r = 0.000047, k = 1.171879
         7         8     1        0.140546   394286.226953    ;  uncertainty r = 0.000051, k = 33.356496
         7        12     1        0.142559   435798.432617    ;  uncertainty r = 0.000144, k = 33.797710
         7        32     1        0.146240   275649.959082    ;  uncertainty r = 0.000180, k = 15.355573
         8         9     1        0.134242   420294.904590    ;  uncertainty r = 0.000279, k = 16.183839
         8        30     1        0.108871   326476.467871    ;  uncertainty r = 0.000020, k = 4.185932
         9        10     1        0.136352   468055.887695    ;  uncertainty r = 0.000117, k = 11.150521
        10        11     1        0.137106   456589.010547    ;  uncertainty r = 0.000098, k = 21.640259
        11        12     1        0.137215   556272.197656    ;  uncertainty r = 0.000300, k = 17.555008
        12        13     1        0.141286   542410.450391    ;  uncertainty r = 0.000340, k = 35.603565
        13        29     1        0.101885   428316.085107    ;  uncertainty r = 0.000057, k = 2.667682
        13        31     1        0.101885   428316.085107    ;  uncertainty r = 0.000057, k = 2.667690
        14        24     1        0.102893   408930.712158    ;  uncertainty r = 0.000060, k = 6.495058
        14        28     1        0.102893   408930.712158    ;  uncertainty r = 0.000060, k = 6.495058
        14        40     1        0.102893   408930.712158    ;  uncertainty r = 0.000060, k = 6.495039
        15        25     1        0.109485   313302.358350    ;  uncertainty r = 0.000023, k = 3.037338
        15        26     1        0.109485   313302.332813    ;  uncertainty r = 0.000023, k = 3.037337
        15        27     1        0.109485   313302.332813    ;  uncertainty r = 0.000023, k = 3.037337
        32        33     1        0.137661   409530.706543    ;  uncertainty r = 0.000109, k = 3.959711
        32        36     1        0.175469   167525.518774    ;  uncertainty r = 0.000053, k = 9.068790
        33        34     1        0.142693   270777.044482    ;  uncertainty r = 0.000069, k = 4.036713
        33        37     1        0.108562   334518.001465    ;  uncertainty r = 0.000027, k = 1.238075
        34        35     1        0.136848   419089.833936    ;  uncertainty r = 0.000031, k = 2.934235
        34        38     1        0.108566   334611.926953    ;  uncertainty r = 0.000015, k = 1.422795
        35        36     1        0.174148   171797.596265    ;  uncertainty r = 0.000050, k = 7.562113
        35        39     1        0.173142   195020.034814    ;  uncertainty r = 0.000029, k = 4.150091

[ angles ]
;       ai        aj        ak funct           theta             cth
         1         2         3     1      109.321327      693.713214    ;  uncertainty theta = 0.000907, k = 0.187356
         1         2        16     1      106.440819      457.938787    ;  uncertainty theta = 0.002047, k = 0.076265
         1         2        17     1      106.440819      457.938787    ;  uncertainty theta = 0.002047, k = 0.076265
         1         6         5     1      109.321327      693.713214    ;  uncertainty theta = 0.000907, k = 0.187356
         1         6        22     1      106.440819      457.938851    ;  uncertainty theta = 0.002047, k = 0.076265
         1         6        23     1      106.440819      457.938851    ;  uncertainty theta = 0.002047, k = 0.076265
         1        10         9     1      119.768555      555.768516    ;  uncertainty theta = 0.006918, k = 0.172532
         1        10        11     1      120.008957      597.959077    ;  uncertainty theta = 0.005523, k = 0.175473
         2         1         6     1      107.733925      419.581315    ;  uncertainty theta = 0.015928, k = 0.113518
         2         1        10     1      110.312744      435.992355    ;  uncertainty theta = 0.006001, k = 0.091881
         2         3         4     1      110.246338      546.471476    ;  uncertainty theta = 0.002854, k = 0.106854
         2         3        18     1      108.185547      399.606060    ;  uncertainty theta = 0.001628, k = 0.129027
         2         3        19     1      108.185547      399.606060    ;  uncertainty theta = 0.001628, k = 0.129027
         3         2        16     1      108.883324      414.526276    ;  uncertainty theta = 0.003534, k = 0.109424
         3         2        17     1      108.883324      414.526276    ;  uncertainty theta = 0.003534, k = 0.109424
         3         4         5     1      110.758156      579.433309    ;  uncertainty theta = 0.006554, k = 0.204301
         3         4        14     1      107.278976      685.372092    ;  uncertainty theta = 0.005309, k = 0.324780
         3         4        15     1      111.951096      573.556198    ;  uncertainty theta = 0.003615, k = 0.042900
         4         3        18     1      107.188622      391.727607    ;  uncertainty theta = 0.002259, k = 0.172799
         4         3        19     1      107.188622      391.727607    ;  uncertainty theta = 0.002259, k = 0.172799
         4         5         6     1      110.246338      546.471476    ;  uncertainty theta = 0.002854, k = 0.106854
         4         5        20     1      107.188622      391.727607    ;  uncertainty theta = 0.002259, k = 0.172799
         4         5        21     1      107.188622      391.727607    ;  uncertainty theta = 0.002259, k = 0.172799
         4        14        24     1      110.464333      409.034616    ;  uncertainty theta = 0.003988, k = 0.162351
         4        14        28     1      110.464333      409.034616    ;  uncertainty theta = 0.003988, k = 0.162351
         4        14        40     1      110.464333      409.034616    ;  uncertainty theta = 0.003988, k = 0.162351
         4        15        25     1      107.456223      389.152796    ;  uncertainty theta = 0.000505, k = 0.034813
         4        15        26     1      107.456223      389.152796    ;  uncertainty theta = 0.000505, k = 0.034813
         4        15        27     1      107.456223      389.152796    ;  uncertainty theta = 0.000505, k = 0.034813
         5         4        14     1      107.278976      685.372092    ;  uncertainty theta = 0.005309, k = 0.324780
         5         4        15     1      111.951096      573.556198    ;  uncertainty theta = 0.003615, k = 0.042900
         5         6        22     1      108.883324      414.526276    ;  uncertainty theta = 0.003534, k = 0.109424
         5         6        23     1      108.883324      414.526276    ;  uncertainty theta = 0.003534, k = 0.109424
         6         1        10     1      110.312744      435.992355    ;  uncertainty theta = 0.006001, k = 0.091881
         6         5        20     1      108.185547      399.606060    ;  uncertainty theta = 0.001628, k = 0.129027
         6         5        21     1      108.185547      399.606060    ;  uncertainty theta = 0.001628, k = 0.129027
         7         8         9     1      124.323349      715.935607    ;  uncertainty theta = 0.002565, k = 0.176982
         7         8        30     1      119.023483      262.015131    ;  uncertainty theta = 0.002812, k = 0.208471
         7        12        11     1      122.348267      542.604903    ;  uncertainty theta = 0.006393, k = 0.192771
         7        12        13     1      124.995262      512.644128    ;  uncertainty theta = 0.004924, k = 0.280027
         7        32        33     1      128.624924      363.363252    ;  uncertainty theta = 0.004116, k = 0.185047
         7        32        36     1      117.885544      348.030261    ;  uncertainty theta = 0.003247, k = 0.271170
         8         7        12     1      117.699112      431.435832    ;  uncertainty theta = 0.011525, k = 0.936648
         8         7        32     1      122.430801      415.040849    ;  uncertainty theta = 0.003717, k = 0.211299
         8         9        10     1      115.739868      419.255557    ;  uncertainty theta = 0.007033, k = 0.239917
         9         8        30     1      116.492386      324.174131    ;  uncertainty theta = 0.004169, k = 0.120968
         9        10        11     1      128.444977      726.255472    ;  uncertainty theta = 0.004585, k = 0.079748
        10        11        12     1      122.438736      478.901945    ;  uncertainty theta = 0.008630, k = 0.204780
        11        12        13     1      125.666237      912.727764    ;  uncertainty theta = 0.003116, k = 0.075550
        12         7        32     1      120.472862      371.496853    ;  uncertainty theta = 0.006386, k = 0.304896
        12        13        29     1      118.518456      414.621370    ;  uncertainty theta = 0.001965, k = 0.113354
        12        13        31     1      118.518456      414.621370    ;  uncertainty theta = 0.001965, k = 0.113354
        14         4        15     1      107.732376      711.715855    ;  uncertainty theta = 0.003143, k = 0.202828
        16         2        17     1      105.643211      323.899224    ;  uncertainty theta = 0.003009, k = 0.029640
        18         3        19     1      106.079796      314.629541    ;  uncertainty theta = 0.002798, k = 0.097750
        20         5        21     1      106.079796      314.629541    ;  uncertainty theta = 0.002798, k = 0.097750
        22         6        23     1      105.643211      323.899224    ;  uncertainty theta = 0.003009, k = 0.029639
        24        14        28     1      108.017105      374.242220    ;  uncertainty theta = 0.003302, k = 0.129445
        24        14        40     1      108.017105      374.242220    ;  uncertainty theta = 0.003302, k = 0.129446
        25        15        26     1      105.936523      319.817118    ;  uncertainty theta = 0.000605, k = 0.051303
        25        15        27     1      105.936523      319.817118    ;  uncertainty theta = 0.000605, k = 0.051303
        26        15        27     1      105.936523      319.817118    ;  uncertainty theta = 0.000605, k = 0.051303
        28        14        40     1      108.017105      374.242220    ;  uncertainty theta = 0.003302, k = 0.129446
        29        13        31     1      108.158463      273.605931    ;  uncertainty theta = 0.001543, k = 0.102393
        32        33        34     1      113.877419      632.332920    ;  uncertainty theta = 0.003379, k = 0.079223
        32        33        37     1      120.708450      249.633320    ;  uncertainty theta = 0.003981, k = 0.102470
        32        36        35     1       91.383621     1185.701012    ;  uncertainty theta = 0.001357, k = 0.275080
        33        32        36     1      112.195839      452.642008    ;  uncertainty theta = 0.002128, k = 0.304089
        33        34        35     1      111.430641      608.763828    ;  uncertainty theta = 0.003351, k = 0.066575
        33        34        38     1      122.718613      250.617153    ;  uncertainty theta = 0.001554, k = 0.045743
        34        33        37     1      121.775162      255.465326    ;  uncertainty theta = 0.004020, k = 0.076157
        34        35        36     1      113.095093      397.063809    ;  uncertainty theta = 0.003677, k = 0.257521
        34        35        39     1      126.398071      399.335526    ;  uncertainty theta = 0.002760, k = 0.092679
        35        34        38     1      121.945877      252.881561    ;  uncertainty theta = 0.002346, k = 0.113792
        36        35        39     1      118.329605      344.006123    ;  uncertainty theta = 0.002983, k = 0.157854

[ dihedrals ] ; propers for gromacs 4.5 or higher, use funct 9
;       ai        aj        ak        al funct           phase               k        pn
         1         2         3         4     9        0.000000        3.479794         1    ;  uncertainty k = 2.631245
         1         2         3         4     9      180.000000       -4.414620         2    ;  uncertainty k = 0.895315
         1         2         3         4     9        0.000000        1.951912         3    ;  uncertainty k = 0.250640
         1         2         3         4     9      180.000000       -0.432234         4    ;  uncertainty k = 0.279775
         1         2         3        18     9        0.000000       -1.904474         1    ;  uncertainty k = 1.110760
         1         2         3        18     9      180.000000        0.320117         2    ;  uncertainty k = 0.432124
         1         2         3        18     9        0.000000        1.283059         3    ;  uncertainty k = 0.346519
         1         2         3        18     9      180.000000       -0.248889         4    ;  uncertainty k = 0.091362
         1         2         3        19     9        0.000000       -1.904474         1    ;  uncertainty k = 1.110760
         1         2         3        19     9      180.000000        0.320117         2    ;  uncertainty k = 0.432124
         1         2         3        19     9        0.000000        1.283059         3    ;  uncertainty k = 0.346519
         1         2         3        19     9      180.000000       -0.248889         4    ;  uncertainty k = 0.091362
         1         6         5         4     9        0.000000        3.479794         1    ;  uncertainty k = 2.631245
         1         6         5         4     9      180.000000       -4.414620         2    ;  uncertainty k = 0.895315
         1         6         5         4     9        0.000000        1.951912         3    ;  uncertainty k = 0.250640
         1         6         5         4     9      180.000000       -0.432234         4    ;  uncertainty k = 0.279775
         1         6         5        20     9        0.000000       -1.904474         1    ;  uncertainty k = 1.110760
         1         6         5        20     9      180.000000        0.320117         2    ;  uncertainty k = 0.432124
         1         6         5        20     9        0.000000        1.283059         3    ;  uncertainty k = 0.346519
         1         6         5        20     9      180.000000       -0.248889         4    ;  uncertainty k = 0.091362
         1         6         5        21     9        0.000000       -1.904475         1    ;  uncertainty k = 1.110761
         1         6         5        21     9      180.000000        0.320118         2    ;  uncertainty k = 0.432128
         1         6         5        21     9        0.000000        1.283059         3    ;  uncertainty k = 0.346519
         1         6         5        21     9      180.000000       -0.248889         4    ;  uncertainty k = 0.091362
         1        10         9         8     9        0.000000        0.924353         1    ;  uncertainty k = 1.822211
         1        10         9         8     9      180.000000        9.987705         2    ;  uncertainty k = 0.202226
         1        10         9         8     9        0.000000        1.520965         3    ;  uncertainty k = 0.555991
         1        10         9         8     9      180.000000        0.733587         4    ;  uncertainty k = 0.145964
         1        10        11        12     9        0.000000        0.762286         1    ;  uncertainty k = 1.241818
         1        10        11        12     9      180.000000        9.892553         2    ;  uncertainty k = 0.512055
         1        10        11        12     9        0.000000        1.560470         3    ;  uncertainty k = 0.326581
         1        10        11        12     9      180.000000        0.722789         4    ;  uncertainty k = 0.236263
         2         1         6         5     9        0.000000       -6.396973         1    ;  uncertainty k = 2.175872
         2         1         6         5     9      180.000000        1.538835         2    ;  uncertainty k = 0.773480
         2         1         6         5     9        0.000000        1.176906         3    ;  uncertainty k = 0.288771
         2         1         6         5     9      180.000000       -0.468910         4    ;  uncertainty k = 0.183517
         2         1         6        22     9        0.000000       -6.047318         1    ;  uncertainty k = 1.982148
         2         1         6        22     9      180.000000        0.993137         2    ;  uncertainty k = 0.489808
         2         1         6        22     9        0.000000        0.822683         3    ;  uncertainty k = 0.044513
         2         1         6        22     9      180.000000       -0.076732         4    ;  uncertainty k = 0.063310
         2         1         6        23     9        0.000000       -6.047318         1    ;  uncertainty k = 1.982148
         2         1         6        23     9      180.000000        0.993137         2    ;  uncertainty k = 0.489808
         2         1         6        23     9        0.000000        0.822683         3    ;  uncertainty k = 0.044513
         2         1         6        23     9      180.000000       -0.076732         4    ;  uncertainty k = 0.063310
         2         1        10         9     9        0.000000        4.861602         1    ;  uncertainty k = 1.142817
         2         1        10         9     9      180.000000       11.526642         2    ;  uncertainty k = 0.151194
         2         1        10         9     9        0.000000        0.515084         3    ;  uncertainty k = 0.224234
         2         1        10         9     9      180.000000       -0.202702         4    ;  uncertainty k = 0.093698
         2         1        10        11     9        0.000000        6.609945         1    ;  uncertainty k = 0.873943
         2         1        10        11     9      180.000000       11.634624         2    ;  uncertainty k = 0.134629
         2         1        10        11     9        0.000000        0.530221         3    ;  uncertainty k = 0.140078
         2         1        10        11     9      180.000000       -0.230899         4    ;  uncertainty k = 0.107172
         2         3         4         5     9        0.000000       -1.995785         1    ;  uncertainty k = 1.854286
         2         3         4         5     9      180.000000        0.461226         2    ;  uncertainty k = 0.623979
         2         3         4         5     9        0.000000        0.633424         3    ;  uncertainty k = 0.430864
         2         3         4         5     9      180.000000       -1.000696         4    ;  uncertainty k = 0.199219
         2         3         4        14     9        0.000000       -4.922189         1    ;  uncertainty k = 1.419897
         2         3         4        14     9      180.000000       -1.288662         2    ;  uncertainty k = 1.614288
         2         3         4        14     9        0.000000        1.032740         3    ;  uncertainty k = 0.323245
         2         3         4        14     9      180.000000        0.204775         4    ;  uncertainty k = 0.137621
         2         3         4        15     9        0.000000       -4.846863         1    ;  uncertainty k = 0.953612
         2         3         4        15     9      180.000000        1.255315         2    ;  uncertainty k = 0.483535
         2         3         4        15     9        0.000000        0.497226         3    ;  uncertainty k = 0.328814
         2         3         4        15     9      180.000000       -0.186222         4    ;  uncertainty k = 0.107604
         3         2         1         6     9        0.000000       -6.396973         1    ;  uncertainty k = 2.175872
         3         2         1         6     9      180.000000        1.538835         2    ;  uncertainty k = 0.773480
         3         2         1         6     9        0.000000        1.176906         3    ;  uncertainty k = 0.288771
         3         2         1         6     9      180.000000       -0.468910         4    ;  uncertainty k = 0.183517
         3         2         1        10     9        0.000000       -3.658773         1    ;  uncertainty k = 0.852122
         3         2         1        10     9      180.000000        0.875088         2    ;  uncertainty k = 0.536108
         3         2         1        10     9        0.000000        0.041856         3    ;  uncertainty k = 0.263262
         3         2         1        10     9      180.000000        0.237741         4    ;  uncertainty k = 0.150936
         3         4         5         6     9        0.000000       -1.995785         1    ;  uncertainty k = 1.854286
         3         4         5         6     9      180.000000        0.461226         2    ;  uncertainty k = 0.623979
         3         4         5         6     9        0.000000        0.633424         3    ;  uncertainty k = 0.430864
         3         4         5         6     9      180.000000       -1.000696         4    ;  uncertainty k = 0.199219
         3         4         5        20     9        0.000000       -1.041765         1    ;  uncertainty k = 0.265447
         3         4         5        20     9      180.000000       -0.356594         2    ;  uncertainty k = 0.191549
         3         4         5        20     9        0.000000       -0.007680         3    ;  uncertainty k = 0.093809
         3         4         5        20     9      180.000000       -0.100570         4    ;  uncertainty k = 0.058705
         3         4         5        21     9        0.000000       -1.041765         1    ;  uncertainty k = 0.265447
         3         4         5        21     9      180.000000       -0.356594         2    ;  uncertainty k = 0.191548
         3         4         5        21     9        0.000000       -0.007680         3    ;  uncertainty k = 0.093809
         3         4         5        21     9      180.000000       -0.100570         4    ;  uncertainty k = 0.058705
         3         4        14        24     9        0.000000       -0.378619         1    ;  uncertainty k = 1.202867
         3         4        14        24     9      180.000000       -0.218969         2    ;  uncertainty k = 0.263350
         3         4        14        24     9        0.000000        0.752336         3    ;  uncertainty k = 0.133799
         3         4        14        24     9      180.000000       -0.117477         4    ;  uncertainty k = 0.099713
         3         4        14        28     9        0.000000       -0.378619         1    ;  uncertainty k = 1.202867
         3         4        14        28     9      180.000000       -0.218969         2    ;  uncertainty k = 0.263350
         3         4        14        28     9        0.000000        0.752336         3    ;  uncertainty k = 0.133799
         3         4        14        28     9      180.000000       -0.117477         4    ;  uncertainty k = 0.099713
         3         4        14        40     9        0.000000       -0.378618         1    ;  uncertainty k = 1.202868
         3         4        14        40     9      180.000000       -0.218968         2    ;  uncertainty k = 0.263352
         3         4        14        40     9        0.000000        0.752335         3    ;  uncertainty k = 0.133799
         3         4        14        40     9      180.000000       -0.117476         4    ;  uncertainty k = 0.099713
         3         4        15        25     9        0.000000       -0.914078         1    ;  uncertainty k = 0.356128
         3         4        15        25     9      180.000000       -0.481016         2    ;  uncertainty k = 0.207164
         3         4        15        25     9        0.000000        0.542169         3    ;  uncertainty k = 0.077000
         3         4        15        25     9      180.000000       -0.146042         4    ;  uncertainty k = 0.059767
         3         4        15        26     9        0.000000       -0.914078         1    ;  uncertainty k = 0.356128
         3         4        15        26     9      180.000000       -0.481016         2    ;  uncertainty k = 0.207164
         3         4        15        26     9        0.000000        0.542169         3    ;  uncertainty k = 0.077000
         3         4        15        26     9      180.000000       -0.146042         4    ;  uncertainty k = 0.059767
         3         4        15        27     9        0.000000       -0.914078         1    ;  uncertainty k = 0.356128
         3         4        15        27     9      180.000000       -0.481016         2    ;  uncertainty k = 0.207164
         3         4        15        27     9        0.000000        0.542169         3    ;  uncertainty k = 0.077000
         3         4        15        27     9      180.000000       -0.146042         4    ;  uncertainty k = 0.059767
         4         3         2        16     9        0.000000        2.805143         1    ;  uncertainty k = 1.342924
         4         3         2        16     9      180.000000       -2.640033         2    ;  uncertainty k = 0.200970
         4         3         2        16     9        0.000000        0.068377         3    ;  uncertainty k = 0.137352
         4         3         2        16     9      180.000000        0.232543         4    ;  uncertainty k = 0.063819
         4         3         2        17     9        0.000000        2.805143         1    ;  uncertainty k = 1.342924
         4         3         2        17     9      180.000000       -2.640033         2    ;  uncertainty k = 0.200970
         4         3         2        17     9        0.000000        0.068377         3    ;  uncertainty k = 0.137352
         4         3         2        17     9      180.000000        0.232543         4    ;  uncertainty k = 0.063819
         4         5         6        22     9        0.000000        2.805144         1    ;  uncertainty k = 1.342924
         4         5         6        22     9      180.000000       -2.640033         2    ;  uncertainty k = 0.200971
         4         5         6        22     9        0.000000        0.068377         3    ;  uncertainty k = 0.137352
         4         5         6        22     9      180.000000        0.232543         4    ;  uncertainty k = 0.063819
         4         5         6        23     9        0.000000        2.805144         1    ;  uncertainty k = 1.342924
         4         5         6        23     9      180.000000       -2.640033         2    ;  uncertainty k = 0.200971
         4         5         6        23     9        0.000000        0.068377         3    ;  uncertainty k = 0.137352
         4         5         6        23     9      180.000000        0.232543         4    ;  uncertainty k = 0.063819
         5         4         3        18     9        0.000000       -1.041765         1    ;  uncertainty k = 0.265447
         5         4         3        18     9      180.000000       -0.356594         2    ;  uncertainty k = 0.191549
         5         4         3        18     9        0.000000       -0.007680         3    ;  uncertainty k = 0.093809
         5         4         3        18     9      180.000000       -0.100570         4    ;  uncertainty k = 0.058705
         5         4         3        19     9        0.000000       -1.041765         1    ;  uncertainty k = 0.265447
         5         4         3        19     9      180.000000       -0.356594         2    ;  uncertainty k = 0.191549
         5         4         3        19     9        0.000000       -0.007680         3    ;  uncertainty k = 0.093809
         5         4         3        19     9      180.000000       -0.100570         4    ;  uncertainty k = 0.058705
         5         4        14        24     9        0.000000       -0.378619         1    ;  uncertainty k = 1.202867
         5         4        14        24     9      180.000000       -0.218969         2    ;  uncertainty k = 0.263350
         5         4        14        24     9        0.000000        0.752336         3    ;  uncertainty k = 0.133799
         5         4        14        24     9      180.000000       -0.117477         4    ;  uncertainty k = 0.099713
         5         4        14        28     9        0.000000       -0.378619         1    ;  uncertainty k = 1.202867
         5         4        14        28     9      180.000000       -0.218969         2    ;  uncertainty k = 0.263350
         5         4        14        28     9        0.000000        0.752336         3    ;  uncertainty k = 0.133799
         5         4        14        28     9      180.000000       -0.117477         4    ;  uncertainty k = 0.099713
         5         4        14        40     9        0.000000       -0.378618         1    ;  uncertainty k = 1.202868
         5         4        14        40     9      180.000000       -0.218968         2    ;  uncertainty k = 0.263352
         5         4        14        40     9        0.000000        0.752335         3    ;  uncertainty k = 0.133799
         5         4        14        40     9      180.000000       -0.117476         4    ;  uncertainty k = 0.099713
         5         4        15        25     9        0.000000       -0.914078         1    ;  uncertainty k = 0.356128
         5         4        15        25     9      180.000000       -0.481016         2    ;  uncertainty k = 0.207164
         5         4        15        25     9        0.000000        0.542169         3    ;  uncertainty k = 0.077000
         5         4        15        25     9      180.000000       -0.146042         4    ;  uncertainty k = 0.059767
         5         4        15        26     9        0.000000       -0.914078         1    ;  uncertainty k = 0.356128
         5         4        15        26     9      180.000000       -0.481016         2    ;  uncertainty k = 0.207164
         5         4        15        26     9        0.000000        0.542169         3    ;  uncertainty k = 0.077000
         5         4        15        26     9      180.000000       -0.146042         4    ;  uncertainty k = 0.059767
         5         4        15        27     9        0.000000       -0.914078         1    ;  uncertainty k = 0.356128
         5         4        15        27     9      180.000000       -0.481016         2    ;  uncertainty k = 0.207164
         5         4        15        27     9        0.000000        0.542169         3    ;  uncertainty k = 0.077000
         5         4        15        27     9      180.000000       -0.146042         4    ;  uncertainty k = 0.059767
         5         6         1        10     9        0.000000       -3.658773         1    ;  uncertainty k = 0.852122
         5         6         1        10     9      180.000000        0.875088         2    ;  uncertainty k = 0.536108
         5         6         1        10     9        0.000000        0.041856         3    ;  uncertainty k = 0.263262
         5         6         1        10     9      180.000000        0.237741         4    ;  uncertainty k = 0.150936
         6         1         2        16     9        0.000000       -6.047318         1    ;  uncertainty k = 1.982150
         6         1         2        16     9      180.000000        0.993138         2    ;  uncertainty k = 0.489809
         6         1         2        16     9        0.000000        0.822682         3    ;  uncertainty k = 0.044513
         6         1         2        16     9      180.000000       -0.076732         4    ;  uncertainty k = 0.063310
         6         1         2        17     9        0.000000       -6.047318         1    ;  uncertainty k = 1.982150
         6         1         2        17     9      180.000000        0.993138         2    ;  uncertainty k = 0.489809
         6         1         2        17     9        0.000000        0.822682         3    ;  uncertainty k = 0.044513
         6         1         2        17     9      180.000000       -0.076732         4    ;  uncertainty k = 0.063310
         6         1        10         9     9        0.000000        4.861602         1    ;  uncertainty k = 1.142817
         6         1        10         9     9      180.000000       11.526642         2    ;  uncertainty k = 0.151194
         6         1        10         9     9        0.000000        0.515084         3    ;  uncertainty k = 0.224234
         6         1        10         9     9      180.000000       -0.202702         4    ;  uncertainty k = 0.093698
         6         1        10        11     9        0.000000        6.609945         1    ;  uncertainty k = 0.873943
         6         1        10        11     9      180.000000       11.634624         2    ;  uncertainty k = 0.134629
         6         1        10        11     9        0.000000        0.530221         3    ;  uncertainty k = 0.140078
         6         1        10        11     9      180.000000       -0.230899         4    ;  uncertainty k = 0.107172
         6         5         4        14     9        0.000000       -4.922189         1    ;  uncertainty k = 1.419897
         6         5         4        14     9      180.000000       -1.288662         2    ;  uncertainty k = 1.614288
         6         5         4        14     9        0.000000        1.032740         3    ;  uncertainty k = 0.323245
         6         5         4        14     9      180.000000        0.204775         4    ;  uncertainty k = 0.137621
         6         5         4        15     9        0.000000       -4.846863         1    ;  uncertainty k = 0.953612
         6         5         4        15     9      180.000000        1.255315         2    ;  uncertainty k = 0.483535
         6         5         4        15     9        0.000000        0.497226         3    ;  uncertainty k = 0.328814
         6         5         4        15     9      180.000000       -0.186222         4    ;  uncertainty k = 0.107604
         7         8         9        10     9        0.000000       -0.635695         1    ;  uncertainty k = 0.506158
         7         8         9        10     9      180.000000       17.013491         2    ;  uncertainty k = 0.792329
         7         8         9        10     9        0.000000       -0.333414         3    ;  uncertainty k = 0.694408
         7         8         9        10     9      180.000000        1.387561         4    ;  uncertainty k = 0.670473
         7        12        11        10     9        0.000000        0.417227         1    ;  uncertainty k = 1.215136
         7        12        11        10     9      180.000000       11.085998         2    ;  uncertainty k = 0.623813
         7        12        11        10     9        0.000000        0.461272         3    ;  uncertainty k = 0.612506
         7        12        11        10     9      180.000000        1.107029         4    ;  uncertainty k = 0.388768
         7        12        13        29     9        0.000000       16.093848         1    ;  uncertainty k = 0.518133
         7        12        13        29     9      180.000000        7.143139         2    ;  uncertainty k = 0.485133
         7        12        13        29     9        0.000000        0.862196         3    ;  uncertainty k = 0.114753
         7        12        13        29     9      180.000000       -0.061602         4    ;  uncertainty k = 0.050273
         7        12        13        31     9        0.000000       16.093853         1    ;  uncertainty k = 0.518134
         7        12        13        31     9      180.000000        7.143139         2    ;  uncertainty k = 0.485135
         7        12        13        31     9        0.000000        0.862196         3    ;  uncertainty k = 0.114754
         7        12        13        31     9      180.000000       -0.061602         4    ;  uncertainty k = 0.050274
         7        32        33        34     9        0.000000        0.486664         1    ;  uncertainty k = 0.794013
         7        32        33        34     9      180.000000       15.358758         2    ;  uncertainty k = 0.450667
         7        32        33        34     9        0.000000        1.573616         3    ;  uncertainty k = 0.457081
         7        32        33        34     9      180.000000        0.838128         4    ;  uncertainty k = 0.350766
         7        32        33        37     9        0.000000        0.268722         1    ;  uncertainty k = 0.520304
         7        32        33        37     9      180.000000        8.958496         2    ;  uncertainty k = 0.409459
         7        32        33        37     9        0.000000        1.430814         3    ;  uncertainty k = 0.312330
         7        32        33        37     9      180.000000        0.819676         4    ;  uncertainty k = 0.247517
         7        32        36        35     9        0.000000        0.815106         1    ;  uncertainty k = 1.691920
         7        32        36        35     9      180.000000        9.715869         2    ;  uncertainty k = 0.967578
         7        32        36        35     9        0.000000        1.072115         3    ;  uncertainty k = 0.786350
         7        32        36        35     9      180.000000        0.467698         4    ;  uncertainty k = 0.459541
         8         7        12        11     9        0.000000       -0.026719         1    ;  uncertainty k = 0.698573
         8         7        12        11     9      180.000000        5.856385         2    ;  uncertainty k = 1.069810
         8         7        12        11     9        0.000000       -0.616170         3    ;  uncertainty k = 0.421587
         8         7        12        11     9      180.000000        1.058629         4    ;  uncertainty k = 0.442685
         8         7        12        13     9        0.000000       -0.751382         1    ;  uncertainty k = 0.739735
         8         7        12        13     9      180.000000        5.254925         2    ;  uncertainty k = 0.467175
         8         7        12        13     9        0.000000        0.512883         3    ;  uncertainty k = 0.420655
         8         7        12        13     9      180.000000        0.893002         4    ;  uncertainty k = 0.253090
         8         7        32        33     9        0.000000        0.077369         1    ;  uncertainty k = 0.564582
         8         7        32        33     9      180.000000        2.974934         2    ;  uncertainty k = 0.394016
         8         7        32        33     9        0.000000        0.624831         3    ;  uncertainty k = 0.285714
         8         7        32        33     9      180.000000       -0.096898         4    ;  uncertainty k = 0.083551
         8         7        32        36     9        0.000000       -1.005829         1    ;  uncertainty k = 1.833711
         8         7        32        36     9      180.000000        2.573140         2    ;  uncertainty k = 0.700950
         8         7        32        36     9        0.000000        0.297779         3    ;  uncertainty k = 0.094725
         8         7        32        36     9      180.000000        0.114621         4    ;  uncertainty k = 0.146378
         8         9        10        11     9        0.000000        0.091504         1    ;  uncertainty k = 1.348235
         8         9        10        11     9      180.000000        8.639857         2    ;  uncertainty k = 0.574190
         8         9        10        11     9        0.000000        0.787345         3    ;  uncertainty k = 0.506630
         8         9        10        11     9      180.000000        0.687701         4    ;  uncertainty k = 0.169339
         9         8         7        12     9        0.000000        0.157515         1    ;  uncertainty k = 0.545014
         9         8         7        12     9      180.000000       13.893438         2    ;  uncertainty k = 0.679655
         9         8         7        12     9        0.000000       -0.594224         3    ;  uncertainty k = 0.483156
         9         8         7        12     9      180.000000        1.037341         4    ;  uncertainty k = 0.311236
         9         8         7        32     9        0.000000       -0.002702         1    ;  uncertainty k = 0.715973
         9         8         7        32     9      180.000000       11.879755         2    ;  uncertainty k = 0.271636
         9         8         7        32     9        0.000000        0.740251         3    ;  uncertainty k = 0.241672
         9         8         7        32     9      180.000000        1.567572         4    ;  uncertainty k = 0.255615
         9        10        11        12     9        0.000000       -0.445747         1    ;  uncertainty k = 0.991940
         9        10        11        12     9      180.000000        8.327886         2    ;  uncertainty k = 0.498182
         9        10        11        12     9        0.000000        1.134820         3    ;  uncertainty k = 0.347629
         9        10        11        12     9      180.000000        0.618182         4    ;  uncertainty k = 0.257998
        10         1         2        16     9        0.000000       -0.422978         1    ;  uncertainty k = 0.568097
        10         1         2        16     9      180.000000        0.237748         2    ;  uncertainty k = 0.260172
        10         1         2        16     9        0.000000       -0.029850         3    ;  uncertainty k = 0.095711
        10         1         2        16     9      180.000000        0.275752         4    ;  uncertainty k = 0.038260
        10         1         2        17     9        0.000000       -0.422978         1    ;  uncertainty k = 0.568097
        10         1         2        17     9      180.000000        0.237748         2    ;  uncertainty k = 0.260172
        10         1         2        17     9        0.000000       -0.029850         3    ;  uncertainty k = 0.095711
        10         1         2        17     9      180.000000        0.275752         4    ;  uncertainty k = 0.038260
        10         1         6        22     9        0.000000       -0.422980         1    ;  uncertainty k = 0.568096
        10         1         6        22     9      180.000000        0.237748         2    ;  uncertainty k = 0.260170
        10         1         6        22     9        0.000000       -0.029850         3    ;  uncertainty k = 0.095711
        10         1         6        22     9      180.000000        0.275752         4    ;  uncertainty k = 0.038260
        10         1         6        23     9        0.000000       -0.422980         1    ;  uncertainty k = 0.568096
        10         1         6        23     9      180.000000        0.237748         2    ;  uncertainty k = 0.260170
        10         1         6        23     9        0.000000       -0.029850         3    ;  uncertainty k = 0.095711
        10         1         6        23     9      180.000000        0.275752         4    ;  uncertainty k = 0.038260
        10         9         8        30     9        0.000000       -0.574808         1    ;  uncertainty k = 0.871675
        10         9         8        30     9      180.000000       16.092707         2    ;  uncertainty k = 0.667507
        10         9         8        30     9        0.000000        1.513998         3    ;  uncertainty k = 0.737666
        10         9         8        30     9      180.000000        1.230192         4    ;  uncertainty k = 0.630055
        10        11        12        13     9        0.000000        0.521548         1    ;  uncertainty k = 1.234668
        10        11        12        13     9      180.000000       15.491521         2    ;  uncertainty k = 0.340021
        10        11        12        13     9        0.000000        2.504278         3    ;  uncertainty k = 0.489380
        10        11        12        13     9      180.000000        1.832123         4    ;  uncertainty k = 0.267930
        11        12         7        32     9        0.000000       -0.078442         1    ;  uncertainty k = 1.441624
        11        12         7        32     9      180.000000        6.909758         2    ;  uncertainty k = 0.624440
        11        12         7        32     9        0.000000        0.560120         3    ;  uncertainty k = 0.260285
        11        12         7        32     9      180.000000        1.362659         4    ;  uncertainty k = 0.433842
        11        12        13        29     9        0.000000       20.325317         1    ;  uncertainty k = 0.225268
        11        12        13        29     9      180.000000       12.838910         2    ;  uncertainty k = 0.159949
        11        12        13        29     9        0.000000        0.647238         3    ;  uncertainty k = 0.101715
        11        12        13        29     9      180.000000       -0.483590         4    ;  uncertainty k = 0.212925
        11        12        13        31     9        0.000000       20.325315         1    ;  uncertainty k = 0.225268
        11        12        13        31     9      180.000000       12.838906         2    ;  uncertainty k = 0.159949
        11        12        13        31     9        0.000000        0.647238         3    ;  uncertainty k = 0.101714
        11        12        13        31     9      180.000000       -0.483590         4    ;  uncertainty k = 0.212924
        12         7         8        30     9        0.000000       -0.525161         1    ;  uncertainty k = 0.437557
        12         7         8        30     9      180.000000        6.219816         2    ;  uncertainty k = 0.765867
        12         7         8        30     9        0.000000        0.912888         3    ;  uncertainty k = 0.184754
        12         7         8        30     9      180.000000        1.297236         4    ;  uncertainty k = 0.158219
        12         7        32        33     9        0.000000        1.253409         1    ;  uncertainty k = 1.976061
        12         7        32        33     9      180.000000        2.720315         2    ;  uncertainty k = 0.553261
        12         7        32        33     9        0.000000        0.602675         3    ;  uncertainty k = 0.489719
        12         7        32        33     9      180.000000        0.185012         4    ;  uncertainty k = 0.159356
        12         7        32        36     9        0.000000        1.611461         1    ;  uncertainty k = 1.846303
        12         7        32        36     9      180.000000        1.738821         2    ;  uncertainty k = 0.979081
        12         7        32        36     9        0.000000        0.763439         3    ;  uncertainty k = 0.390536
        12         7        32        36     9      180.000000        0.325042         4    ;  uncertainty k = 0.112951
        13        12         7        32     9        0.000000       -0.010847         1    ;  uncertainty k = 1.162379
        13        12         7        32     9      180.000000        6.703596         2    ;  uncertainty k = 0.902202
        13        12         7        32     9        0.000000        0.606579         3    ;  uncertainty k = 0.503739
        13        12         7        32     9      180.000000        0.947501         4    ;  uncertainty k = 0.149269
        14         4         3        18     9        0.000000       -0.957016         1    ;  uncertainty k = 0.777482
        14         4         3        18     9      180.000000       -1.810504         2    ;  uncertainty k = 0.431985
        14         4         3        18     9        0.000000        0.536111         3    ;  uncertainty k = 0.153239
        14         4         3        18     9      180.000000       -0.242449         4    ;  uncertainty k = 0.143920
        14         4         3        19     9        0.000000       -0.957016         1    ;  uncertainty k = 0.777482
        14         4         3        19     9      180.000000       -1.810504         2    ;  uncertainty k = 0.431985
        14         4         3        19     9        0.000000        0.536111         3    ;  uncertainty k = 0.153239
        14         4         3        19     9      180.000000       -0.242449         4    ;  uncertainty k = 0.143920
        14         4         5        20     9        0.000000       -0.957016         1    ;  uncertainty k = 0.777482
        14         4         5        20     9      180.000000       -1.810504         2    ;  uncertainty k = 0.431985
        14         4         5        20     9        0.000000        0.536111         3    ;  uncertainty k = 0.153239
        14         4         5        20     9      180.000000       -0.242449         4    ;  uncertainty k = 0.143920
        14         4         5        21     9        0.000000       -0.957015         1    ;  uncertainty k = 0.777479
        14         4         5        21     9      180.000000       -1.810504         2    ;  uncertainty k = 0.431986
        14         4         5        21     9        0.000000        0.536111         3    ;  uncertainty k = 0.153239
        14         4         5        21     9      180.000000       -0.242448         4    ;  uncertainty k = 0.143920
        14         4        15        25     9        0.000000       -1.658330         1    ;  uncertainty k = 1.431248
        14         4        15        25     9      180.000000       -2.618283         2    ;  uncertainty k = 0.451254
        14         4        15        25     9        0.000000        0.778238         3    ;  uncertainty k = 0.254191
        14         4        15        25     9      180.000000       -0.194334         4    ;  uncertainty k = 0.172569
        14         4        15        26     9        0.000000       -1.658330         1    ;  uncertainty k = 1.431248
        14         4        15        26     9      180.000000       -2.618283         2    ;  uncertainty k = 0.451254
        14         4        15        26     9        0.000000        0.778238         3    ;  uncertainty k = 0.254191
        14         4        15        26     9      180.000000       -0.194334         4    ;  uncertainty k = 0.172569
        14         4        15        27     9        0.000000       -1.658330         1    ;  uncertainty k = 1.431248
        14         4        15        27     9      180.000000       -2.618283         2    ;  uncertainty k = 0.451254
        14         4        15        27     9        0.000000        0.778238         3    ;  uncertainty k = 0.254191
        14         4        15        27     9      180.000000       -0.194334         4    ;  uncertainty k = 0.172569
        15         4         3        18     9        0.000000       -0.345185         1    ;  uncertainty k = 0.389031
        15         4         3        18     9      180.000000       -0.057707         2    ;  uncertainty k = 0.382824
        15         4         3        18     9        0.000000        0.281402         3    ;  uncertainty k = 0.220112
        15         4         3        18     9      180.000000       -0.051810         4    ;  uncertainty k = 0.076920
        15         4         3        19     9        0.000000       -0.345185         1    ;  uncertainty k = 0.389031
        15         4         3        19     9      180.000000       -0.057707         2    ;  uncertainty k = 0.382824
        15         4         3        19     9        0.000000        0.281402         3    ;  uncertainty k = 0.220112
        15         4         3        19     9      180.000000       -0.051810         4    ;  uncertainty k = 0.076920
        15         4         5        20     9        0.000000       -0.345185         1    ;  uncertainty k = 0.389031
        15         4         5        20     9      180.000000       -0.057707         2    ;  uncertainty k = 0.382824
        15         4         5        20     9        0.000000        0.281402         3    ;  uncertainty k = 0.220112
        15         4         5        20     9      180.000000       -0.051810         4    ;  uncertainty k = 0.076920
        15         4         5        21     9        0.000000       -0.345184         1    ;  uncertainty k = 0.389032
        15         4         5        21     9      180.000000       -0.057710         2    ;  uncertainty k = 0.382825
        15         4         5        21     9        0.000000        0.281401         3    ;  uncertainty k = 0.220112
        15         4         5        21     9      180.000000       -0.051810         4    ;  uncertainty k = 0.076919
        15         4        14        24     9        0.000000        0.214190         1    ;  uncertainty k = 1.165374
        15         4        14        24     9      180.000000       -0.101716         2    ;  uncertainty k = 0.387077
        15         4        14        24     9        0.000000        0.750310         3    ;  uncertainty k = 0.221539
        15         4        14        24     9      180.000000       -0.027140         4    ;  uncertainty k = 0.139765
        15         4        14        28     9        0.000000        0.214190         1    ;  uncertainty k = 1.165374
        15         4        14        28     9      180.000000       -0.101716         2    ;  uncertainty k = 0.387077
        15         4        14        28     9        0.000000        0.750310         3    ;  uncertainty k = 0.221539
        15         4        14        28     9      180.000000       -0.027140         4    ;  uncertainty k = 0.139765
        15         4        14        40     9        0.000000        0.214190         1    ;  uncertainty k = 1.165374
        15         4        14        40     9      180.000000       -0.101716         2    ;  uncertainty k = 0.387076
        15         4        14        40     9        0.000000        0.750310         3    ;  uncertainty k = 0.221539
        15         4        14        40     9      180.000000       -0.027140         4    ;  uncertainty k = 0.139764
        16         2         3        18     9        0.000000        0.137549         1    ;  uncertainty k = 0.221543
        16         2         3        18     9      180.000000        0.343768         2    ;  uncertainty k = 0.368627
        16         2         3        18     9        0.000000        0.156579         3    ;  uncertainty k = 0.091251
        16         2         3        18     9      180.000000       -0.126979         4    ;  uncertainty k = 0.142373
        16         2         3        19     9        0.000000        0.137549         1    ;  uncertainty k = 0.221543
        16         2         3        19     9      180.000000        0.343768         2    ;  uncertainty k = 0.368627
        16         2         3        19     9        0.000000        0.156579         3    ;  uncertainty k = 0.091251
        16         2         3        19     9      180.000000       -0.126979         4    ;  uncertainty k = 0.142373
        17         2         3        18     9        0.000000        0.137549         1    ;  uncertainty k = 0.221543
        17         2         3        18     9      180.000000        0.343768         2    ;  uncertainty k = 0.368627
        17         2         3        18     9        0.000000        0.156579         3    ;  uncertainty k = 0.091251
        17         2         3        18     9      180.000000       -0.126979         4    ;  uncertainty k = 0.142373
        17         2         3        19     9        0.000000        0.137549         1    ;  uncertainty k = 0.221543
        17         2         3        19     9      180.000000        0.343768         2    ;  uncertainty k = 0.368627
        17         2         3        19     9        0.000000        0.156579         3    ;  uncertainty k = 0.091251
        17         2         3        19     9      180.000000       -0.126979         4    ;  uncertainty k = 0.142373
        20         5         6        22     9        0.000000        0.137547         1    ;  uncertainty k = 0.221543
        20         5         6        22     9      180.000000        0.343770         2    ;  uncertainty k = 0.368627
        20         5         6        22     9        0.000000        0.156579         3    ;  uncertainty k = 0.091251
        20         5         6        22     9      180.000000       -0.126979         4    ;  uncertainty k = 0.142373
        20         5         6        23     9        0.000000        0.137547         1    ;  uncertainty k = 0.221543
        20         5         6        23     9      180.000000        0.343770         2    ;  uncertainty k = 0.368627
        20         5         6        23     9        0.000000        0.156579         3    ;  uncertainty k = 0.091251
        20         5         6        23     9      180.000000       -0.126979         4    ;  uncertainty k = 0.142373
        21         5         6        22     9        0.000000        0.137549         1    ;  uncertainty k = 0.221543
        21         5         6        22     9      180.000000        0.343768         2    ;  uncertainty k = 0.368628
        21         5         6        22     9        0.000000        0.156579         3    ;  uncertainty k = 0.091251
        21         5         6        22     9      180.000000       -0.126978         4    ;  uncertainty k = 0.142373
        21         5         6        23     9        0.000000        0.137549         1    ;  uncertainty k = 0.221543
        21         5         6        23     9      180.000000        0.343768         2    ;  uncertainty k = 0.368628
        21         5         6        23     9        0.000000        0.156579         3    ;  uncertainty k = 0.091251
        21         5         6        23     9      180.000000       -0.126978         4    ;  uncertainty k = 0.142373
        30         8         7        32     9        0.000000       -0.235468         1    ;  uncertainty k = 0.518288
        30         8         7        32     9      180.000000        6.337472         2    ;  uncertainty k = 0.564162
        30         8         7        32     9        0.000000        0.812532         3    ;  uncertainty k = 0.197441
        30         8         7        32     9      180.000000        1.241391         4    ;  uncertainty k = 0.326222
        32        33        34        35     9        0.000000       -0.318674         1    ;  uncertainty k = 0.868392
        32        33        34        35     9      180.000000       12.565996         2    ;  uncertainty k = 0.723399
        32        33        34        35     9        0.000000       -4.383858         3    ;  uncertainty k = 0.889851
        32        33        34        35     9      180.000000        1.531722         4    ;  uncertainty k = 0.527557
        32        33        34        38     9        0.000000       -0.091901         1    ;  uncertainty k = 0.411027
        32        33        34        38     9      180.000000        7.019296         2    ;  uncertainty k = 0.387774
        32        33        34        38     9        0.000000        1.311114         3    ;  uncertainty k = 0.253514
        32        33        34        38     9      180.000000        0.541064         4    ;  uncertainty k = 0.191901
        32        36        35        34     9        0.000000       -0.207328         1    ;  uncertainty k = 0.707464
        32        36        35        34     9      180.000000       11.620686         2    ;  uncertainty k = 0.595656
        32        36        35        34     9        0.000000       -6.526449         3    ;  uncertainty k = 0.744888
        32        36        35        34     9      180.000000        1.740578         4    ;  uncertainty k = 0.616573
        32        36        35        39     9        0.000000        1.194711         1    ;  uncertainty k = 1.134066
        32        36        35        39     9      180.000000        9.550346         2    ;  uncertainty k = 0.707394
        32        36        35        39     9        0.000000        1.493551         3    ;  uncertainty k = 0.585831
        32        36        35        39     9      180.000000        0.122531         4    ;  uncertainty k = 0.282599
        33        32        36        35     9        0.000000       -0.403160         1    ;  uncertainty k = 0.300445
        33        32        36        35     9      180.000000       11.485493         2    ;  uncertainty k = 0.504010
        33        32        36        35     9        0.000000       -7.484108         3    ;  uncertainty k = 0.958146
        33        32        36        35     9      180.000000        1.854398         4    ;  uncertainty k = 0.494942
        33        34        35        36     9        0.000000       -0.450924         1    ;  uncertainty k = 0.451355
        33        34        35        36     9      180.000000       17.743335         2    ;  uncertainty k = 0.670802
        33        34        35        36     9        0.000000       -2.771261         3    ;  uncertainty k = 0.543135
        33        34        35        36     9      180.000000        1.030675         4    ;  uncertainty k = 0.890791
        33        34        35        39     9        0.000000        0.354325         1    ;  uncertainty k = 0.555461
        33        34        35        39     9      180.000000       17.654823         2    ;  uncertainty k = 0.402680
        33        34        35        39     9        0.000000        2.102658         3    ;  uncertainty k = 0.435492
        33        34        35        39     9      180.000000        0.737481         4    ;  uncertainty k = 0.340412
        34        33        32        36     9        0.000000       -0.537805         1    ;  uncertainty k = 0.348014
        34        33        32        36     9      180.000000       18.647269         2    ;  uncertainty k = 0.452070
        34        33        32        36     9        0.000000       -3.429610         3    ;  uncertainty k = 0.654402
        34        33        32        36     9      180.000000        0.971699         4    ;  uncertainty k = 0.743425
        35        34        33        37     9        0.000000       -0.499666         1    ;  uncertainty k = 0.376687
        35        34        33        37     9      180.000000        7.142710         2    ;  uncertainty k = 0.244070
        35        34        33        37     9        0.000000        0.877959         3    ;  uncertainty k = 0.371069
        35        34        33        37     9      180.000000        0.533925         4    ;  uncertainty k = 0.190667
        36        32        33        37     9        0.000000        0.299205         1    ;  uncertainty k = 0.750511
        36        32        33        37     9      180.000000       11.745641         2    ;  uncertainty k = 0.481500
        36        32        33        37     9        0.000000        2.007905         3    ;  uncertainty k = 0.369162
        36        32        33        37     9      180.000000        1.202159         4    ;  uncertainty k = 0.179024
        36        35        34        38     9        0.000000        0.056438         1    ;  uncertainty k = 0.562436
        36        35        34        38     9      180.000000       10.642979         2    ;  uncertainty k = 0.365535
        36        35        34        38     9        0.000000        2.241955         3    ;  uncertainty k = 0.472139
        36        35        34        38     9      180.000000        1.077091         4    ;  uncertainty k = 0.189573
        37        33        34        38     9        0.000000       -0.132746         1    ;  uncertainty k = 0.961623
        37        33        34        38     9      180.000000        5.572156         2    ;  uncertainty k = 0.637857
        37        33        34        38     9        0.000000        1.102521         3    ;  uncertainty k = 0.476488
        37        33        34        38     9      180.000000        0.152518         4    ;  uncertainty k = 0.150575
        38        34        35        39     9        0.000000       -0.245420         1    ;  uncertainty k = 0.579180
        38        34        35        39     9      180.000000        9.309870         2    ;  uncertainty k = 0.565601
        38        34        35        39     9        0.000000        1.648489         3    ;  uncertainty k = 0.293183
        38        34        35        39     9      180.000000        0.876477         4    ;  uncertainty k = 0.365992

[ dihedrals ] ; impropers
;       ai        aj        ak        al funct           phase               k        pn
         1         2         6        10     4      180.000000        0.462524         2    ;  uncertainty k = 1.034235
         1         6        10         2     4      180.000000        0.462524         2    ;  uncertainty k = 1.034235
         1        10         2         6     4      180.000000        0.462524         2    ;  uncertainty k = 1.034235
         7         8        12        32     4      180.000000        5.095837         2    ;  uncertainty k = 0.406559
         7        12        32         8     4      180.000000        5.095837         2    ;  uncertainty k = 0.406559
         7        32         8        12     4      180.000000        5.095837         2    ;  uncertainty k = 0.406559
         8         7         9        30     4      180.000000       15.574809         2    ;  uncertainty k = 0.076774
         8         9        30         7     4      180.000000       15.574809         2    ;  uncertainty k = 0.076774
         8        30         7         9     4      180.000000       15.574809         2    ;  uncertainty k = 0.076774
        10         1         9        11     4      180.000000       42.664607         2    ;  uncertainty k = 0.075627
        10         9        11         1     4      180.000000       42.664607         2    ;  uncertainty k = 0.075627
        10        11         1         9     4      180.000000       42.664607         2    ;  uncertainty k = 0.075627
        12         7        11        13     4      180.000000       35.339385         2    ;  uncertainty k = 0.070222
        12        11        13         7     4      180.000000       35.339385         2    ;  uncertainty k = 0.070222
        12        13         7        11     4      180.000000       35.339385         2    ;  uncertainty k = 0.070222
        13        12        29        31     4      180.000000        0.228192         2    ;  uncertainty k = 0.471611
        13        29        31        12     4      180.000000        0.228192         2    ;  uncertainty k = 0.471611
        13        31        12        29     4      180.000000        0.228192         2    ;  uncertainty k = 0.471611
        32         7        33        36     4      180.000000        5.321723         2    ;  uncertainty k = 0.567460
        32        33        36         7     4      180.000000        5.321723         2    ;  uncertainty k = 0.567460
        32        36         7        33     4      180.000000        5.321723         2    ;  uncertainty k = 0.567460
        33        32        34        37     4      180.000000        0.883656         2    ;  uncertainty k = 0.665973
        33        34        37        32     4      180.000000        0.883656         2    ;  uncertainty k = 0.665973
        33        37        32        34     4      180.000000        0.883656         2    ;  uncertainty k = 0.665973
        34        33        35        38     4      180.000000        1.145806         2    ;  uncertainty k = 0.377577
        34        35        38        33     4      180.000000        1.145806         2    ;  uncertainty k = 0.377577
        34        38        33        35     4      180.000000        1.145806         2    ;  uncertainty k = 0.377577
        35        34        36        39     4      180.000000        2.221684         2    ;  uncertainty k = 0.922968
        35        36        39        34     4      180.000000        2.221684         2    ;  uncertainty k = 0.922968
        35        39        34        36     4      180.000000        2.221684         2    ;  uncertainty k = 0.922968

[ pairs ]
;       ai        aj funct
         1         4     1
         1         8     1
         1        12     1
         1        18     1
         1        19     1
         1        20     1
         1        21     1
         2         5     1
         2         9     1
         2        11     1
         2        14     1
         2        15     1
         2        22     1
         2        23     1
         3         6     1
         3        10     1
         3        20     1
         3        21     1
         3        24     1
         3        25     1
         3        26     1
         3        27     1
         3        28     1
         3        40     1
         4        16     1
         4        17     1
         4        22     1
         4        23     1
         5        10     1
         5        18     1
         5        19     1
         5        24     1
         5        25     1
         5        26     1
         5        27     1
         5        28     1
         5        40     1
         6         9     1
         6        11     1
         6        14     1
         6        15     1
         6        16     1
         6        17     1
         7        10     1
         7        29     1
         7        31     1
         7        34     1
         7        35     1
         7        37     1
         8        11     1
         8        13     1
         8        33     1
         8        36     1
         9        12     1
         9        32     1
        10        13     1
        10        16     1
        10        17     1
        10        22     1
        10        23     1
        10        30     1
        11        29     1
        11        31     1
        11        32     1
        12        30     1
        12        33     1
        12        36     1
        13        32     1
        14        18     1
        14        19     1
        14        20     1
        14        21     1
        14        25     1
        14        26     1
        14        27     1
        15        18     1
        15        19     1
        15        20     1
        15        21     1
        15        24     1
        15        28     1
        15        40     1
        16        18     1
        16        19     1
        17        18     1
        17        19     1
        20        22     1
        20        23     1
        21        22     1
        21        23     1
        30        32     1
        32        38     1
        32        39     1
        33        39     1
        35        37     1
        36        37     1
        36        38     1
        37        38     1
        38        39     1
