; ITP file created by ByteFF-joint-25, 2026-02-17 09:34:28.943361

[ atomtypes ]
;name           bonded.type        at.num        mass        charge   ptype           sigma         epsilon
 n0bf                                   7      0.0000       0.00000       A     3.18854e-01     9.01783e-01    ;  uncertainty sigma = 0.000048, epsilon = 0.008949
 c1bf                                   6      0.0000       0.00000       A     3.39785e-01     4.51041e-01    ;  uncertainty sigma = 0.000019, epsilon = 0.000750
 c2bf                                   6      0.0000       0.00000       A     3.39781e-01     4.50408e-01    ;  uncertainty sigma = 0.000012, epsilon = 0.002939
 n3bf                                   7      0.0000       0.00000       A     2.67848e-01     7.11345e+00    ;  uncertainty sigma = 0.000081, epsilon = 0.013767
 c4bf                                   6      0.0000       0.00000       A     3.39781e-01     4.50408e-01    ;  uncertainty sigma = 0.000012, epsilon = 0.002939
 c5bf                                   6      0.0000       0.00000       A     3.39785e-01     4.51041e-01    ;  uncertainty sigma = 0.000019, epsilon = 0.000750
 c6bf                                   6      0.0000       0.00000       A     3.31544e-01     4.12884e-01    ;  uncertainty sigma = 0.000006, epsilon = 0.000919
 c7bf                                   6      0.0000       0.00000       A     3.31516e-01     4.13405e-01    ;  uncertainty sigma = 0.000011, epsilon = 0.000748
 c8bf                                   6      0.0000       0.00000       A     3.31517e-01     4.13352e-01    ;  uncertainty sigma = 0.000005, epsilon = 0.000514
 c9bf                                   6      0.0000       0.00000       A     3.31517e-01     4.13339e-01    ;  uncertainty sigma = 0.000004, epsilon = 0.000628
 c10bf                                  6      0.0000       0.00000       A     3.31517e-01     4.13337e-01    ;  uncertainty sigma = 0.000004, epsilon = 0.000623
 c11bf                                  6      0.0000       0.00000       A     3.31509e-01     4.13079e-01    ;  uncertainty sigma = 0.000005, epsilon = 0.000621
 c12bf                                  6      0.0000       0.00000       A     3.31562e-01     4.12750e-01    ;  uncertainty sigma = 0.000015, epsilon = 0.001859
 c13bf                                  6      0.0000       0.00000       A     3.31510e-01     4.13299e-01    ;  uncertainty sigma = 0.000009, epsilon = 0.000627
 n14bf                                  7      0.0000       0.00000       A     3.38405e-01     3.93997e-01    ;  uncertainty sigma = 0.000020, epsilon = 0.001343
 c15bf                                  6      0.0000       0.00000       A     3.31593e-01     4.14674e-01    ;  uncertainty sigma = 0.000005, epsilon = 0.000907
 n16bf                                  7      0.0000       0.00000       A     3.38461e-01     3.93887e-01    ;  uncertainty sigma = 0.000038, epsilon = 0.001240
 c17bf                                  6      0.0000       0.00000       A     3.31536e-01     4.12147e-01    ;  uncertainty sigma = 0.000013, epsilon = 0.001746
 cl18bf                                17      0.0000       0.00000       A     3.46639e-01     1.10469e+00    ;  uncertainty sigma = 0.000020, epsilon = 0.001458
 cl19bf                                17      0.0000       0.00000       A     3.46608e-01     1.10488e+00    ;  uncertainty sigma = 0.000013, epsilon = 0.002160
 n20bf                                  7      0.0000       0.00000       A     3.36871e-01     4.68770e-01    ;  uncertainty sigma = 0.000036, epsilon = 0.004307
 c21bf                                  6      0.0000       0.00000       A     3.39797e-01     4.51325e-01    ;  uncertainty sigma = 0.000015, epsilon = 0.000395
 c22bf                                  6      0.0000       0.00000       A     3.39797e-01     4.51324e-01    ;  uncertainty sigma = 0.000015, epsilon = 0.000395
 h23bf                                  1      0.0000       0.00000       A     2.42207e-01     8.68256e-02    ;  uncertainty sigma = 0.000021, epsilon = 0.000432
 h24bf                                  1      0.0000       0.00000       A     2.42207e-01     8.68256e-02    ;  uncertainty sigma = 0.000021, epsilon = 0.000432
 h25bf                                  1      0.0000       0.00000       A     1.88590e-01     8.73090e-02    ;  uncertainty sigma = 0.000026, epsilon = 0.001311
 h26bf                                  1      0.0000       0.00000       A     1.10703e-01     4.08586e-02    ;  uncertainty sigma = 0.000171, epsilon = 0.000512
 h27bf                                  1      0.0000       0.00000       A     1.88590e-01     8.73090e-02    ;  uncertainty sigma = 0.000026, epsilon = 0.001311
 h28bf                                  1      0.0000       0.00000       A     2.42207e-01     8.68256e-02    ;  uncertainty sigma = 0.000021, epsilon = 0.000432
 h29bf                                  1      0.0000       0.00000       A     2.42207e-01     8.68256e-02    ;  uncertainty sigma = 0.000021, epsilon = 0.000432
 h30bf                                  1      0.0000       0.00000       A     2.62556e-01     6.70339e-02    ;  uncertainty sigma = 0.000007, epsilon = 0.000600
 h31bf                                  1      0.0000       0.00000       A     2.62568e-01     6.69666e-02    ;  uncertainty sigma = 0.000007, epsilon = 0.000468
 h32bf                                  1      0.0000       0.00000       A     2.62564e-01     6.70394e-02    ;  uncertainty sigma = 0.000010, epsilon = 0.000469
 h33bf                                  1      0.0000       0.00000       A     2.53681e-01     6.68791e-02    ;  uncertainty sigma = 0.000034, epsilon = 0.000846
 h34bf                                  1      0.0000       0.00000       A     1.10718e-01     4.12967e-02    ;  uncertainty sigma = 0.000085, epsilon = 0.000435
 h35bf                                  1      0.0000       0.00000       A     1.10718e-01     4.12967e-02    ;  uncertainty sigma = 0.000085, epsilon = 0.000435
 h36bf                                  1      0.0000       0.00000       A     2.59993e-01     8.65310e-02    ;  uncertainty sigma = 0.000019, epsilon = 0.000536
 h37bf                                  1      0.0000       0.00000       A     2.59993e-01     8.65310e-02    ;  uncertainty sigma = 0.000019, epsilon = 0.000536
 h38bf                                  1      0.0000       0.00000       A     2.59993e-01     8.65310e-02    ;  uncertainty sigma = 0.000019, epsilon = 0.000536
 h39bf                                  1      0.0000       0.00000       A     2.59993e-01     8.65310e-02    ;  uncertainty sigma = 0.000019, epsilon = 0.000536
 h40bf                                  1      0.0000       0.00000       A     2.59993e-01     8.65309e-02    ;  uncertainty sigma = 0.000019, epsilon = 0.000536
 h41bf                                  1      0.0000       0.00000       A     2.59993e-01     8.65310e-02    ;  uncertainty sigma = 0.000019, epsilon = 0.000536
 h42bf                                  1      0.0000       0.00000       A     1.10703e-01     4.08587e-02    ;  uncertainty sigma = 0.000171, epsilon = 0.000512

[ moleculetype ]
;name             nrexcl
 MOL                   3

[ atoms ]
;       nr            type      resi   res      atom      cgnr      charge          mass ; qtot
         1            n0bf         1   UNL        n0         1    -0.76801       14.0070 ; qtot   -0.768
         2            c1bf         1   UNL        c1         2     0.20764       12.0110 ; qtot   -0.560
         3            c2bf         1   UNL        c2         3     0.14076       12.0110 ; qtot   -0.420
         4            n3bf         1   UNL        n3         4    -0.78667       14.0070 ; qtot   -1.206
         5            c4bf         1   UNL        c4         5     0.14076       12.0110 ; qtot   -1.066
         6            c5bf         1   UNL        c5         6     0.20764       12.0110 ; qtot   -0.858
         7            c6bf         1   UNL        c6         7    -0.00236       12.0110 ; qtot   -0.860
         8            c7bf         1   UNL        c7         8     0.03905       12.0110 ; qtot   -0.821
         9            c8bf         1   UNL        c8         9     0.02984       12.0110 ; qtot   -0.791
        10            c9bf         1   UNL        c9        10    -0.10811       12.0110 ; qtot   -0.899
        11           c10bf         1   UNL       c10        11    -0.11758       12.0110 ; qtot   -1.017
        12           c11bf         1   UNL       c11        12    -0.11056       12.0110 ; qtot   -1.128
        13           c12bf         1   UNL       c12        13    -0.38191       12.0110 ; qtot   -1.510
        14           c13bf         1   UNL       c13        14     0.50957       12.0110 ; qtot   -1.000
        15           n14bf         1   UNL       n14        15    -0.78185       14.0070 ; qtot   -1.782
        16           c15bf         1   UNL       c15        16     0.92022       12.0110 ; qtot   -0.862
        17           n16bf         1   UNL       n16        17    -0.84005       14.0070 ; qtot   -1.702
        18           c17bf         1   UNL       c17        18     0.72606       12.0110 ; qtot   -0.976
        19          cl18bf         1   UNL      cl18        19    -0.08432       35.4530 ; qtot   -1.060
        20          cl19bf         1   UNL      cl19        20    -0.08434       35.4530 ; qtot   -1.144
        21           n20bf         1   UNL       n20        21    -0.92216       14.0070 ; qtot   -2.066
        22           c21bf         1   UNL       c21        22    -0.13213       12.0110 ; qtot   -2.199
        23           c22bf         1   UNL       c22        23    -0.13213       12.0110 ; qtot   -2.331
        24           h23bf         1   UNL       h23        24     0.09997        1.0080 ; qtot   -2.231
        25           h24bf         1   UNL       h24        25     0.09997        1.0080 ; qtot   -2.131
        26           h25bf         1   UNL       h25        26     0.10977        1.0080 ; qtot   -2.021
        27           h26bf         1   UNL       h26        27     0.45362        1.0080 ; qtot   -1.567
        28           h27bf         1   UNL       h27        28     0.10977        1.0080 ; qtot   -1.458
        29           h28bf         1   UNL       h28        29     0.09997        1.0080 ; qtot   -1.358
        30           h29bf         1   UNL       h29        30     0.09997        1.0080 ; qtot   -1.258
        31           h30bf         1   UNL       h30        31     0.15499        1.0080 ; qtot   -1.103
        32           h31bf         1   UNL       h31        32     0.14427        1.0080 ; qtot   -0.958
        33           h32bf         1   UNL       h32        33     0.14475        1.0080 ; qtot   -0.814
        34           h33bf         1   UNL       h33        34     0.02442        1.0080 ; qtot   -0.789
        35           h34bf         1   UNL       h34        35     0.42318        1.0080 ; qtot   -0.366
        36           h35bf         1   UNL       h35        36     0.42318        1.0080 ; qtot    0.057
        37           h36bf         1   UNL       h36        37     0.08153        1.0080 ; qtot    0.139
        38           h37bf         1   UNL       h37        38     0.08153        1.0080 ; qtot    0.220
        39           h38bf         1   UNL       h38        39     0.08153        1.0080 ; qtot    0.302
        40           h39bf         1   UNL       h39        40     0.08153        1.0080 ; qtot    0.383
        41           h40bf         1   UNL       h40        41     0.08153        1.0080 ; qtot    0.465
        42           h41bf         1   UNL       h41        42     0.08153        1.0080 ; qtot    0.546
        43           h42bf         1   UNL       h42        43     0.45363        1.0080 ; qtot    1.000

[ bonds ]
;       ai        aj funct               r               k
         1         2     1        0.144779   276549.631445    ;  uncertainty r = 0.000221, k = 15.766291
         1         6     1        0.144779   276549.631445    ;  uncertainty r = 0.000221, k = 15.766291
         1        16     1        0.140005   327605.923145    ;  uncertainty r = 0.000253, k = 27.135205
         2         3     1        0.153187   206368.956055    ;  uncertainty r = 0.000210, k = 9.934365
         2        24     1        0.109554   308679.860645    ;  uncertainty r = 0.000047, k = 3.717700
         2        25     1        0.109554   308679.860645    ;  uncertainty r = 0.000047, k = 3.717700
         3         4     1        0.152679   173592.037866    ;  uncertainty r = 0.000193, k = 5.031134
         3        22     1        0.152461   211900.638696    ;  uncertainty r = 0.000050, k = 7.217761
         3        26     1        0.109227   310938.311523    ;  uncertainty r = 0.000042, k = 5.423053
         4         5     1        0.152679   173592.037866    ;  uncertainty r = 0.000193, k = 5.031134
         4        27     1        0.102749   388723.503955    ;  uncertainty r = 0.000070, k = 10.530730
         4        43     1        0.102749   388723.503955    ;  uncertainty r = 0.000070, k = 10.530718
         5         6     1        0.153187   206368.956055    ;  uncertainty r = 0.000210, k = 9.934365
         5        23     1        0.152461   211900.638696    ;  uncertainty r = 0.000050, k = 7.217782
         5        28     1        0.109227   310938.311523    ;  uncertainty r = 0.000042, k = 5.423053
         6        29     1        0.109554   308679.860645    ;  uncertainty r = 0.000047, k = 3.717700
         6        30     1        0.109554   308679.860645    ;  uncertainty r = 0.000047, k = 3.717700
         7         8     1        0.140429   333897.985986    ;  uncertainty r = 0.000054, k = 5.714440
         7        12     1        0.140308   347052.508545    ;  uncertainty r = 0.000078, k = 3.464620
         7        13     1        0.148039   290467.100684    ;  uncertainty r = 0.000178, k = 8.335935
         8         9     1        0.140128   340452.493701    ;  uncertainty r = 0.000048, k = 1.609083
         8        20     1        0.174433   187283.580298    ;  uncertainty r = 0.000095, k = 4.003621
         9        10     1        0.139452   364547.190527    ;  uncertainty r = 0.000024, k = 3.123765
         9        19     1        0.174657   190992.449609    ;  uncertainty r = 0.000061, k = 2.464953
        10        11     1        0.139288   379463.467187    ;  uncertainty r = 0.000019, k = 0.532740
        10        31     1        0.108658   335617.322949    ;  uncertainty r = 0.000011, k = 0.544911
        11        12     1        0.139326   372187.280762    ;  uncertainty r = 0.000011, k = 0.917764
        11        32     1        0.108742   332867.155029    ;  uncertainty r = 0.000010, k = 1.148089
        12        33     1        0.108740   333988.489502    ;  uncertainty r = 0.000014, k = 1.635834
        13        14     1        0.140148   415850.630371    ;  uncertainty r = 0.000058, k = 21.561237
        13        18     1        0.142468   435436.827148    ;  uncertainty r = 0.000146, k = 25.675877
        14        15     1        0.134349   424378.135156    ;  uncertainty r = 0.000314, k = 14.939532
        14        34     1        0.108839   326187.643164    ;  uncertainty r = 0.000016, k = 4.409353
        15        16     1        0.135569   466988.589746    ;  uncertainty r = 0.000277, k = 23.811604
        16        17     1        0.136494   453987.289844    ;  uncertainty r = 0.000285, k = 24.461962
        17        18     1        0.137136   553885.550488    ;  uncertainty r = 0.000345, k = 18.138846
        18        21     1        0.141147   543861.928613    ;  uncertainty r = 0.000306, k = 32.823397
        21        35     1        0.101885   428718.371191    ;  uncertainty r = 0.000039, k = 2.239531
        21        36     1        0.101885   428718.371191    ;  uncertainty r = 0.000039, k = 2.239531
        22        37     1        0.109435   314705.596973    ;  uncertainty r = 0.000015, k = 2.568362
        22        38     1        0.109435   314705.596973    ;  uncertainty r = 0.000015, k = 2.568362
        22        39     1        0.109435   314705.596973    ;  uncertainty r = 0.000015, k = 2.568362
        23        40     1        0.109435   314705.596973    ;  uncertainty r = 0.000015, k = 2.568365
        23        41     1        0.109435   314705.596973    ;  uncertainty r = 0.000015, k = 2.568365
        23        42     1        0.109435   314705.596973    ;  uncertainty r = 0.000015, k = 2.568372

[ angles ]
;       ai        aj        ak funct           theta             cth
         1         2         3     1      109.329224      643.624345    ;  uncertainty theta = 0.006954, k = 0.212215
         1         2        24     1      107.277908      461.102963    ;  uncertainty theta = 0.004977, k = 0.064880
         1         2        25     1      107.277908      461.102963    ;  uncertainty theta = 0.004977, k = 0.064880
         1         6         5     1      109.329224      643.624345    ;  uncertainty theta = 0.006954, k = 0.212215
         1         6        29     1      107.277908      461.102963    ;  uncertainty theta = 0.004977, k = 0.064880
         1         6        30     1      107.277908      461.102963    ;  uncertainty theta = 0.004977, k = 0.064880
         1        16        15     1      120.721962      574.796217    ;  uncertainty theta = 0.007645, k = 0.124683
         1        16        17     1      120.884438      599.268492    ;  uncertainty theta = 0.007891, k = 0.116597
         2         1         6     1      108.938576      429.288864    ;  uncertainty theta = 0.003559, k = 0.373166
         2         1        16     1      111.160965      430.757726    ;  uncertainty theta = 0.003078, k = 0.119235
         2         3         4     1      107.460464      700.244585    ;  uncertainty theta = 0.003667, k = 0.186760
         2         3        22     1      112.441856      558.830480    ;  uncertainty theta = 0.004678, k = 0.128186
         2         3        26     1      109.599533      400.829128    ;  uncertainty theta = 0.003531, k = 0.077184
         3         2        24     1      108.323303      413.330948    ;  uncertainty theta = 0.002194, k = 0.117162
         3         2        25     1      108.323303      413.330948    ;  uncertainty theta = 0.002194, k = 0.117162
         3         4         5     1      113.868286      590.753909    ;  uncertainty theta = 0.003223, k = 0.150278
         3         4        27     1      108.401489      425.296264    ;  uncertainty theta = 0.002532, k = 0.161466
         3         4        43     1      108.401489      425.296264    ;  uncertainty theta = 0.002532, k = 0.161466
         3        22        37     1      107.746384      398.727264    ;  uncertainty theta = 0.001931, k = 0.092858
         3        22        38     1      107.746384      398.727264    ;  uncertainty theta = 0.001931, k = 0.092858
         3        22        39     1      107.746384      398.727264    ;  uncertainty theta = 0.001931, k = 0.092858
         4         3        22     1      109.754440      709.850113    ;  uncertainty theta = 0.002467, k = 0.173077
         4         3        26     1      104.779617      464.907226    ;  uncertainty theta = 0.002841, k = 0.109708
         4         5         6     1      107.460464      700.244585    ;  uncertainty theta = 0.003667, k = 0.186760
         4         5        23     1      109.754440      709.850113    ;  uncertainty theta = 0.002467, k = 0.173078
         4         5        28     1      104.779617      464.907226    ;  uncertainty theta = 0.002841, k = 0.109708
         5         4        27     1      108.401489      425.296264    ;  uncertainty theta = 0.002532, k = 0.161466
         5         4        43     1      108.401489      425.296233    ;  uncertainty theta = 0.002532, k = 0.161466
         5         6        29     1      108.323303      413.330948    ;  uncertainty theta = 0.002194, k = 0.117162
         5         6        30     1      108.323303      413.330948    ;  uncertainty theta = 0.002194, k = 0.117162
         5        23        40     1      107.746384      398.727328    ;  uncertainty theta = 0.001931, k = 0.092858
         5        23        41     1      107.746384      398.727328    ;  uncertainty theta = 0.001931, k = 0.092858
         5        23        42     1      107.746384      398.727328    ;  uncertainty theta = 0.001931, k = 0.092858
         6         1        16     1      111.160965      430.757726    ;  uncertainty theta = 0.003078, k = 0.119235
         6         5        23     1      112.441856      558.830480    ;  uncertainty theta = 0.004678, k = 0.128186
         6         5        28     1      109.599533      400.829160    ;  uncertainty theta = 0.003531, k = 0.077184
         7         8         9     1      123.806595      370.654575    ;  uncertainty theta = 0.003909, k = 0.241726
         7         8        20     1      117.947044      417.111557    ;  uncertainty theta = 0.003602, k = 0.105794
         7        12        11     1      121.123550      523.746609    ;  uncertainty theta = 0.001876, k = 0.071020
         7        12        33     1      118.550636      276.208673    ;  uncertainty theta = 0.002834, k = 0.073302
         7        13        14     1      123.380577      402.723215    ;  uncertainty theta = 0.004881, k = 0.230221
         7        13        18     1      121.296646      351.690239    ;  uncertainty theta = 0.004020, k = 0.355657
         8         7        12     1      121.064842      395.754841    ;  uncertainty theta = 0.002834, k = 0.243733
         8         7        13     1      120.830795      383.388591    ;  uncertainty theta = 0.006479, k = 0.176899
         8         9        10     1      121.616013      353.425103    ;  uncertainty theta = 0.003641, k = 0.137799
         8         9        19     1      120.540298      453.094142    ;  uncertainty theta = 0.001524, k = 0.111136
         9         8        20     1      120.212685      454.993050    ;  uncertainty theta = 0.002574, k = 0.111788
         9        10        11     1      118.528542      504.617048    ;  uncertainty theta = 0.003207, k = 0.070711
         9        10        31     1      119.966553      282.454411    ;  uncertainty theta = 0.002324, k = 0.079692
        10         9        19     1      120.286354      456.044413    ;  uncertainty theta = 0.002060, k = 0.119008
        10        11        12     1      119.409912      508.564574    ;  uncertainty theta = 0.002263, k = 0.038897
        10        11        32     1      120.063889      285.082084    ;  uncertainty theta = 0.000495, k = 0.022586
        11        10        31     1      121.400040      282.032570    ;  uncertainty theta = 0.001563, k = 0.013158
        11        12        33     1      120.689560      293.587538    ;  uncertainty theta = 0.000920, k = 0.056040
        12         7        13     1      122.426003      429.947019    ;  uncertainty theta = 0.006004, k = 0.145382
        12        11        32     1      120.405472      283.929530    ;  uncertainty theta = 0.000709, k = 0.032108
        13        14        15     1      124.068359      718.335776    ;  uncertainty theta = 0.002673, k = 0.164754
        13        14        34     1      119.538536      262.864017    ;  uncertainty theta = 0.003737, k = 0.141356
        13        18        17     1      122.303299      540.857143    ;  uncertainty theta = 0.008002, k = 0.155119
        13        18        21     1      125.345169      512.932058    ;  uncertainty theta = 0.003371, k = 0.195410
        14        13        18     1      117.095749      438.004775    ;  uncertainty theta = 0.015230, k = 0.894267
        14        15        16     1      115.725868      418.174763    ;  uncertainty theta = 0.009439, k = 0.316074
        15        14        34     1      116.537865      323.396782    ;  uncertainty theta = 0.004078, k = 0.146978
        15        16        17     1      128.799652      735.812033    ;  uncertainty theta = 0.002961, k = 0.074631
        16        17        18     1      122.512039      480.139601    ;  uncertainty theta = 0.008684, k = 0.106218
        17        18        21     1      125.528793      903.169543    ;  uncertainty theta = 0.004935, k = 0.070068
        18        21        35     1      118.192444      415.370341    ;  uncertainty theta = 0.001830, k = 0.144658
        18        21        36     1      118.192444      415.370341    ;  uncertainty theta = 0.001830, k = 0.144658
        22         3        26     1      110.246017      412.434404    ;  uncertainty theta = 0.002593, k = 0.168633
        23         5        28     1      110.246017      412.434404    ;  uncertainty theta = 0.002593, k = 0.168633
        24         2        25     1      106.342567      325.877137    ;  uncertainty theta = 0.001886, k = 0.093642
        27         4        43     1      105.967491      381.455496    ;  uncertainty theta = 0.002206, k = 0.193783
        29         6        30     1      106.342567      325.877137    ;  uncertainty theta = 0.001886, k = 0.093642
        35        21        36     1      107.953087      275.511637    ;  uncertainty theta = 0.001193, k = 0.067996
        37        22        38     1      105.948242      316.497421    ;  uncertainty theta = 0.000697, k = 0.035016
        37        22        39     1      105.948242      316.497421    ;  uncertainty theta = 0.000697, k = 0.035016
        38        22        39     1      105.948242      316.497421    ;  uncertainty theta = 0.000697, k = 0.035016
        40        23        41     1      105.948242      316.497421    ;  uncertainty theta = 0.000697, k = 0.035017
        40        23        42     1      105.948242      316.497421    ;  uncertainty theta = 0.000697, k = 0.035017
        41        23        42     1      105.948242      316.497389    ;  uncertainty theta = 0.000697, k = 0.035016

[ dihedrals ] ; propers for gromacs 4.5 or higher, use funct 9
;       ai        aj        ak        al funct           phase               k        pn
         1         2         3         4     9        0.000000        6.818754         1    ;  uncertainty k = 0.590441
         1         2         3         4     9      180.000000       -4.096436         2    ;  uncertainty k = 0.835785
         1         2         3         4     9        0.000000        1.742342         3    ;  uncertainty k = 0.401644
         1         2         3         4     9      180.000000       -0.262157         4    ;  uncertainty k = 0.255375
         1         2         3        22     9        0.000000       -2.412141         1    ;  uncertainty k = 0.610259
         1         2         3        22     9      180.000000        1.365198         2    ;  uncertainty k = 0.786605
         1         2         3        22     9        0.000000        1.518501         3    ;  uncertainty k = 0.408237
         1         2         3        22     9      180.000000       -0.209018         4    ;  uncertainty k = 0.158746
         1         2         3        26     9        0.000000        1.674598         1    ;  uncertainty k = 1.131297
         1         2         3        26     9      180.000000       -1.719808         2    ;  uncertainty k = 0.611710
         1         2         3        26     9        0.000000        0.637684         3    ;  uncertainty k = 0.165821
         1         2         3        26     9      180.000000        0.038240         4    ;  uncertainty k = 0.177330
         1         6         5         4     9        0.000000        6.818754         1    ;  uncertainty k = 0.590441
         1         6         5         4     9      180.000000       -4.096436         2    ;  uncertainty k = 0.835785
         1         6         5         4     9        0.000000        1.742342         3    ;  uncertainty k = 0.401644
         1         6         5         4     9      180.000000       -0.262157         4    ;  uncertainty k = 0.255375
         1         6         5        23     9        0.000000       -2.412142         1    ;  uncertainty k = 0.610259
         1         6         5        23     9      180.000000        1.365198         2    ;  uncertainty k = 0.786606
         1         6         5        23     9        0.000000        1.518501         3    ;  uncertainty k = 0.408237
         1         6         5        23     9      180.000000       -0.209018         4    ;  uncertainty k = 0.158747
         1         6         5        28     9        0.000000        1.674598         1    ;  uncertainty k = 1.131297
         1         6         5        28     9      180.000000       -1.719808         2    ;  uncertainty k = 0.611710
         1         6         5        28     9        0.000000        0.637684         3    ;  uncertainty k = 0.165821
         1         6         5        28     9      180.000000        0.038240         4    ;  uncertainty k = 0.177330
         1        16        15        14     9        0.000000        0.541697         1    ;  uncertainty k = 1.302859
         1        16        15        14     9      180.000000       11.463906         2    ;  uncertainty k = 0.258291
         1        16        15        14     9        0.000000        1.913731         3    ;  uncertainty k = 0.474765
         1        16        15        14     9      180.000000        1.040510         4    ;  uncertainty k = 0.333461
         1        16        17        18     9        0.000000        0.390684         1    ;  uncertainty k = 0.905977
         1        16        17        18     9      180.000000       11.199121         2    ;  uncertainty k = 0.586334
         1        16        17        18     9        0.000000        1.770467         3    ;  uncertainty k = 0.426432
         1        16        17        18     9      180.000000        0.903520         4    ;  uncertainty k = 0.398516
         2         1         6         5     9        0.000000       -3.245175         1    ;  uncertainty k = 3.888644
         2         1         6         5     9      180.000000       -0.667114         2    ;  uncertainty k = 0.392806
         2         1         6         5     9        0.000000        0.688246         3    ;  uncertainty k = 0.437496
         2         1         6         5     9      180.000000       -0.413245         4    ;  uncertainty k = 0.252968
         2         1         6        29     9        0.000000       -4.758292         1    ;  uncertainty k = 1.911032
         2         1         6        29     9      180.000000        0.579576         2    ;  uncertainty k = 0.611848
         2         1         6        29     9        0.000000        0.777261         3    ;  uncertainty k = 0.142514
         2         1         6        29     9      180.000000       -0.019571         4    ;  uncertainty k = 0.065458
         2         1         6        30     9        0.000000       -4.758292         1    ;  uncertainty k = 1.911032
         2         1         6        30     9      180.000000        0.579576         2    ;  uncertainty k = 0.611848
         2         1         6        30     9        0.000000        0.777261         3    ;  uncertainty k = 0.142514
         2         1         6        30     9      180.000000       -0.019571         4    ;  uncertainty k = 0.065458
         2         1        16        15     9        0.000000        6.092744         1    ;  uncertainty k = 0.639216
         2         1        16        15     9      180.000000        9.849098         2    ;  uncertainty k = 0.125325
         2         1        16        15     9        0.000000        0.393088         3    ;  uncertainty k = 0.568178
         2         1        16        15     9      180.000000       -0.170650         4    ;  uncertainty k = 0.159943
         2         1        16        17     9        0.000000        7.897552         1    ;  uncertainty k = 0.540106
         2         1        16        17     9      180.000000       10.040739         2    ;  uncertainty k = 0.060298
         2         1        16        17     9        0.000000        0.399412         3    ;  uncertainty k = 0.517405
         2         1        16        17     9      180.000000       -0.255495         4    ;  uncertainty k = 0.102086
         2         3         4         5     9        0.000000        3.582698         1    ;  uncertainty k = 1.517954
         2         3         4         5     9      180.000000       -1.850360         2    ;  uncertainty k = 1.106156
         2         3         4         5     9        0.000000        0.116075         3    ;  uncertainty k = 0.543376
         2         3         4         5     9      180.000000       -0.316679         4    ;  uncertainty k = 0.355921
         2         3         4        27     9        0.000000        0.387723         1    ;  uncertainty k = 0.479471
         2         3         4        27     9      180.000000       -0.437739         2    ;  uncertainty k = 0.598371
         2         3         4        27     9        0.000000        0.365970         3    ;  uncertainty k = 0.269109
         2         3         4        27     9      180.000000       -0.141939         4    ;  uncertainty k = 0.137865
         2         3         4        43     9        0.000000        0.387723         1    ;  uncertainty k = 0.479471
         2         3         4        43     9      180.000000       -0.437740         2    ;  uncertainty k = 0.598370
         2         3         4        43     9        0.000000        0.365970         3    ;  uncertainty k = 0.269109
         2         3         4        43     9      180.000000       -0.141939         4    ;  uncertainty k = 0.137865
         2         3        22        37     9        0.000000       -1.042537         1    ;  uncertainty k = 0.787801
         2         3        22        37     9      180.000000       -0.812632         2    ;  uncertainty k = 0.240321
         2         3        22        37     9        0.000000        0.744986         3    ;  uncertainty k = 0.157361
         2         3        22        37     9      180.000000       -0.253910         4    ;  uncertainty k = 0.099364
         2         3        22        38     9        0.000000       -1.042537         1    ;  uncertainty k = 0.787801
         2         3        22        38     9      180.000000       -0.812632         2    ;  uncertainty k = 0.240321
         2         3        22        38     9        0.000000        0.744986         3    ;  uncertainty k = 0.157361
         2         3        22        38     9      180.000000       -0.253910         4    ;  uncertainty k = 0.099364
         2         3        22        39     9        0.000000       -1.042537         1    ;  uncertainty k = 0.787801
         2         3        22        39     9      180.000000       -0.812632         2    ;  uncertainty k = 0.240321
         2         3        22        39     9        0.000000        0.744986         3    ;  uncertainty k = 0.157361
         2         3        22        39     9      180.000000       -0.253910         4    ;  uncertainty k = 0.099364
         3         2         1         6     9        0.000000       -3.245175         1    ;  uncertainty k = 3.888644
         3         2         1         6     9      180.000000       -0.667114         2    ;  uncertainty k = 0.392806
         3         2         1         6     9        0.000000        0.688246         3    ;  uncertainty k = 0.437496
         3         2         1         6     9      180.000000       -0.413245         4    ;  uncertainty k = 0.252968
         3         2         1        16     9        0.000000       -0.854705         1    ;  uncertainty k = 1.700803
         3         2         1        16     9      180.000000       -0.119246         2    ;  uncertainty k = 0.500806
         3         2         1        16     9        0.000000       -0.389409         3    ;  uncertainty k = 0.257722
         3         2         1        16     9      180.000000        0.191923         4    ;  uncertainty k = 0.122719
         3         4         5         6     9        0.000000        3.582698         1    ;  uncertainty k = 1.517954
         3         4         5         6     9      180.000000       -1.850360         2    ;  uncertainty k = 1.106156
         3         4         5         6     9        0.000000        0.116075         3    ;  uncertainty k = 0.543376
         3         4         5         6     9      180.000000       -0.316679         4    ;  uncertainty k = 0.355921
         3         4         5        23     9        0.000000       -2.218562         1    ;  uncertainty k = 1.065343
         3         4         5        23     9      180.000000        0.486142         2    ;  uncertainty k = 0.424972
         3         4         5        23     9        0.000000        0.735400         3    ;  uncertainty k = 0.289355
         3         4         5        23     9      180.000000       -0.138162         4    ;  uncertainty k = 0.164365
         3         4         5        28     9        0.000000       -0.096097         1    ;  uncertainty k = 0.574750
         3         4         5        28     9      180.000000       -0.612815         2    ;  uncertainty k = 0.435078
         3         4         5        28     9        0.000000        0.331438         3    ;  uncertainty k = 0.342985
         3         4         5        28     9      180.000000       -0.006389         4    ;  uncertainty k = 0.193963
         4         3         2        24     9        0.000000        1.898915         1    ;  uncertainty k = 1.095634
         4         3         2        24     9      180.000000       -3.128399         2    ;  uncertainty k = 0.999543
         4         3         2        24     9        0.000000       -0.081039         3    ;  uncertainty k = 0.341740
         4         3         2        24     9      180.000000        0.127786         4    ;  uncertainty k = 0.152689
         4         3         2        25     9        0.000000        1.898915         1    ;  uncertainty k = 1.095634
         4         3         2        25     9      180.000000       -3.128399         2    ;  uncertainty k = 0.999543
         4         3         2        25     9        0.000000       -0.081039         3    ;  uncertainty k = 0.341740
         4         3         2        25     9      180.000000        0.127786         4    ;  uncertainty k = 0.152689
         4         3        22        37     9        0.000000       -0.897307         1    ;  uncertainty k = 0.952665
         4         3        22        37     9      180.000000       -2.906535         2    ;  uncertainty k = 0.772198
         4         3        22        37     9        0.000000        1.040439         3    ;  uncertainty k = 0.157647
         4         3        22        37     9      180.000000       -0.209397         4    ;  uncertainty k = 0.110351
         4         3        22        38     9        0.000000       -0.897307         1    ;  uncertainty k = 0.952665
         4         3        22        38     9      180.000000       -2.906535         2    ;  uncertainty k = 0.772198
         4         3        22        38     9        0.000000        1.040439         3    ;  uncertainty k = 0.157647
         4         3        22        38     9      180.000000       -0.209397         4    ;  uncertainty k = 0.110351
         4         3        22        39     9        0.000000       -0.897307         1    ;  uncertainty k = 0.952665
         4         3        22        39     9      180.000000       -2.906535         2    ;  uncertainty k = 0.772198
         4         3        22        39     9        0.000000        1.040439         3    ;  uncertainty k = 0.157647
         4         3        22        39     9      180.000000       -0.209397         4    ;  uncertainty k = 0.110351
         4         5         6        29     9        0.000000        1.898915         1    ;  uncertainty k = 1.095634
         4         5         6        29     9      180.000000       -3.128399         2    ;  uncertainty k = 0.999543
         4         5         6        29     9        0.000000       -0.081039         3    ;  uncertainty k = 0.341740
         4         5         6        29     9      180.000000        0.127786         4    ;  uncertainty k = 0.152689
         4         5         6        30     9        0.000000        1.898915         1    ;  uncertainty k = 1.095634
         4         5         6        30     9      180.000000       -3.128399         2    ;  uncertainty k = 0.999543
         4         5         6        30     9        0.000000       -0.081039         3    ;  uncertainty k = 0.341740
         4         5         6        30     9      180.000000        0.127786         4    ;  uncertainty k = 0.152689
         4         5        23        40     9        0.000000       -0.897307         1    ;  uncertainty k = 0.952664
         4         5        23        40     9      180.000000       -2.906535         2    ;  uncertainty k = 0.772199
         4         5        23        40     9        0.000000        1.040439         3    ;  uncertainty k = 0.157647
         4         5        23        40     9      180.000000       -0.209396         4    ;  uncertainty k = 0.110352
         4         5        23        41     9        0.000000       -0.897307         1    ;  uncertainty k = 0.952664
         4         5        23        41     9      180.000000       -2.906535         2    ;  uncertainty k = 0.772199
         4         5        23        41     9        0.000000        1.040439         3    ;  uncertainty k = 0.157647
         4         5        23        41     9      180.000000       -0.209396         4    ;  uncertainty k = 0.110352
         4         5        23        42     9        0.000000       -0.897307         1    ;  uncertainty k = 0.952664
         4         5        23        42     9      180.000000       -2.906535         2    ;  uncertainty k = 0.772199
         4         5        23        42     9        0.000000        1.040439         3    ;  uncertainty k = 0.157647
         4         5        23        42     9      180.000000       -0.209396         4    ;  uncertainty k = 0.110352
         5         4         3        22     9        0.000000       -2.218562         1    ;  uncertainty k = 1.065343
         5         4         3        22     9      180.000000        0.486142         2    ;  uncertainty k = 0.424972
         5         4         3        22     9        0.000000        0.735400         3    ;  uncertainty k = 0.289355
         5         4         3        22     9      180.000000       -0.138162         4    ;  uncertainty k = 0.164365
         5         4         3        26     9        0.000000       -0.096097         1    ;  uncertainty k = 0.574750
         5         4         3        26     9      180.000000       -0.612815         2    ;  uncertainty k = 0.435078
         5         4         3        26     9        0.000000        0.331438         3    ;  uncertainty k = 0.342985
         5         4         3        26     9      180.000000       -0.006389         4    ;  uncertainty k = 0.193963
         5         6         1        16     9        0.000000       -0.854705         1    ;  uncertainty k = 1.700803
         5         6         1        16     9      180.000000       -0.119246         2    ;  uncertainty k = 0.500806
         5         6         1        16     9        0.000000       -0.389409         3    ;  uncertainty k = 0.257722
         5         6         1        16     9      180.000000        0.191923         4    ;  uncertainty k = 0.122719
         6         1         2        24     9        0.000000       -4.758292         1    ;  uncertainty k = 1.911032
         6         1         2        24     9      180.000000        0.579576         2    ;  uncertainty k = 0.611848
         6         1         2        24     9        0.000000        0.777261         3    ;  uncertainty k = 0.142514
         6         1         2        24     9      180.000000       -0.019571         4    ;  uncertainty k = 0.065458
         6         1         2        25     9        0.000000       -4.758292         1    ;  uncertainty k = 1.911032
         6         1         2        25     9      180.000000        0.579576         2    ;  uncertainty k = 0.611848
         6         1         2        25     9        0.000000        0.777261         3    ;  uncertainty k = 0.142514
         6         1         2        25     9      180.000000       -0.019571         4    ;  uncertainty k = 0.065458
         6         1        16        15     9        0.000000        6.092744         1    ;  uncertainty k = 0.639216
         6         1        16        15     9      180.000000        9.849098         2    ;  uncertainty k = 0.125325
         6         1        16        15     9        0.000000        0.393088         3    ;  uncertainty k = 0.568178
         6         1        16        15     9      180.000000       -0.170650         4    ;  uncertainty k = 0.159943
         6         1        16        17     9        0.000000        7.897552         1    ;  uncertainty k = 0.540106
         6         1        16        17     9      180.000000       10.040739         2    ;  uncertainty k = 0.060298
         6         1        16        17     9        0.000000        0.399412         3    ;  uncertainty k = 0.517405
         6         1        16        17     9      180.000000       -0.255495         4    ;  uncertainty k = 0.102086
         6         5         4        27     9        0.000000        0.387723         1    ;  uncertainty k = 0.479471
         6         5         4        27     9      180.000000       -0.437739         2    ;  uncertainty k = 0.598371
         6         5         4        27     9        0.000000        0.365970         3    ;  uncertainty k = 0.269109
         6         5         4        27     9      180.000000       -0.141939         4    ;  uncertainty k = 0.137865
         6         5         4        43     9        0.000000        0.387723         1    ;  uncertainty k = 0.479471
         6         5         4        43     9      180.000000       -0.437740         2    ;  uncertainty k = 0.598370
         6         5         4        43     9        0.000000        0.365970         3    ;  uncertainty k = 0.269109
         6         5         4        43     9      180.000000       -0.141939         4    ;  uncertainty k = 0.137865
         6         5        23        40     9        0.000000       -1.042536         1    ;  uncertainty k = 0.787802
         6         5        23        40     9      180.000000       -0.812631         2    ;  uncertainty k = 0.240320
         6         5        23        40     9        0.000000        0.744986         3    ;  uncertainty k = 0.157361
         6         5        23        40     9      180.000000       -0.253911         4    ;  uncertainty k = 0.099364
         6         5        23        41     9        0.000000       -1.042536         1    ;  uncertainty k = 0.787802
         6         5        23        41     9      180.000000       -0.812631         2    ;  uncertainty k = 0.240320
         6         5        23        41     9        0.000000        0.744986         3    ;  uncertainty k = 0.157361
         6         5        23        41     9      180.000000       -0.253911         4    ;  uncertainty k = 0.099364
         6         5        23        42     9        0.000000       -1.042536         1    ;  uncertainty k = 0.787802
         6         5        23        42     9      180.000000       -0.812631         2    ;  uncertainty k = 0.240320
         6         5        23        42     9        0.000000        0.744986         3    ;  uncertainty k = 0.157361
         6         5        23        42     9      180.000000       -0.253911         4    ;  uncertainty k = 0.099364
         7         8         9        10     9        0.000000       -0.280569         1    ;  uncertainty k = 0.284044
         7         8         9        10     9      180.000000        5.850053         2    ;  uncertainty k = 0.879436
         7         8         9        10     9        0.000000        0.565188         3    ;  uncertainty k = 0.156899
         7         8         9        10     9      180.000000        1.337050         4    ;  uncertainty k = 0.379094
         7         8         9        19     9        0.000000        0.100581         1    ;  uncertainty k = 0.174765
         7         8         9        19     9      180.000000        6.825309         2    ;  uncertainty k = 0.560726
         7         8         9        19     9        0.000000        1.450533         3    ;  uncertainty k = 0.273302
         7         8         9        19     9      180.000000        1.763537         4    ;  uncertainty k = 0.144408
         7        12        11        10     9        0.000000        0.010412         1    ;  uncertainty k = 0.163455
         7        12        11        10     9      180.000000       14.013986         2    ;  uncertainty k = 0.303637
         7        12        11        10     9        0.000000       -0.950179         3    ;  uncertainty k = 0.533633
         7        12        11        10     9      180.000000        0.721825         4    ;  uncertainty k = 0.233739
         7        12        11        32     9        0.000000        0.073262         1    ;  uncertainty k = 0.152053
         7        12        11        32     9      180.000000        7.235131         2    ;  uncertainty k = 0.306289
         7        12        11        32     9        0.000000        1.368173         3    ;  uncertainty k = 0.187514
         7        12        11        32     9      180.000000        1.804347         4    ;  uncertainty k = 0.097338
         7        13        14        15     9        0.000000        0.315909         1    ;  uncertainty k = 0.448325
         7        13        14        15     9      180.000000       12.719448         2    ;  uncertainty k = 0.433578
         7        13        14        15     9        0.000000        0.978741         3    ;  uncertainty k = 0.324248
         7        13        14        15     9      180.000000        1.417456         4    ;  uncertainty k = 0.268773
         7        13        14        34     9        0.000000       -0.577190         1    ;  uncertainty k = 0.710967
         7        13        14        34     9      180.000000        6.650512         2    ;  uncertainty k = 0.494976
         7        13        14        34     9        0.000000        0.929785         3    ;  uncertainty k = 0.166415
         7        13        14        34     9      180.000000        1.166653         4    ;  uncertainty k = 0.145120
         7        13        18        17     9        0.000000        0.668608         1    ;  uncertainty k = 0.525003
         7        13        18        17     9      180.000000        6.658736         2    ;  uncertainty k = 1.082533
         7        13        18        17     9        0.000000        0.707985         3    ;  uncertainty k = 0.134292
         7        13        18        17     9      180.000000        1.355618         4    ;  uncertainty k = 0.387676
         7        13        18        21     9        0.000000        0.295524         1    ;  uncertainty k = 1.171999
         7        13        18        21     9      180.000000        7.024442         2    ;  uncertainty k = 0.842105
         7        13        18        21     9        0.000000        0.613671         3    ;  uncertainty k = 0.331043
         7        13        18        21     9      180.000000        0.895696         4    ;  uncertainty k = 0.239282
         8         7        12        11     9        0.000000       -0.073176         1    ;  uncertainty k = 0.197895
         8         7        12        11     9      180.000000       10.663239         2    ;  uncertainty k = 0.403406
         8         7        12        11     9        0.000000       -0.041978         3    ;  uncertainty k = 0.352798
         8         7        12        11     9      180.000000        1.200769         4    ;  uncertainty k = 0.389049
         8         7        12        33     9        0.000000        0.220627         1    ;  uncertainty k = 0.353752
         8         7        12        33     9      180.000000        6.850098         2    ;  uncertainty k = 0.538023
         8         7        12        33     9        0.000000        1.432346         3    ;  uncertainty k = 0.275737
         8         7        12        33     9      180.000000        1.690819         4    ;  uncertainty k = 0.177762
         8         7        13        14     9        0.000000        1.468118         1    ;  uncertainty k = 1.151726
         8         7        13        14     9      180.000000        3.566773         2    ;  uncertainty k = 0.530926
         8         7        13        14     9        0.000000        0.495938         3    ;  uncertainty k = 0.158850
         8         7        13        14     9      180.000000        0.295165         4    ;  uncertainty k = 0.088394
         8         7        13        18     9        0.000000        3.756972         1    ;  uncertainty k = 1.409195
         8         7        13        18     9      180.000000        3.183553         2    ;  uncertainty k = 0.553995
         8         7        13        18     9        0.000000        1.323651         3    ;  uncertainty k = 0.557743
         8         7        13        18     9      180.000000        0.406532         4    ;  uncertainty k = 0.082164
         8         9        10        11     9        0.000000       -0.007919         1    ;  uncertainty k = 0.101402
         8         9        10        11     9      180.000000        9.712615         2    ;  uncertainty k = 0.314012
         8         9        10        11     9        0.000000        0.069000         3    ;  uncertainty k = 0.581226
         8         9        10        11     9      180.000000        1.231449         4    ;  uncertainty k = 0.309867
         8         9        10        31     9        0.000000        0.157987         1    ;  uncertainty k = 0.145761
         8         9        10        31     9      180.000000        6.152356         2    ;  uncertainty k = 0.598785
         8         9        10        31     9        0.000000        1.431827         3    ;  uncertainty k = 0.392371
         8         9        10        31     9      180.000000        1.578410         4    ;  uncertainty k = 0.163313
         9         8         7        12     9        0.000000       -0.062754         1    ;  uncertainty k = 0.462640
         9         8         7        12     9      180.000000        6.739815         2    ;  uncertainty k = 0.748070
         9         8         7        12     9        0.000000        0.478089         3    ;  uncertainty k = 0.442219
         9         8         7        12     9      180.000000        1.252093         4    ;  uncertainty k = 0.302421
         9         8         7        13     9        0.000000       -0.022926         1    ;  uncertainty k = 0.505694
         9         8         7        13     9      180.000000        6.635923         2    ;  uncertainty k = 0.467376
         9         8         7        13     9        0.000000        1.371761         3    ;  uncertainty k = 0.322618
         9         8         7        13     9      180.000000        1.584553         4    ;  uncertainty k = 0.230148
         9        10        11        12     9        0.000000        0.036870         1    ;  uncertainty k = 0.143830
         9        10        11        12     9      180.000000       14.533530         2    ;  uncertainty k = 0.198005
         9        10        11        12     9        0.000000       -1.107434         3    ;  uncertainty k = 0.627555
         9        10        11        12     9      180.000000        0.736085         4    ;  uncertainty k = 0.247741
         9        10        11        32     9        0.000000        0.056766         1    ;  uncertainty k = 0.136806
         9        10        11        32     9      180.000000        7.557542         2    ;  uncertainty k = 0.336708
         9        10        11        32     9        0.000000        1.504417         3    ;  uncertainty k = 0.260588
         9        10        11        32     9      180.000000        1.858726         4    ;  uncertainty k = 0.152812
        10         9         8        20     9        0.000000        0.175573         1    ;  uncertainty k = 0.276364
        10         9         8        20     9      180.000000        7.141747         2    ;  uncertainty k = 0.291729
        10         9         8        20     9        0.000000        1.466319         3    ;  uncertainty k = 0.198526
        10         9         8        20     9      180.000000        1.670546         4    ;  uncertainty k = 0.147824
        10        11        12        33     9        0.000000        0.059442         1    ;  uncertainty k = 0.033865
        10        11        12        33     9      180.000000        7.893910         2    ;  uncertainty k = 0.258539
        10        11        12        33     9        0.000000        1.416665         3    ;  uncertainty k = 0.297323
        10        11        12        33     9      180.000000        1.832546         4    ;  uncertainty k = 0.143071
        11        10         9        19     9        0.000000        0.112138         1    ;  uncertainty k = 0.255913
        11        10         9        19     9      180.000000        9.595874         2    ;  uncertainty k = 0.644413
        11        10         9        19     9        0.000000        1.484418         3    ;  uncertainty k = 0.456305
        11        10         9        19     9      180.000000        1.723615         4    ;  uncertainty k = 0.176687
        11        12         7        13     9        0.000000        0.040948         1    ;  uncertainty k = 0.260842
        11        12         7        13     9      180.000000        9.330551         2    ;  uncertainty k = 0.668764
        11        12         7        13     9        0.000000        1.182360         3    ;  uncertainty k = 0.390899
        11        12         7        13     9      180.000000        1.815241         4    ;  uncertainty k = 0.290947
        12         7         8        20     9        0.000000       -0.029773         1    ;  uncertainty k = 0.432232
        12         7         8        20     9      180.000000        7.817202         2    ;  uncertainty k = 0.470372
        12         7         8        20     9        0.000000        1.389665         3    ;  uncertainty k = 0.375474
        12         7         8        20     9      180.000000        1.556393         4    ;  uncertainty k = 0.203657
        12         7        13        14     9        0.000000       -1.386575         1    ;  uncertainty k = 0.402661
        12         7        13        14     9      180.000000        4.841232         2    ;  uncertainty k = 0.328898
        12         7        13        14     9        0.000000        0.641222         3    ;  uncertainty k = 0.404795
        12         7        13        14     9      180.000000        0.306785         4    ;  uncertainty k = 0.116357
        12         7        13        18     9        0.000000        0.573461         1    ;  uncertainty k = 1.208132
        12         7        13        18     9      180.000000        4.736720         2    ;  uncertainty k = 0.759791
        12         7        13        18     9        0.000000        0.577579         3    ;  uncertainty k = 0.359790
        12         7        13        18     9      180.000000        0.575871         4    ;  uncertainty k = 0.114507
        12        11        10        31     9        0.000000        0.150757         1    ;  uncertainty k = 0.084195
        12        11        10        31     9      180.000000        7.633825         2    ;  uncertainty k = 0.300647
        12        11        10        31     9        0.000000        1.487748         3    ;  uncertainty k = 0.262044
        12        11        10        31     9      180.000000        1.795402         4    ;  uncertainty k = 0.174621
        13         7         8        20     9        0.000000       -0.244119         1    ;  uncertainty k = 0.784849
        13         7         8        20     9      180.000000        7.877014         2    ;  uncertainty k = 0.296015
        13         7         8        20     9        0.000000        1.142733         3    ;  uncertainty k = 0.321214
        13         7         8        20     9      180.000000        1.433384         4    ;  uncertainty k = 0.226892
        13         7        12        33     9        0.000000       -0.140187         1    ;  uncertainty k = 0.171302
        13         7        12        33     9      180.000000        7.391449         2    ;  uncertainty k = 0.371156
        13         7        12        33     9        0.000000        0.885470         3    ;  uncertainty k = 0.330741
        13         7        12        33     9      180.000000        1.244079         4    ;  uncertainty k = 0.287884
        13        14        15        16     9        0.000000       -0.674601         1    ;  uncertainty k = 0.513602
        13        14        15        16     9      180.000000       16.168031         2    ;  uncertainty k = 0.584223
        13        14        15        16     9        0.000000       -0.156850         3    ;  uncertainty k = 0.722169
        13        14        15        16     9      180.000000        1.478399         4    ;  uncertainty k = 0.571462
        13        18        17        16     9        0.000000        0.714462         1    ;  uncertainty k = 1.483573
        13        18        17        16     9      180.000000       10.921935         2    ;  uncertainty k = 0.597829
        13        18        17        16     9        0.000000        0.810164         3    ;  uncertainty k = 0.734918
        13        18        17        16     9      180.000000        1.136768         4    ;  uncertainty k = 0.374011
        13        18        21        35     9        0.000000       14.472282         1    ;  uncertainty k = 0.305889
        13        18        21        35     9      180.000000        7.549963         2    ;  uncertainty k = 0.430901
        13        18        21        35     9        0.000000        0.805637         3    ;  uncertainty k = 0.186732
        13        18        21        35     9      180.000000       -0.139579         4    ;  uncertainty k = 0.064882
        13        18        21        36     9        0.000000       14.472282         1    ;  uncertainty k = 0.305889
        13        18        21        36     9      180.000000        7.549963         2    ;  uncertainty k = 0.430901
        13        18        21        36     9        0.000000        0.805637         3    ;  uncertainty k = 0.186732
        13        18        21        36     9      180.000000       -0.139579         4    ;  uncertainty k = 0.064882
        14        13        18        17     9        0.000000       -0.225485         1    ;  uncertainty k = 0.761861
        14        13        18        17     9      180.000000        6.440228         2    ;  uncertainty k = 1.055427
        14        13        18        17     9        0.000000       -0.760896         3    ;  uncertainty k = 0.348735
        14        13        18        17     9      180.000000        0.895782         4    ;  uncertainty k = 0.406785
        14        13        18        21     9        0.000000       -0.906508         1    ;  uncertainty k = 0.747777
        14        13        18        21     9      180.000000        5.668632         2    ;  uncertainty k = 0.438999
        14        13        18        21     9        0.000000        0.491269         3    ;  uncertainty k = 0.380307
        14        13        18        21     9      180.000000        0.760113         4    ;  uncertainty k = 0.208335
        14        15        16        17     9        0.000000       -0.262559         1    ;  uncertainty k = 1.192320
        14        15        16        17     9      180.000000        9.996735         2    ;  uncertainty k = 0.611060
        14        15        16        17     9        0.000000        0.687603         3    ;  uncertainty k = 0.537636
        14        15        16        17     9      180.000000        0.783824         4    ;  uncertainty k = 0.127156
        15        14        13        18     9        0.000000        0.158699         1    ;  uncertainty k = 0.668692
        15        14        13        18     9      180.000000       15.597120         2    ;  uncertainty k = 0.542510
        15        14        13        18     9        0.000000       -0.888981         3    ;  uncertainty k = 0.554465
        15        14        13        18     9      180.000000        0.853044         4    ;  uncertainty k = 0.183317
        15        16        17        18     9        0.000000       -0.812428         1    ;  uncertainty k = 1.287267
        15        16        17        18     9      180.000000        9.604282         2    ;  uncertainty k = 0.490377
        15        16        17        18     9        0.000000        0.997087         3    ;  uncertainty k = 0.407129
        15        16        17        18     9      180.000000        0.686549         4    ;  uncertainty k = 0.155407
        16         1         2        24     9        0.000000       -0.627363         1    ;  uncertainty k = 0.747919
        16         1         2        24     9      180.000000       -0.002450         2    ;  uncertainty k = 0.628919
        16         1         2        24     9        0.000000       -0.171531         3    ;  uncertainty k = 0.229940
        16         1         2        24     9      180.000000        0.276933         4    ;  uncertainty k = 0.052835
        16         1         2        25     9        0.000000       -0.627363         1    ;  uncertainty k = 0.747919
        16         1         2        25     9      180.000000       -0.002450         2    ;  uncertainty k = 0.628919
        16         1         2        25     9        0.000000       -0.171531         3    ;  uncertainty k = 0.229940
        16         1         2        25     9      180.000000        0.276933         4    ;  uncertainty k = 0.052835
        16         1         6        29     9        0.000000       -0.627363         1    ;  uncertainty k = 0.747919
        16         1         6        29     9      180.000000       -0.002450         2    ;  uncertainty k = 0.628919
        16         1         6        29     9        0.000000       -0.171531         3    ;  uncertainty k = 0.229940
        16         1         6        29     9      180.000000        0.276933         4    ;  uncertainty k = 0.052835
        16         1         6        30     9        0.000000       -0.627363         1    ;  uncertainty k = 0.747919
        16         1         6        30     9      180.000000       -0.002450         2    ;  uncertainty k = 0.628919
        16         1         6        30     9        0.000000       -0.171531         3    ;  uncertainty k = 0.229940
        16         1         6        30     9      180.000000        0.276933         4    ;  uncertainty k = 0.052835
        16        15        14        34     9        0.000000       -0.464594         1    ;  uncertainty k = 0.832237
        16        15        14        34     9      180.000000       15.932387         2    ;  uncertainty k = 0.587419
        16        15        14        34     9        0.000000        1.688156         3    ;  uncertainty k = 0.681553
        16        15        14        34     9      180.000000        1.156586         4    ;  uncertainty k = 0.618664
        16        17        18        21     9        0.000000        0.431785         1    ;  uncertainty k = 1.533264
        16        17        18        21     9      180.000000       15.312168         2    ;  uncertainty k = 0.255351
        16        17        18        21     9        0.000000        2.574227         3    ;  uncertainty k = 0.409870
        16        17        18        21     9      180.000000        1.874236         4    ;  uncertainty k = 0.310310
        17        18        21        35     9        0.000000       20.733106         1    ;  uncertainty k = 0.257632
        17        18        21        35     9      180.000000       12.720319         2    ;  uncertainty k = 0.157223
        17        18        21        35     9        0.000000        0.630492         3    ;  uncertainty k = 0.132648
        17        18        21        35     9      180.000000       -0.490804         4    ;  uncertainty k = 0.222648
        17        18        21        36     9        0.000000       20.733106         1    ;  uncertainty k = 0.257632
        17        18        21        36     9      180.000000       12.720319         2    ;  uncertainty k = 0.157223
        17        18        21        36     9        0.000000        0.630492         3    ;  uncertainty k = 0.132648
        17        18        21        36     9      180.000000       -0.490804         4    ;  uncertainty k = 0.222648
        18        13        14        34     9        0.000000       -0.532993         1    ;  uncertainty k = 0.536963
        18        13        14        34     9      180.000000        6.727941         2    ;  uncertainty k = 0.710433
        18        13        14        34     9        0.000000        0.791683         3    ;  uncertainty k = 0.344149
        18        13        14        34     9      180.000000        1.205376         4    ;  uncertainty k = 0.171017
        19         9         8        20     9        0.000000        0.125521         1    ;  uncertainty k = 0.513571
        19         9         8        20     9      180.000000        7.537906         2    ;  uncertainty k = 0.335303
        19         9         8        20     9        0.000000        1.191624         3    ;  uncertainty k = 0.260834
        19         9         8        20     9      180.000000        1.411209         4    ;  uncertainty k = 0.256626
        19         9        10        31     9        0.000000       -0.186330         1    ;  uncertainty k = 0.303115
        19         9        10        31     9      180.000000        7.595779         2    ;  uncertainty k = 0.393566
        19         9        10        31     9        0.000000        0.545351         3    ;  uncertainty k = 0.282548
        19         9        10        31     9      180.000000        1.006467         4    ;  uncertainty k = 0.166699
        22         3         2        24     9        0.000000       -1.099607         1    ;  uncertainty k = 0.961439
        22         3         2        24     9      180.000000        0.224343         2    ;  uncertainty k = 0.645548
        22         3         2        24     9        0.000000        0.232075         3    ;  uncertainty k = 0.178400
        22         3         2        24     9      180.000000       -0.215070         4    ;  uncertainty k = 0.094837
        22         3         2        25     9        0.000000       -1.099607         1    ;  uncertainty k = 0.961439
        22         3         2        25     9      180.000000        0.224343         2    ;  uncertainty k = 0.645548
        22         3         2        25     9        0.000000        0.232075         3    ;  uncertainty k = 0.178400
        22         3         2        25     9      180.000000       -0.215070         4    ;  uncertainty k = 0.094837
        22         3         4        27     9        0.000000        0.283183         1    ;  uncertainty k = 0.831612
        22         3         4        27     9      180.000000       -0.000328         2    ;  uncertainty k = 0.452533
        22         3         4        27     9        0.000000        0.536443         3    ;  uncertainty k = 0.053747
        22         3         4        27     9      180.000000       -0.055964         4    ;  uncertainty k = 0.106249
        22         3         4        43     9        0.000000        0.283182         1    ;  uncertainty k = 0.831612
        22         3         4        43     9      180.000000       -0.000328         2    ;  uncertainty k = 0.452531
        22         3         4        43     9        0.000000        0.536443         3    ;  uncertainty k = 0.053747
        22         3         4        43     9      180.000000       -0.055964         4    ;  uncertainty k = 0.106249
        23         5         4        27     9        0.000000        0.283184         1    ;  uncertainty k = 0.831610
        23         5         4        27     9      180.000000       -0.000329         2    ;  uncertainty k = 0.452531
        23         5         4        27     9        0.000000        0.536443         3    ;  uncertainty k = 0.053747
        23         5         4        27     9      180.000000       -0.055964         4    ;  uncertainty k = 0.106248
        23         5         4        43     9        0.000000        0.283183         1    ;  uncertainty k = 0.831612
        23         5         4        43     9      180.000000       -0.000330         2    ;  uncertainty k = 0.452532
        23         5         4        43     9        0.000000        0.536443         3    ;  uncertainty k = 0.053747
        23         5         4        43     9      180.000000       -0.055964         4    ;  uncertainty k = 0.106249
        23         5         6        29     9        0.000000       -1.099607         1    ;  uncertainty k = 0.961439
        23         5         6        29     9      180.000000        0.224342         2    ;  uncertainty k = 0.645549
        23         5         6        29     9        0.000000        0.232075         3    ;  uncertainty k = 0.178400
        23         5         6        29     9      180.000000       -0.215071         4    ;  uncertainty k = 0.094836
        23         5         6        30     9        0.000000       -1.099607         1    ;  uncertainty k = 0.961439
        23         5         6        30     9      180.000000        0.224342         2    ;  uncertainty k = 0.645549
        23         5         6        30     9        0.000000        0.232075         3    ;  uncertainty k = 0.178400
        23         5         6        30     9      180.000000       -0.215071         4    ;  uncertainty k = 0.094836
        24         2         3        26     9        0.000000       -0.089957         1    ;  uncertainty k = 0.391580
        24         2         3        26     9      180.000000        0.488641         2    ;  uncertainty k = 0.388972
        24         2         3        26     9        0.000000       -0.030083         3    ;  uncertainty k = 0.108045
        24         2         3        26     9      180.000000       -0.236342         4    ;  uncertainty k = 0.095087
        25         2         3        26     9        0.000000       -0.089957         1    ;  uncertainty k = 0.391580
        25         2         3        26     9      180.000000        0.488641         2    ;  uncertainty k = 0.388972
        25         2         3        26     9        0.000000       -0.030083         3    ;  uncertainty k = 0.108045
        25         2         3        26     9      180.000000       -0.236342         4    ;  uncertainty k = 0.095087
        26         3         4        27     9        0.000000        1.066204         1    ;  uncertainty k = 0.835752
        26         3         4        27     9      180.000000       -0.767065         2    ;  uncertainty k = 0.346639
        26         3         4        27     9        0.000000        0.067182         3    ;  uncertainty k = 0.187521
        26         3         4        27     9      180.000000        0.020691         4    ;  uncertainty k = 0.123472
        26         3         4        43     9        0.000000        1.066203         1    ;  uncertainty k = 0.835754
        26         3         4        43     9      180.000000       -0.767065         2    ;  uncertainty k = 0.346639
        26         3         4        43     9        0.000000        0.067181         3    ;  uncertainty k = 0.187522
        26         3         4        43     9      180.000000        0.020692         4    ;  uncertainty k = 0.123472
        26         3        22        37     9        0.000000        0.087358         1    ;  uncertainty k = 0.391327
        26         3        22        37     9      180.000000       -0.359821         2    ;  uncertainty k = 0.392956
        26         3        22        37     9        0.000000        0.412504         3    ;  uncertainty k = 0.152817
        26         3        22        37     9      180.000000       -0.099586         4    ;  uncertainty k = 0.152649
        26         3        22        38     9        0.000000        0.087358         1    ;  uncertainty k = 0.391327
        26         3        22        38     9      180.000000       -0.359821         2    ;  uncertainty k = 0.392956
        26         3        22        38     9        0.000000        0.412504         3    ;  uncertainty k = 0.152817
        26         3        22        38     9      180.000000       -0.099586         4    ;  uncertainty k = 0.152649
        26         3        22        39     9        0.000000        0.087358         1    ;  uncertainty k = 0.391327
        26         3        22        39     9      180.000000       -0.359821         2    ;  uncertainty k = 0.392956
        26         3        22        39     9        0.000000        0.412504         3    ;  uncertainty k = 0.152817
        26         3        22        39     9      180.000000       -0.099586         4    ;  uncertainty k = 0.152649
        27         4         5        28     9        0.000000        1.066204         1    ;  uncertainty k = 0.835752
        27         4         5        28     9      180.000000       -0.767065         2    ;  uncertainty k = 0.346639
        27         4         5        28     9        0.000000        0.067182         3    ;  uncertainty k = 0.187521
        27         4         5        28     9      180.000000        0.020691         4    ;  uncertainty k = 0.123472
        28         5         4        43     9        0.000000        1.066203         1    ;  uncertainty k = 0.835754
        28         5         4        43     9      180.000000       -0.767065         2    ;  uncertainty k = 0.346639
        28         5         4        43     9        0.000000        0.067181         3    ;  uncertainty k = 0.187522
        28         5         4        43     9      180.000000        0.020692         4    ;  uncertainty k = 0.123472
        28         5         6        29     9        0.000000       -0.089957         1    ;  uncertainty k = 0.391580
        28         5         6        29     9      180.000000        0.488641         2    ;  uncertainty k = 0.388972
        28         5         6        29     9        0.000000       -0.030083         3    ;  uncertainty k = 0.108045
        28         5         6        29     9      180.000000       -0.236342         4    ;  uncertainty k = 0.095087
        28         5         6        30     9        0.000000       -0.089957         1    ;  uncertainty k = 0.391580
        28         5         6        30     9      180.000000        0.488641         2    ;  uncertainty k = 0.388972
        28         5         6        30     9        0.000000       -0.030083         3    ;  uncertainty k = 0.108045
        28         5         6        30     9      180.000000       -0.236342         4    ;  uncertainty k = 0.095087
        28         5        23        40     9        0.000000        0.087358         1    ;  uncertainty k = 0.391327
        28         5        23        40     9      180.000000       -0.359823         2    ;  uncertainty k = 0.392956
        28         5        23        40     9        0.000000        0.412504         3    ;  uncertainty k = 0.152816
        28         5        23        40     9      180.000000       -0.099586         4    ;  uncertainty k = 0.152649
        28         5        23        41     9        0.000000        0.087358         1    ;  uncertainty k = 0.391327
        28         5        23        41     9      180.000000       -0.359823         2    ;  uncertainty k = 0.392956
        28         5        23        41     9        0.000000        0.412504         3    ;  uncertainty k = 0.152816
        28         5        23        41     9      180.000000       -0.099586         4    ;  uncertainty k = 0.152649
        28         5        23        42     9        0.000000        0.087358         1    ;  uncertainty k = 0.391327
        28         5        23        42     9      180.000000       -0.359823         2    ;  uncertainty k = 0.392956
        28         5        23        42     9        0.000000        0.412504         3    ;  uncertainty k = 0.152816
        28         5        23        42     9      180.000000       -0.099586         4    ;  uncertainty k = 0.152649
        31        10        11        32     9        0.000000       -0.041228         1    ;  uncertainty k = 0.137026
        31        10        11        32     9      180.000000        7.842755         2    ;  uncertainty k = 0.468640
        31        10        11        32     9        0.000000       -0.426336         3    ;  uncertainty k = 0.252784
        31        10        11        32     9      180.000000        0.042828         4    ;  uncertainty k = 0.172783
        32        11        12        33     9        0.000000       -0.001428         1    ;  uncertainty k = 0.180179
        32        11        12        33     9      180.000000        7.854342         2    ;  uncertainty k = 0.409466
        32        11        12        33     9        0.000000       -0.446760         3    ;  uncertainty k = 0.258265
        32        11        12        33     9      180.000000        0.134857         4    ;  uncertainty k = 0.128963

[ dihedrals ] ; impropers
;       ai        aj        ak        al funct           phase               k        pn
         7         8        12        13     4      180.000000       16.957020         2    ;  uncertainty k = 0.050529
         7        12        13         8     4      180.000000       16.957020         2    ;  uncertainty k = 0.050529
         7        13         8        12     4      180.000000       16.957020         2    ;  uncertainty k = 0.050529
         8         7         9        20     4      180.000000       13.740292         2    ;  uncertainty k = 0.083690
         8         9        20         7     4      180.000000       13.740292         2    ;  uncertainty k = 0.083690
         8        20         7         9     4      180.000000       13.740292         2    ;  uncertainty k = 0.083690
         9         8        10        19     4      180.000000       13.551993         2    ;  uncertainty k = 0.084239
         9        10        19         8     4      180.000000       13.551993         2    ;  uncertainty k = 0.084239
         9        19         8        10     4      180.000000       13.551993         2    ;  uncertainty k = 0.084239
        10         9        11        31     4      180.000000        3.702853         2    ;  uncertainty k = 0.124178
        10        11        31         9     4      180.000000        3.702853         2    ;  uncertainty k = 0.124178
        10        31         9        11     4      180.000000        3.702853         2    ;  uncertainty k = 0.124178
        11        10        12        32     4      180.000000        4.247340         2    ;  uncertainty k = 0.106583
        11        12        32        10     4      180.000000        4.247340         2    ;  uncertainty k = 0.106583
        11        32        10        12     4      180.000000        4.247340         2    ;  uncertainty k = 0.106583
        12         7        11        33     4      180.000000        3.534961         2    ;  uncertainty k = 0.118436
        12        11        33         7     4      180.000000        3.534961         2    ;  uncertainty k = 0.118436
        12        33         7        11     4      180.000000        3.534961         2    ;  uncertainty k = 0.118436
        13         7        14        18     4      180.000000        4.667717         2    ;  uncertainty k = 0.384239
        13        14        18         7     4      180.000000        4.667717         2    ;  uncertainty k = 0.384239
        13        18         7        14     4      180.000000        4.667717         2    ;  uncertainty k = 0.384239
        14        13        15        34     4      180.000000       15.815960         2    ;  uncertainty k = 0.083690
        14        15        34        13     4      180.000000       15.815960         2    ;  uncertainty k = 0.083690
        14        34        13        15     4      180.000000       15.815960         2    ;  uncertainty k = 0.083690
        16         1        15        17     4      180.000000       40.439955         2    ;  uncertainty k = 0.126383
        16        15        17         1     4      180.000000       40.439955         2    ;  uncertainty k = 0.126383
        16        17         1        15     4      180.000000       40.439955         2    ;  uncertainty k = 0.126383
        18        13        17        21     4      180.000000       35.332293         2    ;  uncertainty k = 0.063540
        18        17        21        13     4      180.000000       35.332293         2    ;  uncertainty k = 0.063540
        18        21        13        17     4      180.000000       35.332293         2    ;  uncertainty k = 0.063540
        21        18        35        36     4      180.000000        0.730707         2    ;  uncertainty k = 1.124817
        21        35        36        18     4      180.000000        0.730707         2    ;  uncertainty k = 1.124817
        21        36        18        35     4      180.000000        0.730707         2    ;  uncertainty k = 1.124817

[ pairs ]
;       ai        aj funct
         1         4     1
         1        14     1
         1        18     1
         1        22     1
         1        23     1
         1        26     1
         1        28     1
         2         5     1
         2        15     1
         2        17     1
         2        27     1
         2        29     1
         2        30     1
         2        37     1
         2        38     1
         2        39     1
         2        43     1
         3         6     1
         3        16     1
         3        23     1
         3        28     1
         4        24     1
         4        25     1
         4        29     1
         4        30     1
         4        37     1
         4        38     1
         4        39     1
         4        40     1
         4        41     1
         4        42     1
         5        16     1
         5        22     1
         5        26     1
         6        15     1
         6        17     1
         6        24     1
         6        25     1
         6        27     1
         6        40     1
         6        41     1
         6        42     1
         6        43     1
         7        10     1
         7        15     1
         7        17     1
         7        19     1
         7        21     1
         7        32     1
         7        34     1
         8        11     1
         8        14     1
         8        18     1
         8        31     1
         8        33     1
         9        12     1
         9        13     1
         9        32     1
        10        20     1
        10        33     1
        11        13     1
        11        19     1
        12        14     1
        12        18     1
        12        20     1
        12        31     1
        13        16     1
        13        20     1
        13        33     1
        13        35     1
        13        36     1
        14        17     1
        14        21     1
        15        18     1
        16        21     1
        16        24     1
        16        25     1
        16        29     1
        16        30     1
        16        34     1
        17        35     1
        17        36     1
        18        34     1
        19        20     1
        19        31     1
        22        24     1
        22        25     1
        22        27     1
        22        43     1
        23        27     1
        23        29     1
        23        30     1
        23        43     1
        24        26     1
        25        26     1
        26        27     1
        26        37     1
        26        38     1
        26        39     1
        26        43     1
        27        28     1
        28        29     1
        28        30     1
        28        40     1
        28        41     1
        28        42     1
        28        43     1
        31        32     1
        32        33     1
