; ITP file created by ByteFF-ML, 2026-02-21 08:17:57.946468

[ atomtypes ]
;name           bonded.type        at.num        mass        charge   ptype           sigma         epsilon
 c0bf                                   6      0.0000       0.00000       A     3.31348e-01     4.12485e-01
 c1bf                                   6      0.0000       0.00000       A     3.31309e-01     4.12807e-01
 c2bf                                   6      0.0000       0.00000       A     3.31380e-01     4.14060e-01
 c3bf                                   6      0.0000       0.00000       A     3.31550e-01     4.15551e-01
 c4bf                                   6      0.0000       0.00000       A     3.31552e-01     4.12605e-01
 c5bf                                   6      0.0000       0.00000       A     3.31475e-01     4.11535e-01
 c6bf                                   6      0.0000       0.00000       A     3.39655e-01     4.49447e-01
 c7bf                                   6      0.0000       0.00000       A     3.31893e-01     4.11495e-01
 n8bf                                   7      0.0000       0.00000       A     3.27441e-01     4.84508e-01
 c9bf                                   6      0.0000       0.00000       A     3.31413e-01     4.13526e-01
 o10bf                                  8      0.0000       0.00000       A     3.04535e-01     6.09762e-01
 n11bf                                  7      0.0000       0.00000       A     3.38247e-01     3.93466e-01
 c12bf                                  6      0.0000       0.00000       A     3.31399e-01     4.14453e-01
 c13bf                                  6      0.0000       0.00000       A     3.31540e-01     4.13015e-01
 c14bf                                  6      0.0000       0.00000       A     3.31393e-01     4.14643e-01
 c15bf                                  6      0.0000       0.00000       A     3.31576e-01     4.11459e-01
 o16bf                                  8      0.0000       0.00000       A     3.15703e-01     3.02628e-01
 c17bf                                  6      0.0000       0.00000       A     3.39763e-01     4.49902e-01
 o18bf                                  8      0.0000       0.00000       A     3.15727e-01     3.03705e-01
 c19bf                                  6      0.0000       0.00000       A     3.39784e-01     4.50460e-01
 n20bf                                  7      0.0000       0.00000       A     3.36513e-01     4.72176e-01
 c21bf                                  6      0.0000       0.00000       A     3.48265e-01     6.71656e-01
 o22bf                                  8      0.0000       0.00000       A     3.15904e-01     3.02254e-01
 c23bf                                  6      0.0000       0.00000       A     3.39748e-01     4.50578e-01
 c24bf                                  6      0.0000       0.00000       A     3.39811e-01     4.51198e-01
 br25bf                                35      0.0000       0.00000       A     3.61144e-01     1.64655e+00
 n26bf                                  7      0.0000       0.00000       A     3.27372e-01     4.59322e-01
 h27bf                                  1      0.0000       0.00000       A     2.62505e-01     6.70237e-02
 h28bf                                  1      0.0000       0.00000       A     2.62604e-01     6.75744e-02
 h29bf                                  1      0.0000       0.00000       A     2.62420e-01     6.84395e-02
 h30bf                                  1      0.0000       0.00000       A     2.59913e-01     8.79307e-02
 h31bf                                  1      0.0000       0.00000       A     2.59913e-01     8.79307e-02
 h32bf                                  1      0.0000       0.00000       A     1.10312e-01     4.02784e-02
 h33bf                                  1      0.0000       0.00000       A     2.42080e-01     8.75859e-02
 h34bf                                  1      0.0000       0.00000       A     2.42080e-01     8.75859e-02
 h35bf                                  1      0.0000       0.00000       A     2.42080e-01     8.75859e-02
 h36bf                                  1      0.0000       0.00000       A     2.42080e-01     8.75859e-02
 h37bf                                  1      0.0000       0.00000       A     2.42080e-01     8.75859e-02
 h38bf                                  1      0.0000       0.00000       A     2.42080e-01     8.75859e-02
 h39bf                                  1      0.0000       0.00000       A     1.10467e-01     4.08370e-02
 h40bf                                  1      0.0000       0.00000       A     1.10467e-01     4.08370e-02
 h41bf                                  1      0.0000       0.00000       A     2.42216e-01     8.76162e-02
 h42bf                                  1      0.0000       0.00000       A     2.42216e-01     8.76162e-02
 h43bf                                  1      0.0000       0.00000       A     2.60028e-01     8.73433e-02
 h44bf                                  1      0.0000       0.00000       A     2.60028e-01     8.73433e-02
 h45bf                                  1      0.0000       0.00000       A     2.60028e-01     8.73433e-02

[ moleculetype ]
;name             nrexcl
 17124-1               3

[ atoms ]
;       nr            type      resi   res      atom      cgnr      charge          mass ; qtot
         1            c0bf         1   UNL        c0         1    -0.12269       12.0110 ; qtot   -0.123
         2            c1bf         1   UNL        c1         2     0.12686       12.0110 ; qtot    0.004
         3            c2bf         1   UNL        c2         3    -0.09374       12.0110 ; qtot   -0.090
         4            c3bf         1   UNL        c3         4    -0.12991       12.0110 ; qtot   -0.219
         5            c4bf         1   UNL        c4         5     0.13169       12.0110 ; qtot   -0.088
         6            c5bf         1   UNL        c5         6    -0.01812       12.0110 ; qtot   -0.106
         7            c6bf         1   UNL        c6         7    -0.10696       12.0110 ; qtot   -0.213
         8            c7bf         1   UNL        c7         8     0.61335       12.0110 ; qtot    0.400
         9            n8bf         1   UNL        n8         9    -0.33030       14.0070 ; qtot    0.070
        10            c9bf         1   UNL        c9        10     0.55391       12.0110 ; qtot    0.624
        11           o10bf         1   UNL       o10        11    -0.56579       15.9990 ; qtot    0.058
        12           n11bf         1   UNL       n11        12    -0.80694       14.0070 ; qtot   -0.749
        13           c12bf         1   UNL       c12        13     0.68635       12.0110 ; qtot   -0.062
        14           c13bf         1   UNL       c13        14    -0.21375       12.0110 ; qtot   -0.276
        15           c14bf         1   UNL       c14        15     0.41091       12.0110 ; qtot    0.135
        16           c15bf         1   UNL       c15        16    -0.27787       12.0110 ; qtot   -0.143
        17           o16bf         1   UNL       o16        17    -0.33614       15.9990 ; qtot   -0.479
        18           c17bf         1   UNL       c17        18     0.14318       12.0110 ; qtot   -0.336
        19           o18bf         1   UNL       o18        19    -0.35544       15.9990 ; qtot   -0.691
        20           c19bf         1   UNL       c19        20     0.14460       12.0110 ; qtot   -0.547
        21           n20bf         1   UNL       n20        21    -1.06403       14.0070 ; qtot   -1.611
        22           c21bf         1   UNL       c21        22     0.34585       12.0110 ; qtot   -1.265
        23           o22bf         1   UNL       o22        23    -0.45337       15.9990 ; qtot   -1.718
        24           c23bf         1   UNL       c23        24     0.16982       12.0110 ; qtot   -1.549
        25           c24bf         1   UNL       c24        25    -0.11089       12.0110 ; qtot   -1.659
        26          br25bf         1   UNL      br25        26    -0.09092       79.9040 ; qtot   -1.750
        27           n26bf         1   UNL       n26        27    -0.46684       14.0070 ; qtot   -2.217
        28           h27bf         1   UNL       h27        28     0.13975        1.0080 ; qtot   -2.077
        29           h28bf         1   UNL       h28        29     0.13045        1.0080 ; qtot   -1.947
        30           h29bf         1   UNL       h29        30     0.14532        1.0080 ; qtot   -1.802
        31           h30bf         1   UNL       h30        31     0.07947        1.0080 ; qtot   -1.722
        32           h31bf         1   UNL       h31        32     0.07947        1.0080 ; qtot   -1.643
        33           h32bf         1   UNL       h32        33     0.18700        1.0080 ; qtot   -1.456
        34           h33bf         1   UNL       h33        34     0.04544        1.0080 ; qtot   -1.410
        35           h34bf         1   UNL       h34        35     0.04544        1.0080 ; qtot   -1.365
        36           h35bf         1   UNL       h35        36     0.04544        1.0080 ; qtot   -1.319
        37           h36bf         1   UNL       h36        37     0.04237        1.0080 ; qtot   -1.277
        38           h37bf         1   UNL       h37        38     0.04237        1.0080 ; qtot   -1.235
        39           h38bf         1   UNL       h38        39     0.04237        1.0080 ; qtot   -1.192
        40           h39bf         1   UNL       h39        40     0.47013        1.0080 ; qtot   -0.722
        41           h40bf         1   UNL       h40        41     0.47013        1.0080 ; qtot   -0.252
        42           h41bf         1   UNL       h41        42     0.05579        1.0080 ; qtot   -0.196
        43           h42bf         1   UNL       h42        43     0.05579        1.0080 ; qtot   -0.140
        44           h43bf         1   UNL       h43        44     0.04682        1.0080 ; qtot   -0.094
        45           h44bf         1   UNL       h44        45     0.04682        1.0080 ; qtot   -0.047
        46           h45bf         1   UNL       h45        46     0.04681        1.0080 ; qtot   -0.000

[ bonds ]
;       ai        aj funct               r               k
         1         2     1        0.139958   292047.005029
         1         6     1        0.139587   311694.541943
         1        28     1        0.108254   327215.894873
         2         3     1        0.140715   268120.597754
         2        19     1        0.137381   260103.579785
         3         4     1        0.139802   306683.880176
         3         7     1        0.151232   194738.398804
         4         5     1        0.140272   282533.282617
         4        29     1        0.108398   322366.346729
         5         6     1        0.140266   268344.507129
         5        17     1        0.136549   276730.638477
         6        26     1        0.191666   120916.757275
         7         8     1        0.153592   153621.967261
         7        31     1        0.109241   302571.256396
         7        32     1        0.109241   302571.256396
         8         9     1        0.137766   254542.108105
         8        11     1        0.122617   621123.227246
         9        10     1        0.140262   244903.560303
         9        33     1        0.101492   411234.644629
        10        12     1        0.134337   290399.835938
        10        16     1        0.139793   287882.362158
        12        13     1        0.132782   320066.244824
        13        14     1        0.141642   254795.895898
        13        23     1        0.134197   294966.407373
        14        15     1        0.141738   266111.669971
        14        22     1        0.142491   274099.473486
        15        16     1        0.140563   289985.828320
        15        21     1        0.137314   326218.977197
        16        30     1        0.108281   327746.760303
        17        18     1        0.142813   204827.331836
        18        34     1        0.109363   299979.112109
        18        35     1        0.109363   299979.112109
        18        36     1        0.109363   299979.137646
        19        20     1        0.142581   207208.284229
        20        37     1        0.109437   297369.347217
        20        38     1        0.109437   297369.347217
        20        39     1        0.109437   297369.347217
        21        40     1        0.101134   424950.626074
        21        41     1        0.101134   424950.626074
        22        27     1        0.116699  1087197.077734
        23        24     1        0.145397   160633.589233
        24        25     1        0.152033   202700.460913
        24        42     1        0.109268   302644.241455
        24        43     1        0.109268   302644.241455
        25        44     1        0.109353   303559.900049
        25        45     1        0.109353   303559.874512
        25        46     1        0.109353   303559.900049

[ angles ]
;       ai        aj        ak funct           theta             cth
         1         2         3     1      120.434120      615.762273
         1         2        19     1      123.408424      538.089367
         1         6         5     1      121.313461      634.147268
         1         6        26     1      118.871582      345.830526
         2         1         6     1      119.698593      714.448964
         2         1        28     1      121.192749      405.716260
         2         3         4     1      118.740952      696.161201
         2         3         7     1      120.450928      456.657750
         2        19        20     1      117.771461      541.901164
         3         2        19     1      116.148636      510.894644
         3         4         5     1      122.091881      712.513762
         3         4        29     1      118.872849      379.622570
         3         7         8     1      112.864624      597.929263
         3         7        31     1      110.206383      488.991785
         3         7        32     1      110.206383      488.991785
         4         3         7     1      120.755539      460.790484
         4         5         6     1      117.857361      497.947170
         4         5        17     1      123.943581      494.996421
         5         4        29     1      119.410934      416.113088
         5         6        26     1      119.713974      296.055667
         5        17        18     1      117.679176      539.662006
         6         1        28     1      119.409622      394.014295
         6         5        17     1      118.040039      435.694433
         7         8         9     1      113.833664      491.700282
         7         8        11     1      121.328224      493.112325
         8         7        31     1      107.046463      537.365773
         8         7        32     1      107.046463      537.365773
         8         9        10     1      129.069580      534.688143
         8         9        33     1      116.701096      438.836519
         9         8        11     1      124.602150      646.961023
         9        10        12     1      113.758102      582.256947
         9        10        16     1      121.951126      485.345213
        10         9        33     1      113.534424      449.375907
        10        12        13     1      118.304626      775.603190
        10        16        15     1      118.613724      856.851419
        10        16        30     1      120.376305      450.317237
        12        10        16     1      123.825233      554.462868
        12        13        14     1      123.571449      555.125811
        12        13        23     1      119.755508      555.194953
        13        14        15     1      117.943275      836.313646
        13        14        22     1      121.656006      569.704117
        13        23        24     1      118.239746      524.626714
        14        13        23     1      116.527573      485.761532
        14        15        16     1      117.811523      640.006247
        14        15        21     1      121.165833      573.180356
        14        22        27     1      176.858093      167.360000
        15        14        22     1      119.587379      527.335786
        15        16        30     1      120.382774      424.889235
        15        21        40     1      117.595009      461.050995
        15        21        41     1      117.595009      461.050995
        16        15        21     1      121.074852      515.527140
        17        18        34     1      109.381836      447.411752
        17        18        35     1      109.381836      447.411752
        17        18        36     1      109.381836      447.411752
        19        20        37     1      109.506874      451.049897
        19        20        38     1      109.506874      451.049897
        19        20        39     1      109.506874      451.049897
        23        24        25     1      109.218674      641.639473
        23        24        42     1      107.597557      461.944347
        23        24        43     1      107.597557      461.944347
        24        25        44     1      110.391464      492.871382
        24        25        45     1      110.391464      492.871382
        24        25        46     1      110.391464      492.871382
        25        24        42     1      111.604774      489.853694
        25        24        43     1      111.604774      489.853694
        31         7        32     1      107.749405      355.690404
        34        18        35     1      109.670753      343.564842
        34        18        36     1      109.670753      343.564842
        35        18        36     1      109.670753      343.564842
        37        20        38     1      109.504967      343.329358
        37        20        39     1      109.504967      343.329358
        38        20        39     1      109.504967      343.329358
        40        21        41     1      114.641884      341.475906
        42        24        43     1      108.699196      339.590023
        44        25        45     1      108.539650      361.992771
        44        25        46     1      108.539650      361.992771
        45        25        46     1      108.539650      361.992771

[ dihedrals ] ; propers for gromacs 4.5 or higher, use funct 9
;       ai        aj        ak        al funct           phase               k        pn
         1         2         3         4     9        0.000000       -0.201132         1
         1         2         3         4     9      180.000000       15.882153         2
         1         2         3         4     9        0.000000       -1.021510         3
         1         2         3         4     9      180.000000       -0.233276         4
         1         2         3         7     9        0.000000        0.156510         1
         1         2         3         7     9      180.000000       12.787571         2
         1         2         3         7     9        0.000000       -0.097831         3
         1         2         3         7     9      180.000000       -0.092517         4
         1         2        19        20     9        0.000000        1.211119         1
         1         2        19        20     9      180.000000        4.524520         2
         1         2        19        20     9        0.000000        0.012542         3
         1         2        19        20     9      180.000000        0.314702         4
         1         6         5         4     9        0.000000       -0.122863         1
         1         6         5         4     9      180.000000       14.690863         2
         1         6         5         4     9        0.000000       -1.070642         3
         1         6         5         4     9      180.000000       -0.174021         4
         1         6         5        17     9        0.000000        0.169927         1
         1         6         5        17     9      180.000000       16.168204         2
         1         6         5        17     9        0.000000        0.032145         3
         1         6         5        17     9      180.000000       -0.188681         4
         2         1         6         5     9        0.000000       -0.205174         1
         2         1         6         5     9      180.000000       17.975120         2
         2         1         6         5     9        0.000000       -1.532469         3
         2         1         6         5     9      180.000000       -0.481842         4
         2         1         6        26     9        0.000000        0.510323         1
         2         1         6        26     9      180.000000       18.143202         2
         2         1         6        26     9        0.000000        0.335885         3
         2         1         6        26     9      180.000000       -0.704415         4
         2         3         4         5     9        0.000000       -0.073403         1
         2         3         4         5     9      180.000000       19.292544         2
         2         3         4         5     9        0.000000       -1.548614         3
         2         3         4         5     9      180.000000       -0.541459         4
         2         3         4        29     9        0.000000        0.091822         1
         2         3         4        29     9      180.000000       14.829118         2
         2         3         4        29     9        0.000000       -0.309696         3
         2         3         4        29     9      180.000000        0.022654         4
         2         3         7         8     9        0.000000       -0.457039         1
         2         3         7         8     9      180.000000        0.064398         2
         2         3         7         8     9        0.000000        0.066544         3
         2         3         7         8     9      180.000000       -0.033380         4
         2         3         7        31     9        0.000000        0.005561         1
         2         3         7        31     9      180.000000       -0.067825         2
         2         3         7        31     9        0.000000        0.004111         3
         2         3         7        31     9      180.000000        0.106246         4
         2         3         7        32     9        0.000000        0.005561         1
         2         3         7        32     9      180.000000       -0.067825         2
         2         3         7        32     9        0.000000        0.004111         3
         2         3         7        32     9      180.000000        0.106246         4
         2        19        20        37     9        0.000000       -0.075576         1
         2        19        20        37     9      180.000000        0.051094         2
         2        19        20        37     9        0.000000        0.660713         3
         2        19        20        37     9      180.000000       -0.022730         4
         2        19        20        38     9        0.000000       -0.075576         1
         2        19        20        38     9      180.000000        0.051094         2
         2        19        20        38     9        0.000000        0.660713         3
         2        19        20        38     9      180.000000       -0.022730         4
         2        19        20        39     9        0.000000       -0.075576         1
         2        19        20        39     9      180.000000        0.051094         2
         2        19        20        39     9        0.000000        0.660713         3
         2        19        20        39     9      180.000000       -0.022730         4
         3         2         1         6     9        0.000000       -0.177813         1
         3         2         1         6     9      180.000000       16.323892         2
         3         2         1         6     9        0.000000       -1.137664         3
         3         2         1         6     9      180.000000       -0.336472         4
         3         2         1        28     9        0.000000        0.155445         1
         3         2         1        28     9      180.000000       12.338569         2
         3         2         1        28     9        0.000000       -0.465829         3
         3         2         1        28     9      180.000000        0.147900         4
         3         2        19        20     9        0.000000       -2.171432         1
         3         2        19        20     9      180.000000        5.476134         2
         3         2        19        20     9        0.000000       -0.331479         3
         3         2        19        20     9      180.000000        0.329258         4
         3         4         5         6     9        0.000000       -0.092122         1
         3         4         5         6     9      180.000000       15.426519         2
         3         4         5         6     9        0.000000       -1.132625         3
         3         4         5         6     9      180.000000       -0.279099         4
         3         4         5        17     9        0.000000        0.388924         1
         3         4         5        17     9      180.000000       18.239284         2
         3         4         5        17     9        0.000000        0.185582         3
         3         4         5        17     9      180.000000       -0.397372         4
         3         7         8         9     9        0.000000        0.649356         1
         3         7         8         9     9      180.000000        1.145311         2
         3         7         8         9     9        0.000000        0.096819         3
         3         7         8         9     9      180.000000        0.015743         4
         3         7         8        11     9        0.000000       -2.747788         1
         3         7         8        11     9      180.000000        0.768290         2
         3         7         8        11     9        0.000000        0.001536         3
         3         7         8        11     9      180.000000        0.017480         4
         4         3         2        19     9        0.000000        0.195842         1
         4         3         2        19     9      180.000000       18.186859         2
         4         3         2        19     9        0.000000        0.181432         3
         4         3         2        19     9      180.000000       -0.370940         4
         4         3         7         8     9        0.000000       -0.669865         1
         4         3         7         8     9      180.000000        0.056908         2
         4         3         7         8     9        0.000000       -0.048336         3
         4         3         7         8     9      180.000000        0.006146         4
         4         3         7        31     9        0.000000        0.101136         1
         4         3         7        31     9      180.000000       -0.060724         2
         4         3         7        31     9        0.000000        0.026117         3
         4         3         7        31     9      180.000000        0.033692         4
         4         3         7        32     9        0.000000        0.101136         1
         4         3         7        32     9      180.000000       -0.060724         2
         4         3         7        32     9        0.000000        0.026117         3
         4         3         7        32     9      180.000000        0.033692         4
         4         5         6        26     9        0.000000        0.266444         1
         4         5         6        26     9      180.000000       14.368383         2
         4         5         6        26     9        0.000000        0.057318         3
         4         5         6        26     9      180.000000       -0.264304         4
         4         5        17        18     9        0.000000       -0.583500         1
         4         5        17        18     9      180.000000        4.444142         2
         4         5        17        18     9        0.000000       -0.903111         3
         4         5        17        18     9      180.000000        0.555496         4
         5         4         3         7     9        0.000000        0.339398         1
         5         4         3         7     9      180.000000       16.388903         2
         5         4         3         7     9        0.000000       -0.106646         3
         5         4         3         7     9      180.000000       -0.418533         4
         5         6         1        28     9        0.000000        0.221162         1
         5         6         1        28     9      180.000000       13.070987         2
         5         6         1        28     9        0.000000       -0.474333         3
         5         6         1        28     9      180.000000        0.148726         4
         5        17        18        34     9        0.000000       -0.024366         1
         5        17        18        34     9      180.000000        0.005184         2
         5        17        18        34     9        0.000000        0.514183         3
         5        17        18        34     9      180.000000       -0.033132         4
         5        17        18        35     9        0.000000       -0.024366         1
         5        17        18        35     9      180.000000        0.005184         2
         5        17        18        35     9        0.000000        0.514183         3
         5        17        18        35     9      180.000000       -0.033132         4
         5        17        18        36     9        0.000000       -0.024367         1
         5        17        18        36     9      180.000000        0.005183         2
         5        17        18        36     9        0.000000        0.514183         3
         5        17        18        36     9      180.000000       -0.033132         4
         6         1         2        19     9        0.000000        0.475674         1
         6         1         2        19     9      180.000000       17.929796         2
         6         1         2        19     9        0.000000        0.260951         3
         6         1         2        19     9      180.000000       -0.405892         4
         6         5         4        29     9        0.000000        0.121342         1
         6         5         4        29     9      180.000000       12.033663         2
         6         5         4        29     9        0.000000       -0.525998         3
         6         5         4        29     9      180.000000        0.168950         4
         6         5        17        18     9        0.000000        1.825701         1
         6         5        17        18     9      180.000000        2.241843         2
         6         5        17        18     9        0.000000        0.582971         3
         6         5        17        18     9      180.000000        0.293588         4
         7         3         2        19     9        0.000000        0.111541         1
         7         3         2        19     9      180.000000       16.763127         2
         7         3         2        19     9        0.000000       -0.029048         3
         7         3         2        19     9      180.000000       -0.529615         4
         7         3         4        29     9        0.000000       -0.109896         1
         7         3         4        29     9      180.000000       13.147515         2
         7         3         4        29     9        0.000000       -0.462873         3
         7         3         4        29     9      180.000000        0.085168         4
         7         8         9        10     9        0.000000        0.953036         1
         7         8         9        10     9      180.000000        9.389414         2
         7         8         9        10     9        0.000000        0.383550         3
         7         8         9        10     9      180.000000       -0.691061         4
         7         8         9        33     9        0.000000        1.586875         1
         7         8         9        33     9      180.000000        9.627105         2
         7         8         9        33     9        0.000000        0.246001         3
         7         8         9        33     9      180.000000        0.510298         4
         8         9        10        12     9        0.000000       -2.686227         1
         8         9        10        12     9      180.000000        5.066668         2
         8         9        10        12     9        0.000000        0.433294         3
         8         9        10        12     9      180.000000       -0.226781         4
         8         9        10        16     9        0.000000        0.367824         1
         8         9        10        16     9      180.000000        3.339939         2
         8         9        10        16     9        0.000000       -0.088259         3
         8         9        10        16     9      180.000000        0.087734         4
         9         8         7        31     9        0.000000       -0.102699         1
         9         8         7        31     9      180.000000       -0.300971         2
         9         8         7        31     9        0.000000       -0.124593         3
         9         8         7        31     9      180.000000        0.138565         4
         9         8         7        32     9        0.000000       -0.102699         1
         9         8         7        32     9      180.000000       -0.300971         2
         9         8         7        32     9        0.000000       -0.124593         3
         9         8         7        32     9      180.000000        0.138565         4
         9        10        12        13     9        0.000000        0.729424         1
         9        10        12        13     9      180.000000       25.135957         2
         9        10        12        13     9        0.000000        0.666756         3
         9        10        12        13     9      180.000000       -0.984798         4
         9        10        16        15     9        0.000000        0.162093         1
         9        10        16        15     9      180.000000       17.408671         2
         9        10        16        15     9        0.000000        0.303134         3
         9        10        16        15     9      180.000000       -0.718301         4
         9        10        16        30     9        0.000000        0.136361         1
         9        10        16        30     9      180.000000       13.172674         2
         9        10        16        30     9        0.000000       -0.091888         3
         9        10        16        30     9      180.000000        0.103766         4
        10         9         8        11     9        0.000000       -0.840616         1
        10         9         8        11     9      180.000000       10.078041         2
        10         9         8        11     9        0.000000       -0.175423         3
        10         9         8        11     9      180.000000       -0.208874         4
        10        12        13        14     9        0.000000        0.476446         1
        10        12        13        14     9      180.000000       19.589618         2
        10        12        13        14     9        0.000000        0.565011         3
        10        12        13        14     9      180.000000       -0.849501         4
        10        12        13        23     9        0.000000        1.407982         1
        10        12        13        23     9      180.000000       24.112847         2
        10        12        13        23     9        0.000000        1.396001         3
        10        12        13        23     9      180.000000       -1.069387         4
        10        16        15        14     9        0.000000       -0.221252         1
        10        16        15        14     9      180.000000       14.625500         2
        10        16        15        14     9        0.000000       -1.286572         3
        10        16        15        14     9      180.000000       -0.424418         4
        10        16        15        21     9        0.000000       -0.032765         1
        10        16        15        21     9      180.000000       15.756841         2
        10        16        15        21     9        0.000000       -0.068443         3
        10        16        15        21     9      180.000000       -0.595816         4
        11         8         7        31     9        0.000000        0.254810         1
        11         8         7        31     9      180.000000        0.012136         2
        11         8         7        31     9        0.000000        0.062568         3
        11         8         7        31     9      180.000000        0.093519         4
        11         8         7        32     9        0.000000        0.254810         1
        11         8         7        32     9      180.000000        0.012136         2
        11         8         7        32     9        0.000000        0.062568         3
        11         8         7        32     9      180.000000        0.093519         4
        11         8         9        33     9        0.000000        0.002604         1
        11         8         9        33     9      180.000000       10.503663         2
        11         8         9        33     9        0.000000        0.191503         3
        11         8         9        33     9      180.000000        1.053032         4
        12        10         9        33     9        0.000000        3.775225         1
        12        10         9        33     9      180.000000        3.730190         2
        12        10         9        33     9        0.000000        0.217135         3
        12        10         9        33     9      180.000000       -0.319752         4
        12        10        16        15     9        0.000000       -0.276971         1
        12        10        16        15     9      180.000000       15.879808         2
        12        10        16        15     9        0.000000       -0.476804         3
        12        10        16        15     9      180.000000       -0.553410         4
        12        10        16        30     9        0.000000       -0.030188         1
        12        10        16        30     9      180.000000       12.754568         2
        12        10        16        30     9        0.000000       -0.019747         3
        12        10        16        30     9      180.000000       -0.135447         4
        12        13        14        15     9        0.000000       -0.464193         1
        12        13        14        15     9      180.000000       10.843665         2
        12        13        14        15     9        0.000000       -0.719716         3
        12        13        14        15     9      180.000000       -0.177181         4
        12        13        14        22     9        0.000000       -1.010597         1
        12        13        14        22     9      180.000000       11.454980         2
        12        13        14        22     9        0.000000       -0.525839         3
        12        13        14        22     9      180.000000       -0.460776         4
        12        13        23        24     9        0.000000        0.617461         1
        12        13        23        24     9      180.000000        8.076115         2
        12        13        23        24     9        0.000000        0.395627         3
        12        13        23        24     9      180.000000       -0.107526         4
        13        12        10        16     9        0.000000        0.391586         1
        13        12        10        16     9      180.000000       19.181884         2
        13        12        10        16     9        0.000000       -0.650401         3
        13        12        10        16     9      180.000000       -0.397317         4
        13        14        15        16     9        0.000000       -0.059177         1
        13        14        15        16     9      180.000000       12.441163         2
        13        14        15        16     9        0.000000       -0.883492         3
        13        14        15        16     9      180.000000       -0.108281         4
        13        14        15        21     9        0.000000        0.162817         1
        13        14        15        21     9      180.000000       14.573308         2
        13        14        15        21     9        0.000000        0.064552         3
        13        14        15        21     9      180.000000       -0.573788         4
        13        14        22        27     9        0.000000        0.000000         1
        13        14        22        27     9      180.000000        0.000000         2
        13        14        22        27     9        0.000000        0.000000         3
        13        14        22        27     9      180.000000        0.000000         4
        13        23        24        25     9        0.000000       -1.993607         1
        13        23        24        25     9      180.000000       -0.102255         2
        13        23        24        25     9        0.000000        0.383118         3
        13        23        24        25     9      180.000000       -0.003527         4
        13        23        24        42     9        0.000000        0.956754         1
        13        23        24        42     9      180.000000        0.061545         2
        13        23        24        42     9        0.000000        0.289292         3
        13        23        24        42     9      180.000000        0.003639         4
        13        23        24        43     9        0.000000        0.956754         1
        13        23        24        43     9      180.000000        0.061545         2
        13        23        24        43     9        0.000000        0.289292         3
        13        23        24        43     9      180.000000        0.003639         4
        14        13        23        24     9        0.000000       -1.415060         1
        14        13        23        24     9      180.000000        8.116562         2
        14        13        23        24     9        0.000000       -0.151470         3
        14        13        23        24     9      180.000000        0.222166         4
        14        15        16        30     9        0.000000       -0.272436         1
        14        15        16        30     9      180.000000       12.226124         2
        14        15        16        30     9        0.000000       -0.402097         3
        14        15        16        30     9      180.000000        0.036569         4
        14        15        21        40     9        0.000000        2.241293         1
        14        15        21        40     9      180.000000        6.242563         2
        14        15        21        40     9        0.000000        0.140057         3
        14        15        21        40     9      180.000000       -0.272719         4
        14        15        21        41     9        0.000000        2.241293         1
        14        15        21        41     9      180.000000        6.242563         2
        14        15        21        41     9        0.000000        0.140057         3
        14        15        21        41     9      180.000000       -0.272719         4
        15        14        13        23     9        0.000000        0.454309         1
        15        14        13        23     9      180.000000       13.016494         2
        15        14        13        23     9        0.000000        0.720589         3
        15        14        13        23     9      180.000000       -0.398476         4
        15        14        22        27     9        0.000000        0.000000         1
        15        14        22        27     9      180.000000        0.000000         2
        15        14        22        27     9        0.000000        0.000000         3
        15        14        22        27     9      180.000000        0.000000         4
        16        10         9        33     9        0.000000        1.444114         1
        16        10         9        33     9      180.000000        4.745283         2
        16        10         9        33     9        0.000000        0.907973         3
        16        10         9        33     9      180.000000       -0.000219         4
        16        15        14        22     9        0.000000       -0.081142         1
        16        15        14        22     9      180.000000       12.977246         2
        16        15        14        22     9        0.000000       -0.318499         3
        16        15        14        22     9      180.000000       -0.132217         4
        16        15        21        40     9        0.000000       -0.117483         1
        16        15        21        40     9      180.000000        6.276046         2
        16        15        21        40     9        0.000000        0.013310         3
        16        15        21        40     9      180.000000       -0.224693         4
        16        15        21        41     9        0.000000       -0.117483         1
        16        15        21        41     9      180.000000        6.276046         2
        16        15        21        41     9        0.000000        0.013310         3
        16        15        21        41     9      180.000000       -0.224693         4
        17         5         4        29     9        0.000000        0.038171         1
        17         5         4        29     9      180.000000       13.614916         2
        17         5         4        29     9        0.000000       -0.139822         3
        17         5         4        29     9      180.000000        0.220204         4
        17         5         6        26     9        0.000000        0.061040         1
        17         5         6        26     9      180.000000       17.338073         2
        17         5         6        26     9        0.000000        0.092725         3
        17         5         6        26     9      180.000000       -0.602387         4
        19         2         1        28     9        0.000000        0.234319         1
        19         2         1        28     9      180.000000       13.319900         2
        19         2         1        28     9        0.000000       -0.054506         3
        19         2         1        28     9      180.000000        0.305552         4
        21        15        14        22     9        0.000000       -0.220864         1
        21        15        14        22     9      180.000000       15.158682         2
        21        15        14        22     9        0.000000       -0.153296         3
        21        15        14        22     9      180.000000       -0.573510         4
        21        15        16        30     9        0.000000       -0.174826         1
        21        15        16        30     9      180.000000       14.115709         2
        21        15        16        30     9        0.000000       -0.275957         3
        21        15        16        30     9      180.000000        0.045247         4
        22        14        13        23     9        0.000000       -0.306668         1
        22        14        13        23     9      180.000000       13.260946         2
        22        14        13        23     9        0.000000       -0.112285         3
        22        14        13        23     9      180.000000       -0.440224         4
        23        24        25        44     9        0.000000        0.188760         1
        23        24        25        44     9      180.000000        0.030056         2
        23        24        25        44     9        0.000000        0.544573         3
        23        24        25        44     9      180.000000        0.044186         4
        23        24        25        45     9        0.000000        0.188760         1
        23        24        25        45     9      180.000000        0.030056         2
        23        24        25        45     9        0.000000        0.544573         3
        23        24        25        45     9      180.000000        0.044186         4
        23        24        25        46     9        0.000000        0.188760         1
        23        24        25        46     9      180.000000        0.030056         2
        23        24        25        46     9        0.000000        0.544573         3
        23        24        25        46     9      180.000000        0.044186         4
        26         6         1        28     9        0.000000        0.206296         1
        26         6         1        28     9      180.000000       13.194058         2
        26         6         1        28     9        0.000000       -0.048768         3
        26         6         1        28     9      180.000000        0.093603         4
        42        24        25        44     9        0.000000       -0.031410         1
        42        24        25        44     9      180.000000        0.011477         2
        42        24        25        44     9        0.000000        0.612781         3
        42        24        25        44     9      180.000000        0.005092         4
        42        24        25        45     9        0.000000       -0.031410         1
        42        24        25        45     9      180.000000        0.011477         2
        42        24        25        45     9        0.000000        0.612781         3
        42        24        25        45     9      180.000000        0.005092         4
        42        24        25        46     9        0.000000       -0.031410         1
        42        24        25        46     9      180.000000        0.011477         2
        42        24        25        46     9        0.000000        0.612781         3
        42        24        25        46     9      180.000000        0.005092         4
        43        24        25        44     9        0.000000       -0.031410         1
        43        24        25        44     9      180.000000        0.011477         2
        43        24        25        44     9        0.000000        0.612781         3
        43        24        25        44     9      180.000000        0.005092         4
        43        24        25        45     9        0.000000       -0.031410         1
        43        24        25        45     9      180.000000        0.011477         2
        43        24        25        45     9        0.000000        0.612781         3
        43        24        25        45     9      180.000000        0.005092         4
        43        24        25        46     9        0.000000       -0.031410         1
        43        24        25        46     9      180.000000        0.011477         2
        43        24        25        46     9        0.000000        0.612781         3
        43        24        25        46     9      180.000000        0.005092         4

[ dihedrals ] ; impropers
;       ai        aj        ak        al funct           phase               k        pn
         1         2         6        28     4      180.000000        0.241339         2
         1         6        28         2     4      180.000000        0.241339         2
         1        28         2         6     4      180.000000        0.241339         2
         8         7         9        11     4      180.000000       19.599544         2
         8         9        11         7     4      180.000000       19.599544         2
         8        11         7         9     4      180.000000       19.599544         2
        10         9        12        16     4      180.000000        2.711848         2
        10        12        16         9     4      180.000000        2.711848         2
        10        16         9        12     4      180.000000        2.711848         2
        13        12        14        23     4      180.000000       13.844207         2
        13        14        23        12     4      180.000000       13.844207         2
        13        23        12        14     4      180.000000       13.844207         2

[ pairs ]
;       ai        aj funct
         1         4     1
         1         7     1
         1        17     1
         1        20     1
         2         5     1
         2         8     1
         2        26     1
         2        29     1
         2        31     1
         2        32     1
         2        37     1
         2        38     1
         2        39     1
         3         6     1
         3         9     1
         3        11     1
         3        17     1
         3        20     1
         3        28     1
         4         8     1
         4        18     1
         4        19     1
         4        26     1
         4        31     1
         4        32     1
         5         7     1
         5        28     1
         5        34     1
         5        35     1
         5        36     1
         6        18     1
         6        19     1
         6        29     1
         7        10     1
         7        19     1
         7        29     1
         7        33     1
         8        12     1
         8        16     1
         9        13     1
         9        15     1
         9        30     1
         9        31     1
         9        32     1
        10        11     1
        10        14     1
        10        21     1
        10        23     1
        11        31     1
        11        32     1
        11        33     1
        12        15     1
        12        22     1
        12        24     1
        12        30     1
        12        33     1
        13        16     1
        13        21     1
        13        25     1
        13        27     1
        13        42     1
        13        43     1
        14        24     1
        14        30     1
        14        40     1
        14        41     1
        15        23     1
        15        27     1
        16        22     1
        16        33     1
        16        40     1
        16        41     1
        17        26     1
        17        29     1
        19        28     1
        21        22     1
        21        30     1
        22        23     1
        23        44     1
        23        45     1
        23        46     1
        26        28     1
        42        44     1
        42        45     1
        42        46     1
        43        44     1
        43        45     1
        43        46     1
