; ITP file created by ByteFF-ML, 2026-02-21 08:17:39.646450

[ atomtypes ]
;name           bonded.type        at.num        mass        charge   ptype           sigma         epsilon
 c0bf                                   6      0.0000       0.00000       A     3.31498e-01     4.13232e-01
 c1bf                                   6      0.0000       0.00000       A     3.31458e-01     4.12724e-01
 c2bf                                   6      0.0000       0.00000       A     3.31604e-01     4.12394e-01
 c3bf                                   6      0.0000       0.00000       A     3.31578e-01     4.13577e-01
 c4bf                                   6      0.0000       0.00000       A     3.31468e-01     4.13114e-01
 c5bf                                   6      0.0000       0.00000       A     3.31506e-01     4.12823e-01
 c6bf                                   6      0.0000       0.00000       A     3.39454e-01     4.49188e-01
 c7bf                                   6      0.0000       0.00000       A     3.31923e-01     4.11321e-01
 n8bf                                   7      0.0000       0.00000       A     3.27441e-01     4.84508e-01
 c9bf                                   6      0.0000       0.00000       A     3.31413e-01     4.13526e-01
 o10bf                                  8      0.0000       0.00000       A     3.04535e-01     6.09762e-01
 n11bf                                  7      0.0000       0.00000       A     3.38247e-01     3.93466e-01
 c12bf                                  6      0.0000       0.00000       A     3.31399e-01     4.14453e-01
 c13bf                                  6      0.0000       0.00000       A     3.31540e-01     4.13015e-01
 c14bf                                  6      0.0000       0.00000       A     3.31393e-01     4.14643e-01
 c15bf                                  6      0.0000       0.00000       A     3.31576e-01     4.11459e-01
 n16bf                                  7      0.0000       0.00000       A     3.36513e-01     4.72176e-01
 c17bf                                  6      0.0000       0.00000       A     3.48265e-01     6.71656e-01
 o18bf                                  8      0.0000       0.00000       A     3.15904e-01     3.02254e-01
 c19bf                                  6      0.0000       0.00000       A     3.39748e-01     4.50578e-01
 c20bf                                  6      0.0000       0.00000       A     3.39811e-01     4.51198e-01
 n21bf                                  7      0.0000       0.00000       A     3.27372e-01     4.59322e-01
 h22bf                                  1      0.0000       0.00000       A     2.62458e-01     6.72983e-02
 c23bf                                  6      0.0000       0.00000       A     3.39807e-01     4.50388e-01
 h24bf                                  1      0.0000       0.00000       A     2.62420e-01     6.84395e-02
 h25bf                                  1      0.0000       0.00000       A     2.60204e-01     8.64750e-02
 h26bf                                  1      0.0000       0.00000       A     2.60204e-01     8.64750e-02
 h27bf                                  1      0.0000       0.00000       A     1.10312e-01     4.02784e-02
 h28bf                                  1      0.0000       0.00000       A     1.10467e-01     4.08370e-02
 h29bf                                  1      0.0000       0.00000       A     1.10467e-01     4.08370e-02
 h30bf                                  1      0.0000       0.00000       A     2.42216e-01     8.76162e-02
 h31bf                                  1      0.0000       0.00000       A     2.42216e-01     8.76162e-02
 h32bf                                  1      0.0000       0.00000       A     2.60028e-01     8.73433e-02
 h33bf                                  1      0.0000       0.00000       A     2.60028e-01     8.73433e-02
 h34bf                                  1      0.0000       0.00000       A     2.60028e-01     8.73433e-02
 h35bf                                  1      0.0000       0.00000       A     2.62458e-01     6.72983e-02
 h36bf                                  1      0.0000       0.00000       A     2.62474e-01     6.73430e-02
 h37bf                                  1      0.0000       0.00000       A     2.59994e-01     8.72380e-02
 h38bf                                  1      0.0000       0.00000       A     2.59994e-01     8.72380e-02
 h39bf                                  1      0.0000       0.00000       A     2.59994e-01     8.72380e-02
 h40bf                                  1      0.0000       0.00000       A     2.62496e-01     6.75568e-02

[ moleculetype ]
;name             nrexcl
 18628-1               3

[ atoms ]
;       nr            type      resi   res      atom      cgnr      charge          mass ; qtot
         1            c0bf         1   UNL        c0         1    -0.11649       12.0110 ; qtot   -0.116
         2            c1bf         1   UNL        c1         2    -0.10032       12.0110 ; qtot   -0.217
         3            c2bf         1   UNL        c2         3    -0.09203       12.0110 ; qtot   -0.309
         4            c3bf         1   UNL        c3         4    -0.06289       12.0110 ; qtot   -0.372
         5            c4bf         1   UNL        c4         5    -0.11339       12.0110 ; qtot   -0.485
         6            c5bf         1   UNL        c5         6    -0.10556       12.0110 ; qtot   -0.591
         7            c6bf         1   UNL        c6         7    -0.10981       12.0110 ; qtot   -0.700
         8            c7bf         1   UNL        c7         8     0.61364       12.0110 ; qtot   -0.087
         9            n8bf         1   UNL        n8         9    -0.33155       14.0070 ; qtot   -0.418
        10            c9bf         1   UNL        c9        10     0.55391       12.0110 ; qtot    0.136
        11           o10bf         1   UNL       o10        11    -0.56806       15.9990 ; qtot   -0.433
        12           n11bf         1   UNL       n11        12    -0.80694       14.0070 ; qtot   -1.239
        13           c12bf         1   UNL       c12        13     0.68635       12.0110 ; qtot   -0.553
        14           c13bf         1   UNL       c13        14    -0.21375       12.0110 ; qtot   -0.767
        15           c14bf         1   UNL       c14        15     0.41091       12.0110 ; qtot   -0.356
        16           c15bf         1   UNL       c15        16    -0.27787       12.0110 ; qtot   -0.634
        17           n16bf         1   UNL       n16        17    -1.06403       14.0070 ; qtot   -1.698
        18           c17bf         1   UNL       c17        18     0.34585       12.0110 ; qtot   -1.352
        19           o18bf         1   UNL       o18        19    -0.45337       15.9990 ; qtot   -1.805
        20           c19bf         1   UNL       c19        20     0.16982       12.0110 ; qtot   -1.636
        21           c20bf         1   UNL       c20        21    -0.11089       12.0110 ; qtot   -1.746
        22           n21bf         1   UNL       n21        22    -0.46684       14.0070 ; qtot   -2.213
        23           h22bf         1   UNL       h22        23     0.11497        1.0080 ; qtot   -2.098
        24           c23bf         1   UNL       c23        24    -0.04988       12.0110 ; qtot   -2.148
        25           h24bf         1   UNL       h24        25     0.14532        1.0080 ; qtot   -2.003
        26           h25bf         1   UNL       h25        26     0.07575        1.0080 ; qtot   -1.927
        27           h26bf         1   UNL       h26        27     0.07575        1.0080 ; qtot   -1.851
        28           h27bf         1   UNL       h27        28     0.18700        1.0080 ; qtot   -1.664
        29           h28bf         1   UNL       h28        29     0.47013        1.0080 ; qtot   -1.194
        30           h29bf         1   UNL       h29        30     0.47013        1.0080 ; qtot   -0.724
        31           h30bf         1   UNL       h30        31     0.05579        1.0080 ; qtot   -0.668
        32           h31bf         1   UNL       h31        32     0.05579        1.0080 ; qtot   -0.613
        33           h32bf         1   UNL       h32        33     0.04682        1.0080 ; qtot   -0.566
        34           h33bf         1   UNL       h33        34     0.04682        1.0080 ; qtot   -0.519
        35           h34bf         1   UNL       h34        35     0.04682        1.0080 ; qtot   -0.472
        36           h35bf         1   UNL       h35        36     0.11281        1.0080 ; qtot   -0.359
        37           h36bf         1   UNL       h36        37     0.11160        1.0080 ; qtot   -0.248
        38           h37bf         1   UNL       h37        38     0.04371        1.0080 ; qtot   -0.204
        39           h38bf         1   UNL       h38        39     0.04371        1.0080 ; qtot   -0.160
        40           h39bf         1   UNL       h39        40     0.04371        1.0080 ; qtot   -0.117
        41           h40bf         1   UNL       h40        41     0.11656        1.0080 ; qtot   -0.000

[ bonds ]
;       ai        aj funct               r               k
         1         2     1        0.139714   312346.274512
         1         6     1        0.139733   310312.805566
         1        23     1        0.108634   319327.200879
         2         3     1        0.140195   291663.386572
         2        41     1        0.108678   315876.269141
         3         4     1        0.141204   264560.571484
         3         7     1        0.151445   191669.770361
         4         5     1        0.140240   293663.938184
         4        24     1        0.151257   201733.191821
         5         6     1        0.139823   309334.325684
         5        37     1        0.108726   314712.823975
         6        36     1        0.108650   318890.107715
         7         8     1        0.153552   154397.695264
         7        26     1        0.109361   299124.053076
         7        27     1        0.109361   299124.053076
         8         9     1        0.137896   252338.587549
         8        11     1        0.122613   621533.302148
         9        10     1        0.140262   244903.560303
         9        28     1        0.101492   411234.644629
        10        12     1        0.134337   290399.835938
        10        16     1        0.139793   287882.362158
        12        13     1        0.132782   320066.244824
        13        14     1        0.141642   254795.895898
        13        19     1        0.134197   294966.407373
        14        15     1        0.141738   266111.669971
        14        18     1        0.142491   274099.473486
        15        16     1        0.140563   289985.828320
        15        17     1        0.137314   326218.977197
        16        25     1        0.108281   327746.760303
        17        29     1        0.101134   424950.575000
        17        30     1        0.101134   424950.575000
        18        22     1        0.116699  1087197.077734
        19        20     1        0.145397   160633.589233
        20        21     1        0.152033   202700.460913
        20        31     1        0.109268   302644.241455
        20        32     1        0.109268   302644.241455
        21        33     1        0.109353   303559.874512
        21        34     1        0.109353   303559.874512
        21        35     1        0.109353   303559.874512
        24        38     1        0.109417   299296.096582
        24        39     1        0.109417   299296.096582
        24        40     1        0.109417   299296.096582

[ angles ]
;       ai        aj        ak funct           theta             cth
         1         2         3     1      121.336380      686.172744
         1         2        41     1      119.623093      428.330265
         1         6         5     1      119.551453      702.020244
         1         6        36     1      120.402611      429.870855
         2         1         6     1      119.452492      709.262313
         2         1        23     1      120.066757      431.654781
         2         3         4     1      119.464012      725.158589
         2         3         7     1      119.308655      489.204381
         3         2        41     1      119.127419      380.129992
         3         4         5     1      118.546921      705.730914
         3         4        24     1      121.643044      434.389870
         3         7         8     1      115.539330      578.193993
         3         7        26     1      110.748192      481.201562
         3         7        27     1      110.748192      481.201562
         4         3         7     1      121.231285      473.061672
         4         5         6     1      121.573204      694.509270
         4         5        37     1      119.061241      386.410653
         4        24        38     1      111.376564      476.892143
         4        24        39     1      111.376564      476.892143
         4        24        40     1      111.376564      476.892143
         5         4        24     1      119.752174      471.475722
         5         6        36     1      120.038124      430.639522
         6         1        23     1      120.456345      425.754751
         6         5        37     1      119.475174      428.775025
         7         8         9     1      114.291183      484.502456
         7         8        11     1      120.962257      496.704502
         8         7        26     1      106.032639      542.628971
         8         7        27     1      106.032639      542.628971
         8         9        10     1      129.067429      531.387153
         8         9        28     1      116.716324      435.333498
         9         8        11     1      124.433823      646.261115
         9        10        12     1      113.758102      582.256947
         9        10        16     1      121.951126      485.345213
        10         9        28     1      113.534424      449.375907
        10        12        13     1      118.304626      775.603190
        10        16        15     1      118.613724      856.851419
        10        16        25     1      120.376305      450.317237
        12        10        16     1      123.825233      554.462868
        12        13        14     1      123.571449      555.125811
        12        13        19     1      119.755508      555.194953
        13        14        15     1      117.943275      836.313646
        13        14        18     1      121.656006      569.704117
        13        19        20     1      118.239746      524.626714
        14        13        19     1      116.527573      485.761532
        14        15        16     1      117.811523      640.006247
        14        15        17     1      121.165833      573.180356
        14        18        22     1      176.858093      167.360000
        15        14        18     1      119.587379      527.335786
        15        16        25     1      120.382774      424.889235
        15        17        29     1      117.595009      461.050995
        15        17        30     1      117.595009      461.050995
        16        15        17     1      121.074852      515.527140
        19        20        21     1      109.218674      641.639409
        19        20        31     1      107.597557      461.944347
        19        20        32     1      107.597557      461.944347
        20        21        33     1      110.391464      492.871382
        20        21        34     1      110.391464      492.871382
        20        21        35     1      110.391464      492.871382
        21        20        31     1      111.604774      489.853758
        21        20        32     1      111.604774      489.853758
        26         7        27     1      106.971046      359.183625
        29        17        30     1      114.641869      341.475906
        31        20        32     1      108.699196      339.590023
        33        21        34     1      108.539650      361.992771
        33        21        35     1      108.539650      361.992803
        34        21        35     1      108.539650      361.992803
        38        24        39     1      107.500046      360.895729
        38        24        40     1      107.500046      360.895729
        39        24        40     1      107.500046      360.895729

[ dihedrals ] ; propers for gromacs 4.5 or higher, use funct 9
;       ai        aj        ak        al funct           phase               k        pn
         1         2         3         4     9        0.000000       -0.034103         1
         1         2         3         4     9      180.000000       19.550435         2
         1         2         3         4     9        0.000000       -1.424076         3
         1         2         3         4     9      180.000000       -0.566057         4
         1         2         3         7     9        0.000000        0.198580         1
         1         2         3         7     9      180.000000       16.359947         2
         1         2         3         7     9        0.000000       -0.142565         3
         1         2         3         7     9      180.000000       -0.273858         4
         1         6         5         4     9        0.000000       -0.036668         1
         1         6         5         4     9      180.000000       18.516208         2
         1         6         5         4     9        0.000000       -1.640164         3
         1         6         5         4     9      180.000000       -0.434892         4
         1         6         5        37     9        0.000000       -0.008454         1
         1         6         5        37     9      180.000000       14.083942         2
         1         6         5        37     9        0.000000       -0.813553         3
         1         6         5        37     9      180.000000        0.179225         4
         2         1         6         5     9        0.000000       -0.049251         1
         2         1         6         5     9      180.000000       18.928606         2
         2         1         6         5     9        0.000000       -1.810119         3
         2         1         6         5     9      180.000000       -0.425360         4
         2         1         6        36     9        0.000000        0.032341         1
         2         1         6        36     9      180.000000       14.542112         2
         2         1         6        36     9        0.000000       -0.797364         3
         2         1         6        36     9      180.000000        0.118906         4
         2         3         4         5     9        0.000000       -0.107937         1
         2         3         4         5     9      180.000000       18.654447         2
         2         3         4         5     9        0.000000       -1.186409         3
         2         3         4         5     9      180.000000       -0.574132         4
         2         3         4        24     9        0.000000        0.017097         1
         2         3         4        24     9      180.000000       16.212388         2
         2         3         4        24     9        0.000000       -0.211261         3
         2         3         4        24     9      180.000000       -0.340033         4
         2         3         7         8     9        0.000000       -0.341177         1
         2         3         7         8     9      180.000000       -0.713769         2
         2         3         7         8     9        0.000000       -0.151211         3
         2         3         7         8     9      180.000000        0.121808         4
         2         3         7        26     9        0.000000        0.240902         1
         2         3         7        26     9      180.000000        0.136406         2
         2         3         7        26     9        0.000000       -0.214955         3
         2         3         7        26     9      180.000000       -0.017023         4
         2         3         7        27     9        0.000000        0.240902         1
         2         3         7        27     9      180.000000        0.136406         2
         2         3         7        27     9        0.000000       -0.214955         3
         2         3         7        27     9      180.000000       -0.017023         4
         3         2         1         6     9        0.000000        0.146041         1
         3         2         1         6     9      180.000000       18.642916         2
         3         2         1         6     9        0.000000       -1.563897         3
         3         2         1         6     9      180.000000       -0.428424         4
         3         2         1        23     9        0.000000        0.077508         1
         3         2         1        23     9      180.000000       14.440092         2
         3         2         1        23     9        0.000000       -0.711344         3
         3         2         1        23     9      180.000000        0.057273         4
         3         4         5         6     9        0.000000        0.100234         1
         3         4         5         6     9      180.000000       19.183880         2
         3         4         5         6     9        0.000000       -1.364079         3
         3         4         5         6     9      180.000000       -0.493991         4
         3         4         5        37     9        0.000000        0.011843         1
         3         4         5        37     9      180.000000       15.102605         2
         3         4         5        37     9        0.000000       -0.525956         3
         3         4         5        37     9      180.000000       -0.004465         4
         3         4        24        38     9        0.000000        0.007983         1
         3         4        24        38     9      180.000000        0.014124         2
         3         4        24        38     9        0.000000        0.371445         3
         3         4        24        38     9      180.000000        0.021727         4
         3         4        24        39     9        0.000000        0.007983         1
         3         4        24        39     9      180.000000        0.014124         2
         3         4        24        39     9        0.000000        0.371445         3
         3         4        24        39     9      180.000000        0.021727         4
         3         4        24        40     9        0.000000        0.007983         1
         3         4        24        40     9      180.000000        0.014124         2
         3         4        24        40     9        0.000000        0.371445         3
         3         4        24        40     9      180.000000        0.021727         4
         3         7         8         9     9        0.000000        0.171331         1
         3         7         8         9     9      180.000000        0.440896         2
         3         7         8         9     9        0.000000        0.115551         3
         3         7         8         9     9      180.000000        0.040890         4
         3         7         8        11     9        0.000000       -4.250838         1
         3         7         8        11     9      180.000000        0.372548         2
         3         7         8        11     9        0.000000       -0.035704         3
         3         7         8        11     9      180.000000        0.031128         4
         4         3         2        41     9        0.000000       -0.052984         1
         4         3         2        41     9      180.000000       14.902956         2
         4         3         2        41     9        0.000000       -0.569820         3
         4         3         2        41     9      180.000000       -0.012250         4
         4         3         7         8     9        0.000000        0.417924         1
         4         3         7         8     9      180.000000       -1.003003         2
         4         3         7         8     9        0.000000        0.348725         3
         4         3         7         8     9      180.000000        0.077235         4
         4         3         7        26     9        0.000000       -0.139616         1
         4         3         7        26     9      180.000000        0.146959         2
         4         3         7        26     9        0.000000        0.275595         3
         4         3         7        26     9      180.000000       -0.018482         4
         4         3         7        27     9        0.000000       -0.139616         1
         4         3         7        27     9      180.000000        0.146959         2
         4         3         7        27     9        0.000000        0.275595         3
         4         3         7        27     9      180.000000       -0.018482         4
         4         5         6        36     9        0.000000       -0.011388         1
         4         5         6        36     9      180.000000       14.312570         2
         4         5         6        36     9        0.000000       -0.733904         3
         4         5         6        36     9      180.000000        0.081853         4
         5         4         3         7     9        0.000000        0.162773         1
         5         4         3         7     9      180.000000       14.568405         2
         5         4         3         7     9        0.000000       -0.098689         3
         5         4         3         7     9      180.000000       -0.173552         4
         5         4        24        38     9        0.000000       -0.016220         1
         5         4        24        38     9      180.000000        0.017136         2
         5         4        24        38     9        0.000000        0.030246         3
         5         4        24        38     9      180.000000        0.002144         4
         5         4        24        39     9        0.000000       -0.016220         1
         5         4        24        39     9      180.000000        0.017136         2
         5         4        24        39     9        0.000000        0.030246         3
         5         4        24        39     9      180.000000        0.002144         4
         5         4        24        40     9        0.000000       -0.016220         1
         5         4        24        40     9      180.000000        0.017136         2
         5         4        24        40     9        0.000000        0.030246         3
         5         4        24        40     9      180.000000        0.002144         4
         5         6         1        23     9        0.000000        0.048934         1
         5         6         1        23     9      180.000000       14.313890         2
         5         6         1        23     9        0.000000       -0.829585         3
         5         6         1        23     9      180.000000        0.137316         4
         6         1         2        41     9        0.000000        0.067042         1
         6         1         2        41     9      180.000000       14.384206         2
         6         1         2        41     9        0.000000       -0.727872         3
         6         1         2        41     9      180.000000        0.131056         4
         6         5         4        24     9        0.000000        0.066066         1
         6         5         4        24     9      180.000000       17.215150         2
         6         5         4        24     9        0.000000       -0.219798         3
         6         5         4        24     9      180.000000       -0.292256         4
         7         3         2        41     9        0.000000       -0.102520         1
         7         3         2        41     9      180.000000       12.977724         2
         7         3         2        41     9        0.000000       -0.406392         3
         7         3         2        41     9      180.000000        0.217121         4
         7         3         4        24     9        0.000000       -0.044599         1
         7         3         4        24     9      180.000000       15.182208         2
         7         3         4        24     9        0.000000       -0.192989         3
         7         3         4        24     9      180.000000       -0.283477         4
         7         8         9        10     9        0.000000        0.825966         1
         7         8         9        10     9      180.000000        9.256310         2
         7         8         9        10     9        0.000000        0.348893         3
         7         8         9        10     9      180.000000       -0.716500         4
         7         8         9        28     9        0.000000        1.649629         1
         7         8         9        28     9      180.000000        9.237887         2
         7         8         9        28     9        0.000000        0.262567         3
         7         8         9        28     9      180.000000        0.472413         4
         8         9        10        12     9        0.000000       -2.811179         1
         8         9        10        12     9      180.000000        5.172796         2
         8         9        10        12     9        0.000000        0.483768         3
         8         9        10        12     9      180.000000       -0.256774         4
         8         9        10        16     9        0.000000        0.559718         1
         8         9        10        16     9      180.000000        3.337274         2
         8         9        10        16     9        0.000000       -0.056924         3
         8         9        10        16     9      180.000000        0.081513         4
         9         8         7        26     9        0.000000       -0.089314         1
         9         8         7        26     9      180.000000       -0.121800         2
         9         8         7        26     9        0.000000       -0.089411         3
         9         8         7        26     9      180.000000        0.101618         4
         9         8         7        27     9        0.000000       -0.089314         1
         9         8         7        27     9      180.000000       -0.121800         2
         9         8         7        27     9        0.000000       -0.089411         3
         9         8         7        27     9      180.000000        0.101618         4
         9        10        12        13     9        0.000000        0.729424         1
         9        10        12        13     9      180.000000       25.135957         2
         9        10        12        13     9        0.000000        0.666756         3
         9        10        12        13     9      180.000000       -0.984798         4
         9        10        16        15     9        0.000000        0.162093         1
         9        10        16        15     9      180.000000       17.408671         2
         9        10        16        15     9        0.000000        0.303134         3
         9        10        16        15     9      180.000000       -0.718301         4
         9        10        16        25     9        0.000000        0.136361         1
         9        10        16        25     9      180.000000       13.172674         2
         9        10        16        25     9        0.000000       -0.091888         3
         9        10        16        25     9      180.000000        0.103766         4
        10         9         8        11     9        0.000000       -0.818157         1
        10         9         8        11     9      180.000000        9.908724         2
        10         9         8        11     9        0.000000       -0.167908         3
        10         9         8        11     9      180.000000       -0.169372         4
        10        12        13        14     9        0.000000        0.476446         1
        10        12        13        14     9      180.000000       19.589618         2
        10        12        13        14     9        0.000000        0.565011         3
        10        12        13        14     9      180.000000       -0.849501         4
        10        12        13        19     9        0.000000        1.407982         1
        10        12        13        19     9      180.000000       24.112847         2
        10        12        13        19     9        0.000000        1.396001         3
        10        12        13        19     9      180.000000       -1.069387         4
        10        16        15        14     9        0.000000       -0.221252         1
        10        16        15        14     9      180.000000       14.625500         2
        10        16        15        14     9        0.000000       -1.286572         3
        10        16        15        14     9      180.000000       -0.424418         4
        10        16        15        17     9        0.000000       -0.032765         1
        10        16        15        17     9      180.000000       15.756841         2
        10        16        15        17     9        0.000000       -0.068443         3
        10        16        15        17     9      180.000000       -0.595816         4
        11         8         7        26     9        0.000000        0.309399         1
        11         8         7        26     9      180.000000        0.101167         2
        11         8         7        26     9        0.000000        0.072924         3
        11         8         7        26     9      180.000000        0.098656         4
        11         8         7        27     9        0.000000        0.309399         1
        11         8         7        27     9      180.000000        0.101167         2
        11         8         7        27     9        0.000000        0.072924         3
        11         8         7        27     9      180.000000        0.098656         4
        11         8         9        28     9        0.000000       -0.050958         1
        11         8         9        28     9      180.000000       10.374389         2
        11         8         9        28     9        0.000000        0.189860         3
        11         8         9        28     9      180.000000        1.076819         4
        12        10         9        28     9        0.000000        3.775225         1
        12        10         9        28     9      180.000000        3.730190         2
        12        10         9        28     9        0.000000        0.217135         3
        12        10         9        28     9      180.000000       -0.319752         4
        12        10        16        15     9        0.000000       -0.276971         1
        12        10        16        15     9      180.000000       15.879808         2
        12        10        16        15     9        0.000000       -0.476804         3
        12        10        16        15     9      180.000000       -0.553410         4
        12        10        16        25     9        0.000000       -0.030188         1
        12        10        16        25     9      180.000000       12.754568         2
        12        10        16        25     9        0.000000       -0.019747         3
        12        10        16        25     9      180.000000       -0.135447         4
        12        13        14        15     9        0.000000       -0.464193         1
        12        13        14        15     9      180.000000       10.843665         2
        12        13        14        15     9        0.000000       -0.719716         3
        12        13        14        15     9      180.000000       -0.177181         4
        12        13        14        18     9        0.000000       -1.010597         1
        12        13        14        18     9      180.000000       11.454980         2
        12        13        14        18     9        0.000000       -0.525839         3
        12        13        14        18     9      180.000000       -0.460776         4
        12        13        19        20     9        0.000000        0.617461         1
        12        13        19        20     9      180.000000        8.076115         2
        12        13        19        20     9        0.000000        0.395627         3
        12        13        19        20     9      180.000000       -0.107526         4
        13        12        10        16     9        0.000000        0.391586         1
        13        12        10        16     9      180.000000       19.181884         2
        13        12        10        16     9        0.000000       -0.650401         3
        13        12        10        16     9      180.000000       -0.397317         4
        13        14        15        16     9        0.000000       -0.059177         1
        13        14        15        16     9      180.000000       12.441163         2
        13        14        15        16     9        0.000000       -0.883492         3
        13        14        15        16     9      180.000000       -0.108281         4
        13        14        15        17     9        0.000000        0.162817         1
        13        14        15        17     9      180.000000       14.573308         2
        13        14        15        17     9        0.000000        0.064552         3
        13        14        15        17     9      180.000000       -0.573788         4
        13        14        18        22     9        0.000000        0.000000         1
        13        14        18        22     9      180.000000        0.000000         2
        13        14        18        22     9        0.000000        0.000000         3
        13        14        18        22     9      180.000000        0.000000         4
        13        19        20        21     9        0.000000       -1.993606         1
        13        19        20        21     9      180.000000       -0.102255         2
        13        19        20        21     9        0.000000        0.383118         3
        13        19        20        21     9      180.000000       -0.003528         4
        13        19        20        31     9        0.000000        0.956755         1
        13        19        20        31     9      180.000000        0.061545         2
        13        19        20        31     9        0.000000        0.289292         3
        13        19        20        31     9      180.000000        0.003639         4
        13        19        20        32     9        0.000000        0.956754         1
        13        19        20        32     9      180.000000        0.061545         2
        13        19        20        32     9        0.000000        0.289292         3
        13        19        20        32     9      180.000000        0.003639         4
        14        13        19        20     9        0.000000       -1.415060         1
        14        13        19        20     9      180.000000        8.116562         2
        14        13        19        20     9        0.000000       -0.151470         3
        14        13        19        20     9      180.000000        0.222166         4
        14        15        16        25     9        0.000000       -0.272436         1
        14        15        16        25     9      180.000000       12.226124         2
        14        15        16        25     9        0.000000       -0.402097         3
        14        15        16        25     9      180.000000        0.036569         4
        14        15        17        29     9        0.000000        2.241294         1
        14        15        17        29     9      180.000000        6.242563         2
        14        15        17        29     9        0.000000        0.140057         3
        14        15        17        29     9      180.000000       -0.272719         4
        14        15        17        30     9        0.000000        2.241294         1
        14        15        17        30     9      180.000000        6.242563         2
        14        15        17        30     9        0.000000        0.140057         3
        14        15        17        30     9      180.000000       -0.272719         4
        15        14        13        19     9        0.000000        0.454309         1
        15        14        13        19     9      180.000000       13.016494         2
        15        14        13        19     9        0.000000        0.720589         3
        15        14        13        19     9      180.000000       -0.398476         4
        15        14        18        22     9        0.000000        0.000000         1
        15        14        18        22     9      180.000000        0.000000         2
        15        14        18        22     9        0.000000        0.000000         3
        15        14        18        22     9      180.000000        0.000000         4
        16        10         9        28     9        0.000000        1.444114         1
        16        10         9        28     9      180.000000        4.745283         2
        16        10         9        28     9        0.000000        0.907973         3
        16        10         9        28     9      180.000000       -0.000219         4
        16        15        14        18     9        0.000000       -0.081142         1
        16        15        14        18     9      180.000000       12.977246         2
        16        15        14        18     9        0.000000       -0.318499         3
        16        15        14        18     9      180.000000       -0.132217         4
        16        15        17        29     9        0.000000       -0.117483         1
        16        15        17        29     9      180.000000        6.276046         2
        16        15        17        29     9        0.000000        0.013310         3
        16        15        17        29     9      180.000000       -0.224693         4
        16        15        17        30     9        0.000000       -0.117483         1
        16        15        17        30     9      180.000000        6.276046         2
        16        15        17        30     9        0.000000        0.013310         3
        16        15        17        30     9      180.000000       -0.224693         4
        17        15        14        18     9        0.000000       -0.220864         1
        17        15        14        18     9      180.000000       15.158682         2
        17        15        14        18     9        0.000000       -0.153296         3
        17        15        14        18     9      180.000000       -0.573510         4
        17        15        16        25     9        0.000000       -0.174826         1
        17        15        16        25     9      180.000000       14.115709         2
        17        15        16        25     9        0.000000       -0.275957         3
        17        15        16        25     9      180.000000        0.045247         4
        18        14        13        19     9        0.000000       -0.306668         1
        18        14        13        19     9      180.000000       13.260946         2
        18        14        13        19     9        0.000000       -0.112285         3
        18        14        13        19     9      180.000000       -0.440224         4
        19        20        21        33     9        0.000000        0.188760         1
        19        20        21        33     9      180.000000        0.030055         2
        19        20        21        33     9        0.000000        0.544573         3
        19        20        21        33     9      180.000000        0.044186         4
        19        20        21        34     9        0.000000        0.188760         1
        19        20        21        34     9      180.000000        0.030055         2
        19        20        21        34     9        0.000000        0.544573         3
        19        20        21        34     9      180.000000        0.044186         4
        19        20        21        35     9        0.000000        0.188760         1
        19        20        21        35     9      180.000000        0.030055         2
        19        20        21        35     9        0.000000        0.544573         3
        19        20        21        35     9      180.000000        0.044186         4
        23         1         2        41     9        0.000000       -0.056368         1
        23         1         2        41     9      180.000000       11.747520         2
        23         1         2        41     9        0.000000       -0.649312         3
        23         1         2        41     9      180.000000        0.251463         4
        23         1         6        36     9        0.000000       -0.099256         1
        23         1         6        36     9      180.000000       11.582731         2
        23         1         6        36     9        0.000000       -0.566945         3
        23         1         6        36     9      180.000000        0.213219         4
        24         4         5        37     9        0.000000       -0.177568         1
        24         4         5        37     9      180.000000       13.665155         2
        24         4         5        37     9        0.000000       -0.503626         3
        24         4         5        37     9      180.000000        0.227400         4
        31        20        21        33     9        0.000000       -0.031410         1
        31        20        21        33     9      180.000000        0.011475         2
        31        20        21        33     9        0.000000        0.612781         3
        31        20        21        33     9      180.000000        0.005092         4
        31        20        21        34     9        0.000000       -0.031410         1
        31        20        21        34     9      180.000000        0.011475         2
        31        20        21        34     9        0.000000        0.612781         3
        31        20        21        34     9      180.000000        0.005092         4
        31        20        21        35     9        0.000000       -0.031410         1
        31        20        21        35     9      180.000000        0.011475         2
        31        20        21        35     9        0.000000        0.612781         3
        31        20        21        35     9      180.000000        0.005092         4
        32        20        21        33     9        0.000000       -0.031410         1
        32        20        21        33     9      180.000000        0.011476         2
        32        20        21        33     9        0.000000        0.612781         3
        32        20        21        33     9      180.000000        0.005092         4
        32        20        21        34     9        0.000000       -0.031410         1
        32        20        21        34     9      180.000000        0.011476         2
        32        20        21        34     9        0.000000        0.612781         3
        32        20        21        34     9      180.000000        0.005092         4
        32        20        21        35     9        0.000000       -0.031410         1
        32        20        21        35     9      180.000000        0.011476         2
        32        20        21        35     9        0.000000        0.612781         3
        32        20        21        35     9      180.000000        0.005092         4
        36         6         5        37     9        0.000000       -0.254491         1
        36         6         5        37     9      180.000000       10.867051         2
        36         6         5        37     9        0.000000       -0.521489         3
        36         6         5        37     9      180.000000        0.238371         4

[ dihedrals ] ; impropers
;       ai        aj        ak        al funct           phase               k        pn
         1         2         6        23     4      180.000000        1.480960         2
         1         6        23         2     4      180.000000        1.480960         2
         1        23         2         6     4      180.000000        1.480960         2
         2         1         3        41     4      180.000000        1.561763         2
         2         3        41         1     4      180.000000        1.561763         2
         2        41         1         3     4      180.000000        1.561763         2
         5         4         6        37     4      180.000000        3.723612         2
         5         6        37         4     4      180.000000        3.723612         2
         5        37         4         6     4      180.000000        3.723612         2
         6         1         5        36     4      180.000000        2.022771         2
         6         5        36         1     4      180.000000        2.022771         2
         6        36         1         5     4      180.000000        2.022771         2
         8         7         9        11     4      180.000000       17.720926         2
         8         9        11         7     4      180.000000       17.720926         2
         8        11         7         9     4      180.000000       17.720926         2
        10         9        12        16     4      180.000000        2.711848         2
        10        12        16         9     4      180.000000        2.711848         2
        10        16         9        12     4      180.000000        2.711848         2
        13        12        14        19     4      180.000000       13.844207         2
        13        14        19        12     4      180.000000       13.844207         2
        13        19        12        14     4      180.000000       13.844207         2

[ pairs ]
;       ai        aj funct
         1         4     1
         1         7     1
         1        37     1
         2         5     1
         2         8     1
         2        24     1
         2        26     1
         2        27     1
         2        36     1
         3         6     1
         3         9     1
         3        11     1
         3        23     1
         3        37     1
         3        38     1
         3        39     1
         3        40     1
         4         8     1
         4        26     1
         4        27     1
         4        36     1
         4        41     1
         5         7     1
         5        23     1
         5        38     1
         5        39     1
         5        40     1
         6        24     1
         6        41     1
         7        10     1
         7        24     1
         7        28     1
         7        41     1
         8        12     1
         8        16     1
         9        13     1
         9        15     1
         9        25     1
         9        26     1
         9        27     1
        10        11     1
        10        14     1
        10        17     1
        10        19     1
        11        26     1
        11        27     1
        11        28     1
        12        15     1
        12        18     1
        12        20     1
        12        25     1
        12        28     1
        13        16     1
        13        17     1
        13        21     1
        13        22     1
        13        31     1
        13        32     1
        14        20     1
        14        25     1
        14        29     1
        14        30     1
        15        19     1
        15        22     1
        16        18     1
        16        28     1
        16        29     1
        16        30     1
        17        18     1
        17        25     1
        18        19     1
        19        33     1
        19        34     1
        19        35     1
        23        36     1
        23        41     1
        24        37     1
        31        33     1
        31        34     1
        31        35     1
        32        33     1
        32        34     1
        32        35     1
        36        37     1
