; ITP file created by ByteFF-ML, 2026-02-21 08:17:24.141853

[ atomtypes ]
;name           bonded.type        at.num        mass        charge   ptype           sigma         epsilon
 c0bf                                   6      0.0000       0.00000       A     3.31504e-01     4.13189e-01
 c1bf                                   6      0.0000       0.00000       A     3.31455e-01     4.13037e-01
 c2bf                                   6      0.0000       0.00000       A     3.31487e-01     4.12153e-01
 c3bf                                   6      0.0000       0.00000       A     3.31455e-01     4.13037e-01
 c4bf                                   6      0.0000       0.00000       A     3.31504e-01     4.13189e-01
 c5bf                                   6      0.0000       0.00000       A     3.31497e-01     4.12822e-01
 c6bf                                   6      0.0000       0.00000       A     3.39587e-01     4.50499e-01
 c7bf                                   6      0.0000       0.00000       A     3.31912e-01     4.10919e-01
 n8bf                                   7      0.0000       0.00000       A     3.27441e-01     4.84508e-01
 c9bf                                   6      0.0000       0.00000       A     3.31413e-01     4.13526e-01
 o10bf                                  8      0.0000       0.00000       A     3.04535e-01     6.09762e-01
 n11bf                                  7      0.0000       0.00000       A     3.38247e-01     3.93466e-01
 c12bf                                  6      0.0000       0.00000       A     3.31399e-01     4.14453e-01
 c13bf                                  6      0.0000       0.00000       A     3.31540e-01     4.13015e-01
 c14bf                                  6      0.0000       0.00000       A     3.31393e-01     4.14643e-01
 c15bf                                  6      0.0000       0.00000       A     3.31576e-01     4.11459e-01
 n16bf                                  7      0.0000       0.00000       A     3.36513e-01     4.72176e-01
 c17bf                                  6      0.0000       0.00000       A     3.48265e-01     6.71656e-01
 o18bf                                  8      0.0000       0.00000       A     3.15904e-01     3.02254e-01
 c19bf                                  6      0.0000       0.00000       A     3.39748e-01     4.50578e-01
 c20bf                                  6      0.0000       0.00000       A     3.39811e-01     4.51198e-01
 n21bf                                  7      0.0000       0.00000       A     3.27372e-01     4.59322e-01
 h22bf                                  1      0.0000       0.00000       A     2.62458e-01     6.72983e-02
 h23bf                                  1      0.0000       0.00000       A     2.62514e-01     6.76095e-02
 h24bf                                  1      0.0000       0.00000       A     2.62420e-01     6.84395e-02
 h25bf                                  1      0.0000       0.00000       A     2.60063e-01     8.65197e-02
 h26bf                                  1      0.0000       0.00000       A     2.60063e-01     8.65197e-02
 h27bf                                  1      0.0000       0.00000       A     1.10312e-01     4.02784e-02
 h28bf                                  1      0.0000       0.00000       A     1.10467e-01     4.08370e-02
 h29bf                                  1      0.0000       0.00000       A     1.10467e-01     4.08370e-02
 h30bf                                  1      0.0000       0.00000       A     2.42216e-01     8.76162e-02
 h31bf                                  1      0.0000       0.00000       A     2.42216e-01     8.76162e-02
 h32bf                                  1      0.0000       0.00000       A     2.60028e-01     8.73433e-02
 h33bf                                  1      0.0000       0.00000       A     2.60028e-01     8.73433e-02
 h34bf                                  1      0.0000       0.00000       A     2.60028e-01     8.73433e-02
 h35bf                                  1      0.0000       0.00000       A     2.62457e-01     6.73477e-02
 h36bf                                  1      0.0000       0.00000       A     2.62458e-01     6.72983e-02
 h37bf                                  1      0.0000       0.00000       A     2.62514e-01     6.76095e-02

[ moleculetype ]
;name             nrexcl
 18624-1               3

[ atoms ]
;       nr            type      resi   res      atom      cgnr      charge          mass ; qtot
         1            c0bf         1   UNL        c0         1    -0.11400       12.0110 ; qtot   -0.114
         2            c1bf         1   UNL        c1         2    -0.09797       12.0110 ; qtot   -0.212
         3            c2bf         1   UNL        c2         3    -0.10106       12.0110 ; qtot   -0.313
         4            c3bf         1   UNL        c3         4    -0.09797       12.0110 ; qtot   -0.411
         5            c4bf         1   UNL        c4         5    -0.11400       12.0110 ; qtot   -0.525
         6            c5bf         1   UNL        c5         6    -0.10656       12.0110 ; qtot   -0.632
         7            c6bf         1   UNL        c6         7    -0.11194       12.0110 ; qtot   -0.744
         8            c7bf         1   UNL        c7         8     0.61330       12.0110 ; qtot   -0.130
         9            n8bf         1   UNL        n8         9    -0.33030       14.0070 ; qtot   -0.461
        10            c9bf         1   UNL        c9        10     0.55391       12.0110 ; qtot    0.093
        11           o10bf         1   UNL       o10        11    -0.56823       15.9990 ; qtot   -0.475
        12           n11bf         1   UNL       n11        12    -0.80694       14.0070 ; qtot   -1.282
        13           c12bf         1   UNL       c12        13     0.68635       12.0110 ; qtot   -0.595
        14           c13bf         1   UNL       c13        14    -0.21375       12.0110 ; qtot   -0.809
        15           c14bf         1   UNL       c14        15     0.41091       12.0110 ; qtot   -0.398
        16           c15bf         1   UNL       c15        16    -0.27787       12.0110 ; qtot   -0.676
        17           n16bf         1   UNL       n16        17    -1.06403       14.0070 ; qtot   -1.740
        18           c17bf         1   UNL       c17        18     0.34585       12.0110 ; qtot   -1.394
        19           o18bf         1   UNL       o18        19    -0.45337       15.9990 ; qtot   -1.848
        20           c19bf         1   UNL       c19        20     0.16982       12.0110 ; qtot   -1.678
        21           c20bf         1   UNL       c20        21    -0.11089       12.0110 ; qtot   -1.789
        22           n21bf         1   UNL       n21        22    -0.46684       14.0070 ; qtot   -2.256
        23           h22bf         1   UNL       h22        23     0.11460        1.0080 ; qtot   -2.141
        24           h23bf         1   UNL       h23        24     0.11766        1.0080 ; qtot   -2.023
        25           h24bf         1   UNL       h24        25     0.14532        1.0080 ; qtot   -1.878
        26           h25bf         1   UNL       h25        26     0.07662        1.0080 ; qtot   -1.801
        27           h26bf         1   UNL       h26        27     0.07662        1.0080 ; qtot   -1.725
        28           h27bf         1   UNL       h27        28     0.18700        1.0080 ; qtot   -1.538
        29           h28bf         1   UNL       h28        29     0.47013        1.0080 ; qtot   -1.068
        30           h29bf         1   UNL       h29        30     0.47013        1.0080 ; qtot   -0.598
        31           h30bf         1   UNL       h30        31     0.05579        1.0080 ; qtot   -0.542
        32           h31bf         1   UNL       h31        32     0.05579        1.0080 ; qtot   -0.486
        33           h32bf         1   UNL       h32        33     0.04682        1.0080 ; qtot   -0.439
        34           h33bf         1   UNL       h33        34     0.04682        1.0080 ; qtot   -0.392
        35           h34bf         1   UNL       h34        35     0.04682        1.0080 ; qtot   -0.345
        36           h35bf         1   UNL       h35        36     0.11320        1.0080 ; qtot   -0.232
        37           h36bf         1   UNL       h36        37     0.11460        1.0080 ; qtot   -0.118
        38           h37bf         1   UNL       h37        38     0.11766        1.0080 ; qtot   -0.000

[ bonds ]
;       ai        aj funct               r               k
         1         2     1        0.139845   310244.672559
         1         6     1        0.139930   306613.193457
         1        23     1        0.108643   319147.751611
         2         3     1        0.140261   290480.099072
         2        38     1        0.108681   316675.401904
         3         4     1        0.140261   290480.099072
         3         7     1        0.151351   195974.675806
         4         5     1        0.139845   310244.672559
         4        24     1        0.108681   316675.401904
         5         6     1        0.139930   306613.193457
         5        37     1        0.108643   319147.777148
         6        36     1        0.108629   319751.295654
         7         8     1        0.153520   155549.814722
         7        26     1        0.109418   298334.037061
         7        27     1        0.109418   298334.037061
         8         9     1        0.137855   253584.364355
         8        11     1        0.122607   621443.666895
         9        10     1        0.140262   244903.560303
         9        28     1        0.101492   411234.644629
        10        12     1        0.134337   290399.835938
        10        16     1        0.139793   287882.362158
        12        13     1        0.132782   320066.244824
        13        14     1        0.141642   254795.895898
        13        19     1        0.134197   294966.407373
        14        15     1        0.141738   266111.669971
        14        18     1        0.142491   274099.473486
        15        16     1        0.140563   289985.828320
        15        17     1        0.137314   326218.977197
        16        25     1        0.108281   327746.760303
        17        29     1        0.101134   424950.575000
        17        30     1        0.101134   424950.575000
        18        22     1        0.116699  1087197.077734
        19        20     1        0.145397   160633.589233
        20        21     1        0.152033   202700.460913
        20        31     1        0.109268   302644.241455
        20        32     1        0.109268   302644.241455
        21        33     1        0.109353   303559.900049
        21        34     1        0.109353   303559.874512
        21        35     1        0.109353   303559.900049

[ angles ]
;       ai        aj        ak funct           theta             cth
         1         2         3     1      120.621605      698.896162
         1         2        38     1      119.871239      428.338085
         1         6         5     1      119.592430      701.821629
         1         6        36     1      120.214378      430.706269
         2         1         6     1      120.116028      708.322739
         2         1        23     1      119.818039      430.109690
         2         3         4     1      118.803078      716.559414
         2         3         7     1      120.688499      495.650714
         3         2        38     1      119.527878      391.000980
         3         4         5     1      120.621605      698.896162
         3         4        24     1      119.527878      391.001044
         3         7         8     1      116.536400      577.205451
         3         7        26     1      110.592751      488.371520
         3         7        27     1      110.592751      488.371520
         4         3         7     1      120.688499      495.650714
         4         5         6     1      120.116028      708.322739
         4         5        37     1      119.818039      430.109690
         5         4        24     1      119.871239      428.338117
         5         6        36     1      120.214378      430.706269
         6         1        23     1      120.087479      425.994385
         6         5        37     1      120.087479      425.994417
         7         8         9     1      114.398132      484.330113
         7         8        11     1      120.812500      494.220093
         8         7        26     1      106.283020      542.413183
         8         7        27     1      106.283020      542.413183
         8         9        10     1      129.091705      534.025807
         8         9        28     1      116.731628      434.876128
         9         8        11     1      124.512405      640.952780
         9        10        12     1      113.758102      582.256947
         9        10        16     1      121.951126      485.345213
        10         9        28     1      113.534424      449.375907
        10        12        13     1      118.304611      775.603190
        10        16        15     1      118.613724      856.851419
        10        16        25     1      120.376297      450.317237
        12        10        16     1      123.825233      554.462740
        12        13        14     1      123.571457      555.125747
        12        13        19     1      119.755508      555.194953
        13        14        15     1      117.943260      836.313518
        13        14        18     1      121.655991      569.704181
        13        19        20     1      118.239761      524.626714
        14        13        19     1      116.527588      485.761468
        14        15        16     1      117.811523      640.006247
        14        15        17     1      121.165848      573.180356
        14        18        22     1      176.858093      167.360000
        15        14        18     1      119.587364      527.335786
        15        16        25     1      120.382790      424.889171
        15        17        29     1      117.595009      461.050995
        15        17        30     1      117.595009      461.050995
        16        15        17     1      121.074852      515.527076
        19        20        21     1      109.218674      641.639409
        19        20        31     1      107.597557      461.944347
        19        20        32     1      107.597557      461.944347
        20        21        33     1      110.391464      492.871382
        20        21        34     1      110.391464      492.871382
        20        21        35     1      110.391464      492.871382
        21        20        31     1      111.604774      489.853694
        21        20        32     1      111.604774      489.853694
        26         7        27     1      107.259972      358.020314
        29        17        30     1      114.641884      341.475906
        31        20        32     1      108.699196      339.590023
        33        21        34     1      108.539650      361.992803
        33        21        35     1      108.539650      361.992803
        34        21        35     1      108.539650      361.992803

[ dihedrals ] ; propers for gromacs 4.5 or higher, use funct 9
;       ai        aj        ak        al funct           phase               k        pn
         1         2         3         4     9        0.000000       -0.049626         1
         1         2         3         4     9      180.000000       19.244059         2
         1         2         3         4     9        0.000000       -1.363304         3
         1         2         3         4     9      180.000000       -0.515068         4
         1         2         3         7     9        0.000000        0.137361         1
         1         2         3         7     9      180.000000       15.657970         2
         1         2         3         7     9        0.000000       -0.136121         3
         1         2         3         7     9      180.000000       -0.237368         4
         1         6         5         4     9        0.000000       -0.050312         1
         1         6         5         4     9      180.000000       18.766667         2
         1         6         5         4     9        0.000000       -1.663662         3
         1         6         5         4     9      180.000000       -0.409572         4
         1         6         5        37     9        0.000000        0.015442         1
         1         6         5        37     9      180.000000       14.242104         2
         1         6         5        37     9        0.000000       -0.806151         3
         1         6         5        37     9      180.000000        0.148565         4
         2         1         6         5     9        0.000000       -0.050312         1
         2         1         6         5     9      180.000000       18.766667         2
         2         1         6         5     9        0.000000       -1.663662         3
         2         1         6         5     9      180.000000       -0.409572         4
         2         1         6        36     9        0.000000        0.055822         1
         2         1         6        36     9      180.000000       14.450335         2
         2         1         6        36     9        0.000000       -0.788540         3
         2         1         6        36     9      180.000000        0.119354         4
         2         3         4         5     9        0.000000       -0.049626         1
         2         3         4         5     9      180.000000       19.244059         2
         2         3         4         5     9        0.000000       -1.363304         3
         2         3         4         5     9      180.000000       -0.515068         4
         2         3         4        24     9        0.000000       -0.017440         1
         2         3         4        24     9      180.000000       14.510008         2
         2         3         4        24     9        0.000000       -0.552070         3
         2         3         4        24     9      180.000000        0.003841         4
         2         3         7         8     9        0.000000        0.086848         1
         2         3         7         8     9      180.000000       -0.688979         2
         2         3         7         8     9        0.000000        0.030176         3
         2         3         7         8     9      180.000000        0.000820         4
         2         3         7        26     9        0.000000        0.004236         1
         2         3         7        26     9      180.000000        0.156985         2
         2         3         7        26     9        0.000000       -0.016077         3
         2         3         7        26     9      180.000000       -0.002212         4
         2         3         7        27     9        0.000000        0.004236         1
         2         3         7        27     9      180.000000        0.156985         2
         2         3         7        27     9        0.000000       -0.016077         3
         2         3         7        27     9      180.000000       -0.002212         4
         3         2         1         6     9        0.000000        0.091749         1
         3         2         1         6     9      180.000000       18.434854         2
         3         2         1         6     9        0.000000       -1.419024         3
         3         2         1         6     9      180.000000       -0.403045         4
         3         2         1        23     9        0.000000        0.050760         1
         3         2         1        23     9      180.000000       14.503503         2
         3         2         1        23     9        0.000000       -0.719472         3
         3         2         1        23     9      180.000000        0.084051         4
         3         4         5         6     9        0.000000        0.091749         1
         3         4         5         6     9      180.000000       18.434854         2
         3         4         5         6     9        0.000000       -1.419024         3
         3         4         5         6     9      180.000000       -0.403045         4
         3         4         5        37     9        0.000000        0.050761         1
         3         4         5        37     9      180.000000       14.503501         2
         3         4         5        37     9        0.000000       -0.719471         3
         3         4         5        37     9      180.000000        0.084051         4
         3         7         8         9     9        0.000000        0.376940         1
         3         7         8         9     9      180.000000       -0.176553         2
         3         7         8         9     9        0.000000       -0.018842         3
         3         7         8         9     9      180.000000        0.097300         4
         3         7         8        11     9        0.000000       -3.577103         1
         3         7         8        11     9      180.000000        0.109533         2
         3         7         8        11     9        0.000000       -0.084705         3
         3         7         8        11     9      180.000000        0.060415         4
         4         3         2        38     9        0.000000       -0.017440         1
         4         3         2        38     9      180.000000       14.510010         2
         4         3         2        38     9        0.000000       -0.552070         3
         4         3         2        38     9      180.000000        0.003841         4
         4         3         7         8     9        0.000000        0.086848         1
         4         3         7         8     9      180.000000       -0.688979         2
         4         3         7         8     9        0.000000        0.030176         3
         4         3         7         8     9      180.000000        0.000820         4
         4         3         7        26     9        0.000000        0.004236         1
         4         3         7        26     9      180.000000        0.156985         2
         4         3         7        26     9        0.000000       -0.016077         3
         4         3         7        26     9      180.000000       -0.002212         4
         4         3         7        27     9        0.000000        0.004236         1
         4         3         7        27     9      180.000000        0.156985         2
         4         3         7        27     9        0.000000       -0.016077         3
         4         3         7        27     9      180.000000       -0.002212         4
         4         5         6        36     9        0.000000        0.055822         1
         4         5         6        36     9      180.000000       14.450335         2
         4         5         6        36     9        0.000000       -0.788540         3
         4         5         6        36     9      180.000000        0.119354         4
         5         4         3         7     9        0.000000        0.137361         1
         5         4         3         7     9      180.000000       15.657970         2
         5         4         3         7     9        0.000000       -0.136121         3
         5         4         3         7     9      180.000000       -0.237368         4
         5         6         1        23     9        0.000000        0.015443         1
         5         6         1        23     9      180.000000       14.242105         2
         5         6         1        23     9        0.000000       -0.806151         3
         5         6         1        23     9      180.000000        0.148565         4
         6         1         2        38     9        0.000000        0.077877         1
         6         1         2        38     9      180.000000       14.502259         2
         6         1         2        38     9        0.000000       -0.651651         3
         6         1         2        38     9      180.000000        0.110423         4
         6         5         4        24     9        0.000000        0.077877         1
         6         5         4        24     9      180.000000       14.502258         2
         6         5         4        24     9        0.000000       -0.651650         3
         6         5         4        24     9      180.000000        0.110423         4
         7         3         2        38     9        0.000000       -0.112514         1
         7         3         2        38     9      180.000000       12.901388         2
         7         3         2        38     9        0.000000       -0.348754         3
         7         3         2        38     9      180.000000        0.156273         4
         7         3         4        24     9        0.000000       -0.112515         1
         7         3         4        24     9      180.000000       12.901388         2
         7         3         4        24     9        0.000000       -0.348754         3
         7         3         4        24     9      180.000000        0.156273         4
         7         8         9        10     9        0.000000        0.770111         1
         7         8         9        10     9      180.000000        9.396337         2
         7         8         9        10     9        0.000000        0.330999         3
         7         8         9        10     9      180.000000       -0.737277         4
         7         8         9        28     9        0.000000        1.747252         1
         7         8         9        28     9      180.000000        9.404479         2
         7         8         9        28     9        0.000000        0.391016         3
         7         8         9        28     9      180.000000        0.378201         4
         8         9        10        12     9        0.000000       -2.823031         1
         8         9        10        12     9      180.000000        5.195776         2
         8         9        10        12     9        0.000000        0.504301         3
         8         9        10        12     9      180.000000       -0.270585         4
         8         9        10        16     9        0.000000        0.576823         1
         8         9        10        16     9      180.000000        3.289257         2
         8         9        10        16     9        0.000000       -0.068681         3
         8         9        10        16     9      180.000000        0.102644         4
         9         8         7        26     9        0.000000       -0.103007         1
         9         8         7        26     9      180.000000       -0.142679         2
         9         8         7        26     9        0.000000       -0.129913         3
         9         8         7        26     9      180.000000        0.092339         4
         9         8         7        27     9        0.000000       -0.103007         1
         9         8         7        27     9      180.000000       -0.142679         2
         9         8         7        27     9        0.000000       -0.129913         3
         9         8         7        27     9      180.000000        0.092339         4
         9        10        12        13     9        0.000000        0.729424         1
         9        10        12        13     9      180.000000       25.135957         2
         9        10        12        13     9        0.000000        0.666756         3
         9        10        12        13     9      180.000000       -0.984798         4
         9        10        16        15     9        0.000000        0.162093         1
         9        10        16        15     9      180.000000       17.408671         2
         9        10        16        15     9        0.000000        0.303134         3
         9        10        16        15     9      180.000000       -0.718301         4
         9        10        16        25     9        0.000000        0.136361         1
         9        10        16        25     9      180.000000       13.172674         2
         9        10        16        25     9        0.000000       -0.091888         3
         9        10        16        25     9      180.000000        0.103766         4
        10         9         8        11     9        0.000000       -0.788687         1
        10         9         8        11     9      180.000000        9.962921         2
        10         9         8        11     9        0.000000       -0.170825         3
        10         9         8        11     9      180.000000       -0.182446         4
        10        12        13        14     9        0.000000        0.476446         1
        10        12        13        14     9      180.000000       19.589618         2
        10        12        13        14     9        0.000000        0.565011         3
        10        12        13        14     9      180.000000       -0.849501         4
        10        12        13        19     9        0.000000        1.407982         1
        10        12        13        19     9      180.000000       24.112847         2
        10        12        13        19     9        0.000000        1.396001         3
        10        12        13        19     9      180.000000       -1.069387         4
        10        16        15        14     9        0.000000       -0.221252         1
        10        16        15        14     9      180.000000       14.625500         2
        10        16        15        14     9        0.000000       -1.286572         3
        10        16        15        14     9      180.000000       -0.424418         4
        10        16        15        17     9        0.000000       -0.032765         1
        10        16        15        17     9      180.000000       15.756841         2
        10        16        15        17     9        0.000000       -0.068443         3
        10        16        15        17     9      180.000000       -0.595816         4
        11         8         7        26     9        0.000000        0.182177         1
        11         8         7        26     9      180.000000        0.133299         2
        11         8         7        26     9        0.000000        0.024625         3
        11         8         7        26     9      180.000000        0.080520         4
        11         8         7        27     9        0.000000        0.182177         1
        11         8         7        27     9      180.000000        0.133299         2
        11         8         7        27     9        0.000000        0.024625         3
        11         8         7        27     9      180.000000        0.080520         4
        11         8         9        28     9        0.000000       -0.080934         1
        11         8         9        28     9      180.000000       10.373704         2
        11         8         9        28     9        0.000000        0.158205         3
        11         8         9        28     9      180.000000        1.048169         4
        12        10         9        28     9        0.000000        3.775225         1
        12        10         9        28     9      180.000000        3.730190         2
        12        10         9        28     9        0.000000        0.217135         3
        12        10         9        28     9      180.000000       -0.319752         4
        12        10        16        15     9        0.000000       -0.276971         1
        12        10        16        15     9      180.000000       15.879808         2
        12        10        16        15     9        0.000000       -0.476804         3
        12        10        16        15     9      180.000000       -0.553410         4
        12        10        16        25     9        0.000000       -0.030188         1
        12        10        16        25     9      180.000000       12.754568         2
        12        10        16        25     9        0.000000       -0.019747         3
        12        10        16        25     9      180.000000       -0.135447         4
        12        13        14        15     9        0.000000       -0.464193         1
        12        13        14        15     9      180.000000       10.843665         2
        12        13        14        15     9        0.000000       -0.719716         3
        12        13        14        15     9      180.000000       -0.177181         4
        12        13        14        18     9        0.000000       -1.010597         1
        12        13        14        18     9      180.000000       11.454980         2
        12        13        14        18     9        0.000000       -0.525839         3
        12        13        14        18     9      180.000000       -0.460776         4
        12        13        19        20     9        0.000000        0.617461         1
        12        13        19        20     9      180.000000        8.076115         2
        12        13        19        20     9        0.000000        0.395627         3
        12        13        19        20     9      180.000000       -0.107526         4
        13        12        10        16     9        0.000000        0.391586         1
        13        12        10        16     9      180.000000       19.181884         2
        13        12        10        16     9        0.000000       -0.650401         3
        13        12        10        16     9      180.000000       -0.397317         4
        13        14        15        16     9        0.000000       -0.059177         1
        13        14        15        16     9      180.000000       12.441163         2
        13        14        15        16     9        0.000000       -0.883492         3
        13        14        15        16     9      180.000000       -0.108281         4
        13        14        15        17     9        0.000000        0.162817         1
        13        14        15        17     9      180.000000       14.573308         2
        13        14        15        17     9        0.000000        0.064552         3
        13        14        15        17     9      180.000000       -0.573788         4
        13        14        18        22     9        0.000000        0.000000         1
        13        14        18        22     9      180.000000        0.000000         2
        13        14        18        22     9        0.000000        0.000000         3
        13        14        18        22     9      180.000000        0.000000         4
        13        19        20        21     9        0.000000       -1.993607         1
        13        19        20        21     9      180.000000       -0.102255         2
        13        19        20        21     9        0.000000        0.383118         3
        13        19        20        21     9      180.000000       -0.003527         4
        13        19        20        31     9        0.000000        0.956754         1
        13        19        20        31     9      180.000000        0.061545         2
        13        19        20        31     9        0.000000        0.289292         3
        13        19        20        31     9      180.000000        0.003639         4
        13        19        20        32     9        0.000000        0.956754         1
        13        19        20        32     9      180.000000        0.061545         2
        13        19        20        32     9        0.000000        0.289292         3
        13        19        20        32     9      180.000000        0.003639         4
        14        13        19        20     9        0.000000       -1.415060         1
        14        13        19        20     9      180.000000        8.116562         2
        14        13        19        20     9        0.000000       -0.151470         3
        14        13        19        20     9      180.000000        0.222166         4
        14        15        16        25     9        0.000000       -0.272436         1
        14        15        16        25     9      180.000000       12.226124         2
        14        15        16        25     9        0.000000       -0.402097         3
        14        15        16        25     9      180.000000        0.036569         4
        14        15        17        29     9        0.000000        2.241294         1
        14        15        17        29     9      180.000000        6.242563         2
        14        15        17        29     9        0.000000        0.140057         3
        14        15        17        29     9      180.000000       -0.272719         4
        14        15        17        30     9        0.000000        2.241293         1
        14        15        17        30     9      180.000000        6.242563         2
        14        15        17        30     9        0.000000        0.140057         3
        14        15        17        30     9      180.000000       -0.272719         4
        15        14        13        19     9        0.000000        0.454309         1
        15        14        13        19     9      180.000000       13.016494         2
        15        14        13        19     9        0.000000        0.720589         3
        15        14        13        19     9      180.000000       -0.398476         4
        15        14        18        22     9        0.000000        0.000000         1
        15        14        18        22     9      180.000000        0.000000         2
        15        14        18        22     9        0.000000        0.000000         3
        15        14        18        22     9      180.000000        0.000000         4
        16        10         9        28     9        0.000000        1.444114         1
        16        10         9        28     9      180.000000        4.745283         2
        16        10         9        28     9        0.000000        0.907973         3
        16        10         9        28     9      180.000000       -0.000219         4
        16        15        14        18     9        0.000000       -0.081142         1
        16        15        14        18     9      180.000000       12.977246         2
        16        15        14        18     9        0.000000       -0.318499         3
        16        15        14        18     9      180.000000       -0.132217         4
        16        15        17        29     9        0.000000       -0.117483         1
        16        15        17        29     9      180.000000        6.276046         2
        16        15        17        29     9        0.000000        0.013310         3
        16        15        17        29     9      180.000000       -0.224693         4
        16        15        17        30     9        0.000000       -0.117483         1
        16        15        17        30     9      180.000000        6.276046         2
        16        15        17        30     9        0.000000        0.013310         3
        16        15        17        30     9      180.000000       -0.224693         4
        17        15        14        18     9        0.000000       -0.220864         1
        17        15        14        18     9      180.000000       15.158682         2
        17        15        14        18     9        0.000000       -0.153296         3
        17        15        14        18     9      180.000000       -0.573510         4
        17        15        16        25     9        0.000000       -0.174826         1
        17        15        16        25     9      180.000000       14.115709         2
        17        15        16        25     9        0.000000       -0.275957         3
        17        15        16        25     9      180.000000        0.045247         4
        18        14        13        19     9        0.000000       -0.306668         1
        18        14        13        19     9      180.000000       13.260946         2
        18        14        13        19     9        0.000000       -0.112285         3
        18        14        13        19     9      180.000000       -0.440224         4
        19        20        21        33     9        0.000000        0.188760         1
        19        20        21        33     9      180.000000        0.030056         2
        19        20        21        33     9        0.000000        0.544573         3
        19        20        21        33     9      180.000000        0.044186         4
        19        20        21        34     9        0.000000        0.188760         1
        19        20        21        34     9      180.000000        0.030056         2
        19        20        21        34     9        0.000000        0.544573         3
        19        20        21        34     9      180.000000        0.044186         4
        19        20        21        35     9        0.000000        0.188760         1
        19        20        21        35     9      180.000000        0.030056         2
        19        20        21        35     9        0.000000        0.544573         3
        19        20        21        35     9      180.000000        0.044186         4
        23         1         2        38     9        0.000000       -0.068652         1
        23         1         2        38     9      180.000000       11.969915         2
        23         1         2        38     9        0.000000       -0.659132         3
        23         1         2        38     9      180.000000        0.252654         4
        23         1         6        36     9        0.000000       -0.076966         1
        23         1         6        36     9      180.000000       11.600747         2
        23         1         6        36     9        0.000000       -0.604016         3
        23         1         6        36     9      180.000000        0.254690         4
        24         4         5        37     9        0.000000       -0.068651         1
        24         4         5        37     9      180.000000       11.969914         2
        24         4         5        37     9        0.000000       -0.659132         3
        24         4         5        37     9      180.000000        0.252654         4
        31        20        21        33     9        0.000000       -0.031410         1
        31        20        21        33     9      180.000000        0.011477         2
        31        20        21        33     9        0.000000        0.612781         3
        31        20        21        33     9      180.000000        0.005092         4
        31        20        21        34     9        0.000000       -0.031410         1
        31        20        21        34     9      180.000000        0.011477         2
        31        20        21        34     9        0.000000        0.612781         3
        31        20        21        34     9      180.000000        0.005092         4
        31        20        21        35     9        0.000000       -0.031410         1
        31        20        21        35     9      180.000000        0.011477         2
        31        20        21        35     9        0.000000        0.612781         3
        31        20        21        35     9      180.000000        0.005092         4
        32        20        21        33     9        0.000000       -0.031410         1
        32        20        21        33     9      180.000000        0.011477         2
        32        20        21        33     9        0.000000        0.612781         3
        32        20        21        33     9      180.000000        0.005092         4
        32        20        21        34     9        0.000000       -0.031410         1
        32        20        21        34     9      180.000000        0.011477         2
        32        20        21        34     9        0.000000        0.612781         3
        32        20        21        34     9      180.000000        0.005092         4
        32        20        21        35     9        0.000000       -0.031410         1
        32        20        21        35     9      180.000000        0.011477         2
        32        20        21        35     9        0.000000        0.612781         3
        32        20        21        35     9      180.000000        0.005092         4
        36         6         5        37     9        0.000000       -0.076966         1
        36         6         5        37     9      180.000000       11.600746         2
        36         6         5        37     9        0.000000       -0.604016         3
        36         6         5        37     9      180.000000        0.254690         4

[ dihedrals ] ; impropers
;       ai        aj        ak        al funct           phase               k        pn
         1         2         6        23     4      180.000000        2.564782         2
         1         6        23         2     4      180.000000        2.564782         2
         1        23         2         6     4      180.000000        2.564782         2
         2         1         3        38     4      180.000000        2.279993         2
         2         3        38         1     4      180.000000        2.279993         2
         2        38         1         3     4      180.000000        2.279993         2
         4         3         5        24     4      180.000000        2.279993         2
         4         5        24         3     4      180.000000        2.279993         2
         4        24         3         5     4      180.000000        2.279993         2
         5         4         6        37     4      180.000000        2.564782         2
         5         6        37         4     4      180.000000        2.564782         2
         5        37         4         6     4      180.000000        2.564782         2
         6         1         5        36     4      180.000000        1.418049         2
         6         5        36         1     4      180.000000        1.418049         2
         6        36         1         5     4      180.000000        1.418049         2
         8         7         9        11     4      180.000000       18.583852         2
         8         9        11         7     4      180.000000       18.583852         2
         8        11         7         9     4      180.000000       18.583852         2
        10         9        12        16     4      180.000000        2.711848         2
        10        12        16         9     4      180.000000        2.711848         2
        10        16         9        12     4      180.000000        2.711848         2
        13        12        14        19     4      180.000000       13.844207         2
        13        14        19        12     4      180.000000       13.844207         2
        13        19        12        14     4      180.000000       13.844207         2

[ pairs ]
;       ai        aj funct
         1         4     1
         1         7     1
         1        37     1
         2         5     1
         2         8     1
         2        24     1
         2        26     1
         2        27     1
         2        36     1
         3         6     1
         3         9     1
         3        11     1
         3        23     1
         3        37     1
         4         8     1
         4        26     1
         4        27     1
         4        36     1
         4        38     1
         5         7     1
         5        23     1
         6        24     1
         6        38     1
         7        10     1
         7        24     1
         7        28     1
         7        38     1
         8        12     1
         8        16     1
         9        13     1
         9        15     1
         9        25     1
         9        26     1
         9        27     1
        10        11     1
        10        14     1
        10        17     1
        10        19     1
        11        26     1
        11        27     1
        11        28     1
        12        15     1
        12        18     1
        12        20     1
        12        25     1
        12        28     1
        13        16     1
        13        17     1
        13        21     1
        13        22     1
        13        31     1
        13        32     1
        14        20     1
        14        25     1
        14        29     1
        14        30     1
        15        19     1
        15        22     1
        16        18     1
        16        28     1
        16        29     1
        16        30     1
        17        18     1
        17        25     1
        18        19     1
        19        33     1
        19        34     1
        19        35     1
        23        36     1
        23        38     1
        24        37     1
        31        33     1
        31        34     1
        31        35     1
        32        33     1
        32        34     1
        32        35     1
        36        37     1
