; ITP file created by ByteFF-ML, 2026-02-21 08:17:29.240610

[ atomtypes ]
;name           bonded.type        at.num        mass        charge   ptype           sigma         epsilon
 c0bf                                   6      0.0000       0.00000       A     3.31476e-01     4.12900e-01
 c1bf                                   6      0.0000       0.00000       A     3.31481e-01     4.12434e-01
 c2bf                                   6      0.0000       0.00000       A     3.31451e-01     4.12129e-01
 c3bf                                   6      0.0000       0.00000       A     3.31504e-01     4.13283e-01
 c4bf                                   6      0.0000       0.00000       A     3.31477e-01     4.12997e-01
 c5bf                                   6      0.0000       0.00000       A     3.31490e-01     4.12461e-01
 c6bf                                   6      0.0000       0.00000       A     3.39618e-01     4.50858e-01
 c7bf                                   6      0.0000       0.00000       A     3.31912e-01     4.10919e-01
 n8bf                                   7      0.0000       0.00000       A     3.27441e-01     4.84508e-01
 c9bf                                   6      0.0000       0.00000       A     3.31413e-01     4.13526e-01
 o10bf                                  8      0.0000       0.00000       A     3.04535e-01     6.09762e-01
 n11bf                                  7      0.0000       0.00000       A     3.38247e-01     3.93466e-01
 c12bf                                  6      0.0000       0.00000       A     3.31399e-01     4.14453e-01
 c13bf                                  6      0.0000       0.00000       A     3.31540e-01     4.13015e-01
 c14bf                                  6      0.0000       0.00000       A     3.31393e-01     4.14643e-01
 c15bf                                  6      0.0000       0.00000       A     3.31576e-01     4.11459e-01
 n16bf                                  7      0.0000       0.00000       A     3.36513e-01     4.72176e-01
 c17bf                                  6      0.0000       0.00000       A     3.48265e-01     6.71656e-01
 o18bf                                  8      0.0000       0.00000       A     3.15904e-01     3.02254e-01
 c19bf                                  6      0.0000       0.00000       A     3.39748e-01     4.50578e-01
 c20bf                                  6      0.0000       0.00000       A     3.39811e-01     4.51198e-01
 n21bf                                  7      0.0000       0.00000       A     3.27372e-01     4.59322e-01
 h22bf                                  1      0.0000       0.00000       A     2.62488e-01     6.71897e-02
 h23bf                                  1      0.0000       0.00000       A     2.62447e-01     6.72759e-02
 h24bf                                  1      0.0000       0.00000       A     2.62420e-01     6.84395e-02
 h25bf                                  1      0.0000       0.00000       A     2.60063e-01     8.65197e-02
 h26bf                                  1      0.0000       0.00000       A     2.60063e-01     8.65197e-02
 h27bf                                  1      0.0000       0.00000       A     1.10312e-01     4.02784e-02
 h28bf                                  1      0.0000       0.00000       A     1.10467e-01     4.08370e-02
 h29bf                                  1      0.0000       0.00000       A     1.10467e-01     4.08370e-02
 h30bf                                  1      0.0000       0.00000       A     2.42216e-01     8.76162e-02
 h31bf                                  1      0.0000       0.00000       A     2.42216e-01     8.76162e-02
 h32bf                                  1      0.0000       0.00000       A     2.60028e-01     8.73433e-02
 h33bf                                  1      0.0000       0.00000       A     2.60028e-01     8.73433e-02
 h34bf                                  1      0.0000       0.00000       A     2.60028e-01     8.73433e-02
 h35bf                                  1      0.0000       0.00000       A     2.62514e-01     6.76095e-02
 h36bf                                  1      0.0000       0.00000       A     2.62496e-01     6.71211e-02
 cl37bf                                17      0.0000       0.00000       A     3.46727e-01     1.10526e+00

[ moleculetype ]
;name             nrexcl
 18626-1               3

[ atoms ]
;       nr            type      resi   res      atom      cgnr      charge          mass ; qtot
         1            c0bf         1   UNL        c0         1    -0.10484       12.0110 ; qtot   -0.105
         2            c1bf         1   UNL        c1         2    -0.09617       12.0110 ; qtot   -0.201
         3            c2bf         1   UNL        c2         3    -0.08730       12.0110 ; qtot   -0.288
         4            c3bf         1   UNL        c3         4    -0.09172       12.0110 ; qtot   -0.380
         5            c4bf         1   UNL        c4         5     0.11953       12.0110 ; qtot   -0.260
         6            c5bf         1   UNL        c5         6    -0.09744       12.0110 ; qtot   -0.358
         7            c6bf         1   UNL        c6         7    -0.11398       12.0110 ; qtot   -0.472
         8            c7bf         1   UNL        c7         8     0.61296       12.0110 ; qtot    0.141
         9            n8bf         1   UNL        n8         9    -0.33030       14.0070 ; qtot   -0.189
        10            c9bf         1   UNL        c9        10     0.55391       12.0110 ; qtot    0.365
        11           o10bf         1   UNL       o10        11    -0.56823       15.9990 ; qtot   -0.204
        12           n11bf         1   UNL       n11        12    -0.80694       14.0070 ; qtot   -1.011
        13           c12bf         1   UNL       c12        13     0.68635       12.0110 ; qtot   -0.324
        14           c13bf         1   UNL       c13        14    -0.21375       12.0110 ; qtot   -0.538
        15           c14bf         1   UNL       c14        15     0.41091       12.0110 ; qtot   -0.127
        16           c15bf         1   UNL       c15        16    -0.27787       12.0110 ; qtot   -0.405
        17           n16bf         1   UNL       n16        17    -1.06403       14.0070 ; qtot   -1.469
        18           c17bf         1   UNL       c17        18     0.34585       12.0110 ; qtot   -1.123
        19           o18bf         1   UNL       o18        19    -0.45337       15.9990 ; qtot   -1.576
        20           c19bf         1   UNL       c19        20     0.16982       12.0110 ; qtot   -1.407
        21           c20bf         1   UNL       c20        21    -0.11089       12.0110 ; qtot   -1.517
        22           n21bf         1   UNL       n21        22    -0.46684       14.0070 ; qtot   -1.984
        23           h22bf         1   UNL       h22        23     0.12148        1.0080 ; qtot   -1.863
        24           h23bf         1   UNL       h23        24     0.13584        1.0080 ; qtot   -1.727
        25           h24bf         1   UNL       h24        25     0.14532        1.0080 ; qtot   -1.582
        26           h25bf         1   UNL       h25        26     0.07946        1.0080 ; qtot   -1.502
        27           h26bf         1   UNL       h26        27     0.07946        1.0080 ; qtot   -1.423
        28           h27bf         1   UNL       h27        28     0.18700        1.0080 ; qtot   -1.236
        29           h28bf         1   UNL       h28        29     0.47013        1.0080 ; qtot   -0.766
        30           h29bf         1   UNL       h29        30     0.47013        1.0080 ; qtot   -0.296
        31           h30bf         1   UNL       h30        31     0.05579        1.0080 ; qtot   -0.240
        32           h31bf         1   UNL       h31        32     0.05579        1.0080 ; qtot   -0.184
        33           h32bf         1   UNL       h32        33     0.04682        1.0080 ; qtot   -0.137
        34           h33bf         1   UNL       h33        34     0.04682        1.0080 ; qtot   -0.090
        35           h34bf         1   UNL       h34        35     0.04682        1.0080 ; qtot   -0.043
        36           h35bf         1   UNL       h35        36     0.12236        1.0080 ; qtot    0.079
        37           h36bf         1   UNL       h36        37     0.13215        1.0080 ; qtot    0.211
        38          cl37bf         1   UNL      cl37        38    -0.21103       35.4530 ; qtot    0.000

[ bonds ]
;       ai        aj funct               r               k
         1         2     1        0.139776   311438.838867
         1         6     1        0.139829   307198.989209
         1        23     1        0.108596   321133.491699
         2         3     1        0.140210   291075.394629
         2        36     1        0.108634   318500.666797
         3         4     1        0.140162   291861.835449
         3         7     1        0.151342   196822.597217
         4         5     1        0.139529   304817.398389
         4        24     1        0.108511   322275.613379
         5         6     1        0.139633   298954.078076
         5        38     1        0.175842   146058.513892
         6        37     1        0.108451   325608.819043
         7         8     1        0.153562   155091.487451
         7        26     1        0.109398   299226.942090
         7        27     1        0.109398   299226.942090
         8         9     1        0.137855   253584.364355
         8        11     1        0.122607   621443.666895
         9        10     1        0.140262   244903.560303
         9        28     1        0.101492   411234.644629
        10        12     1        0.134337   290399.835938
        10        16     1        0.139793   287882.362158
        12        13     1        0.132782   320066.244824
        13        14     1        0.141642   254795.895898
        13        19     1        0.134197   294966.407373
        14        15     1        0.141738   266111.669971
        14        18     1        0.142491   274099.473486
        15        16     1        0.140563   289985.828320
        15        17     1        0.137314   326218.977197
        16        25     1        0.108281   327746.760303
        17        29     1        0.101134   424950.575000
        17        30     1        0.101134   424950.575000
        18        22     1        0.116699  1087197.077734
        19        20     1        0.145397   160633.589233
        20        21     1        0.152033   202700.460913
        20        31     1        0.109268   302644.241455
        20        32     1        0.109268   302644.241455
        21        33     1        0.109353   303559.900049
        21        34     1        0.109353   303559.874512
        21        35     1        0.109353   303559.900049

[ angles ]
;       ai        aj        ak funct           theta             cth
         1         2         3     1      120.409119      706.921965
         1         2        36     1      119.994118      426.238807
         1         6         5     1      118.541916      636.484488
         1         6        37     1      121.218445      420.185778
         2         1         6     1      120.600502      708.645719
         2         1        23     1      120.035812      425.174548
         2         3         4     1      119.165695      718.808212
         2         3         7     1      120.732033      493.251374
         3         2        36     1      119.616440      391.760964
         3         4         5     1      119.666550      650.839727
         3         4        24     1      120.477280      378.734070
         3         7         8     1      116.046677      583.935948
         3         7        26     1      110.527504      489.347133
         3         7        27     1      110.527504      489.347133
         4         3         7     1      120.182350      490.460360
         4         5         6     1      121.481407      652.545861
         4         5        38     1      119.157814      392.168473
         5         4        24     1      119.920334      390.800003
         5         6        37     1      120.345680      403.623207
         6         1        23     1      119.380630      425.534206
         6         5        38     1      119.314224      365.908057
         7         8         9     1      114.448952      484.331102
         7         8        11     1      120.775833      493.988216
         8         7        26     1      106.408340      540.764826
         8         7        27     1      106.408340      540.764826
         8         9        10     1      129.091705      534.025807
         8         9        28     1      116.731628      434.876128
         9         8        11     1      124.512405      640.952780
         9        10        12     1      113.758102      582.256947
         9        10        16     1      121.951126      485.345213
        10         9        28     1      113.534424      449.375907
        10        12        13     1      118.304611      775.603190
        10        16        15     1      118.613724      856.851419
        10        16        25     1      120.376297      450.317237
        12        10        16     1      123.825233      554.462740
        12        13        14     1      123.571457      555.125747
        12        13        19     1      119.755508      555.194953
        13        14        15     1      117.943260      836.313518
        13        14        18     1      121.655991      569.704181
        13        19        20     1      118.239761      524.626714
        14        13        19     1      116.527588      485.761468
        14        15        16     1      117.811523      640.006247
        14        15        17     1      121.165848      573.180356
        14        18        22     1      176.858093      167.360000
        15        14        18     1      119.587364      527.335786
        15        16        25     1      120.382790      424.889171
        15        17        29     1      117.595009      461.050995
        15        17        30     1      117.595009      461.050995
        16        15        17     1      121.074852      515.527076
        19        20        21     1      109.218674      641.639409
        19        20        31     1      107.597557      461.944347
        19        20        32     1      107.597557      461.944347
        20        21        33     1      110.391464      492.871382
        20        21        34     1      110.391464      492.871382
        20        21        35     1      110.391464      492.871382
        21        20        31     1      111.604774      489.853694
        21        20        32     1      111.604774      489.853694
        26         7        27     1      107.353653      357.503730
        29        17        30     1      114.641884      341.475906
        31        20        32     1      108.699196      339.590023
        33        21        34     1      108.539650      361.992803
        33        21        35     1      108.539650      361.992803
        34        21        35     1      108.539650      361.992803

[ dihedrals ] ; propers for gromacs 4.5 or higher, use funct 9
;       ai        aj        ak        al funct           phase               k        pn
         1         2         3         4     9        0.000000       -0.126741         1
         1         2         3         4     9      180.000000       19.294922         2
         1         2         3         4     9        0.000000       -1.372984         3
         1         2         3         4     9      180.000000       -0.519353         4
         1         2         3         7     9        0.000000        0.199048         1
         1         2         3         7     9      180.000000       15.839014         2
         1         2         3         7     9        0.000000       -0.130883         3
         1         2         3         7     9      180.000000       -0.279387         4
         1         6         5         4     9        0.000000       -0.088768         1
         1         6         5         4     9      180.000000       18.032675         2
         1         6         5         4     9        0.000000       -1.304892         3
         1         6         5         4     9      180.000000       -0.421651         4
         1         6         5        38     9        0.000000        0.361916         1
         1         6         5        38     9      180.000000       19.344660         2
         1         6         5        38     9        0.000000        0.349537         3
         1         6         5        38     9      180.000000       -0.586180         4
         2         1         6         5     9        0.000000       -0.044673         1
         2         1         6         5     9      180.000000       18.724782         2
         2         1         6         5     9        0.000000       -1.574637         3
         2         1         6         5     9      180.000000       -0.416651         4
         2         1         6        37     9        0.000000        0.052452         1
         2         1         6        37     9      180.000000       14.378627         2
         2         1         6        37     9        0.000000       -0.757607         3
         2         1         6        37     9      180.000000        0.157723         4
         2         3         4         5     9        0.000000       -0.154964         1
         2         3         4         5     9      180.000000       19.093688         2
         2         3         4         5     9        0.000000       -1.444925         3
         2         3         4         5     9      180.000000       -0.491918         4
         2         3         4        24     9        0.000000       -0.038839         1
         2         3         4        24     9      180.000000       14.383636         2
         2         3         4        24     9        0.000000       -0.560313         3
         2         3         4        24     9      180.000000        0.023514         4
         2         3         7         8     9        0.000000        0.051669         1
         2         3         7         8     9      180.000000       -0.647540         2
         2         3         7         8     9        0.000000        0.016482         3
         2         3         7         8     9      180.000000        0.001670         4
         2         3         7        26     9        0.000000        0.007330         1
         2         3         7        26     9      180.000000        0.147703         2
         2         3         7        26     9        0.000000       -0.001428         3
         2         3         7        26     9      180.000000        0.000294         4
         2         3         7        27     9        0.000000        0.007330         1
         2         3         7        27     9      180.000000        0.147703         2
         2         3         7        27     9        0.000000       -0.001428         3
         2         3         7        27     9      180.000000        0.000294         4
         3         2         1         6     9        0.000000        0.097843         1
         3         2         1         6     9      180.000000       18.543453         2
         3         2         1         6     9        0.000000       -1.394637         3
         3         2         1         6     9      180.000000       -0.422416         4
         3         2         1        23     9        0.000000        0.032944         1
         3         2         1        23     9      180.000000       14.389520         2
         3         2         1        23     9        0.000000       -0.779576         3
         3         2         1        23     9      180.000000        0.100216         4
         3         4         5         6     9        0.000000        0.028516         1
         3         4         5         6     9      180.000000       17.482725         2
         3         4         5         6     9        0.000000       -1.145521         3
         3         4         5         6     9      180.000000       -0.417265         4
         3         4         5        38     9        0.000000        0.314657         1
         3         4         5        38     9      180.000000       18.517297         2
         3         4         5        38     9        0.000000        0.287491         3
         3         4         5        38     9      180.000000       -0.517173         4
         3         7         8         9     9        0.000000        0.431548         1
         3         7         8         9     9      180.000000       -0.018767         2
         3         7         8         9     9        0.000000       -0.038157         3
         3         7         8         9     9      180.000000        0.081312         4
         3         7         8        11     9        0.000000       -2.608986         1
         3         7         8        11     9      180.000000        0.144356         2
         3         7         8        11     9        0.000000       -0.076994         3
         3         7         8        11     9      180.000000        0.061018         4
         4         3         2        36     9        0.000000       -0.030104         1
         4         3         2        36     9      180.000000       14.726578         2
         4         3         2        36     9        0.000000       -0.483349         3
         4         3         2        36     9      180.000000       -0.041776         4
         4         3         7         8     9        0.000000       -0.407628         1
         4         3         7         8     9      180.000000       -0.607373         2
         4         3         7         8     9        0.000000        0.070764         3
         4         3         7         8     9      180.000000       -0.016998         4
         4         3         7        26     9        0.000000        0.076738         1
         4         3         7        26     9      180.000000        0.171270         2
         4         3         7        26     9        0.000000        0.067657         3
         4         3         7        26     9      180.000000       -0.002052         4
         4         3         7        27     9        0.000000        0.076738         1
         4         3         7        27     9      180.000000        0.171270         2
         4         3         7        27     9        0.000000        0.067657         3
         4         3         7        27     9      180.000000       -0.002052         4
         4         5         6        37     9        0.000000       -0.002039         1
         4         5         6        37     9      180.000000       13.814648         2
         4         5         6        37     9        0.000000       -0.592807         3
         4         5         6        37     9      180.000000        0.127499         4
         5         4         3         7     9        0.000000        0.102927         1
         5         4         3         7     9      180.000000       15.465587         2
         5         4         3         7     9        0.000000       -0.119091         3
         5         4         3         7     9      180.000000       -0.244739         4
         5         6         1        23     9        0.000000        0.067463         1
         5         6         1        23     9      180.000000       14.528842         2
         5         6         1        23     9        0.000000       -0.606333         3
         5         6         1        23     9      180.000000        0.079483         4
         6         1         2        36     9        0.000000        0.120728         1
         6         1         2        36     9      180.000000       14.568761         2
         6         1         2        36     9        0.000000       -0.649688         3
         6         1         2        36     9      180.000000        0.072565         4
         6         5         4        24     9        0.000000        0.047391         1
         6         5         4        24     9      180.000000       13.563089         2
         6         5         4        24     9        0.000000       -0.531377         3
         6         5         4        24     9      180.000000        0.065862         4
         7         3         2        36     9        0.000000       -0.048569         1
         7         3         2        36     9      180.000000       13.109725         2
         7         3         2        36     9        0.000000       -0.344266         3
         7         3         2        36     9      180.000000        0.136816         4
         7         3         4        24     9        0.000000       -0.130657         1
         7         3         4        24     9      180.000000       12.901467         2
         7         3         4        24     9        0.000000       -0.410570         3
         7         3         4        24     9      180.000000        0.192045         4
         7         8         9        10     9        0.000000        0.711210         1
         7         8         9        10     9      180.000000        9.421340         2
         7         8         9        10     9        0.000000        0.334801         3
         7         8         9        10     9      180.000000       -0.729869         4
         7         8         9        28     9        0.000000        1.665378         1
         7         8         9        28     9      180.000000        9.485871         2
         7         8         9        28     9        0.000000        0.420830         3
         7         8         9        28     9      180.000000        0.375411         4
         8         9        10        12     9        0.000000       -2.823031         1
         8         9        10        12     9      180.000000        5.195776         2
         8         9        10        12     9        0.000000        0.504301         3
         8         9        10        12     9      180.000000       -0.270585         4
         8         9        10        16     9        0.000000        0.576823         1
         8         9        10        16     9      180.000000        3.289257         2
         8         9        10        16     9        0.000000       -0.068681         3
         8         9        10        16     9      180.000000        0.102644         4
         9         8         7        26     9        0.000000       -0.129976         1
         9         8         7        26     9      180.000000       -0.142026         2
         9         8         7        26     9        0.000000       -0.127501         3
         9         8         7        26     9      180.000000        0.099594         4
         9         8         7        27     9        0.000000       -0.129976         1
         9         8         7        27     9      180.000000       -0.142026         2
         9         8         7        27     9        0.000000       -0.127501         3
         9         8         7        27     9      180.000000        0.099594         4
         9        10        12        13     9        0.000000        0.729424         1
         9        10        12        13     9      180.000000       25.135957         2
         9        10        12        13     9        0.000000        0.666756         3
         9        10        12        13     9      180.000000       -0.984798         4
         9        10        16        15     9        0.000000        0.162093         1
         9        10        16        15     9      180.000000       17.408671         2
         9        10        16        15     9        0.000000        0.303134         3
         9        10        16        15     9      180.000000       -0.718301         4
         9        10        16        25     9        0.000000        0.136361         1
         9        10        16        25     9      180.000000       13.172674         2
         9        10        16        25     9        0.000000       -0.091888         3
         9        10        16        25     9      180.000000        0.103766         4
        10         9         8        11     9        0.000000       -0.788687         1
        10         9         8        11     9      180.000000        9.962921         2
        10         9         8        11     9        0.000000       -0.170825         3
        10         9         8        11     9      180.000000       -0.182446         4
        10        12        13        14     9        0.000000        0.476446         1
        10        12        13        14     9      180.000000       19.589618         2
        10        12        13        14     9        0.000000        0.565011         3
        10        12        13        14     9      180.000000       -0.849501         4
        10        12        13        19     9        0.000000        1.407982         1
        10        12        13        19     9      180.000000       24.112847         2
        10        12        13        19     9        0.000000        1.396001         3
        10        12        13        19     9      180.000000       -1.069387         4
        10        16        15        14     9        0.000000       -0.221252         1
        10        16        15        14     9      180.000000       14.625500         2
        10        16        15        14     9        0.000000       -1.286572         3
        10        16        15        14     9      180.000000       -0.424418         4
        10        16        15        17     9        0.000000       -0.032765         1
        10        16        15        17     9      180.000000       15.756841         2
        10        16        15        17     9        0.000000       -0.068443         3
        10        16        15        17     9      180.000000       -0.595816         4
        11         8         7        26     9        0.000000        0.150030         1
        11         8         7        26     9      180.000000        0.135247         2
        11         8         7        26     9        0.000000        0.024949         3
        11         8         7        26     9      180.000000        0.084077         4
        11         8         7        27     9        0.000000        0.150030         1
        11         8         7        27     9      180.000000        0.135247         2
        11         8         7        27     9        0.000000        0.024949         3
        11         8         7        27     9      180.000000        0.084077         4
        11         8         9        28     9        0.000000       -0.080934         1
        11         8         9        28     9      180.000000       10.373704         2
        11         8         9        28     9        0.000000        0.158205         3
        11         8         9        28     9      180.000000        1.048169         4
        12        10         9        28     9        0.000000        3.775225         1
        12        10         9        28     9      180.000000        3.730190         2
        12        10         9        28     9        0.000000        0.217135         3
        12        10         9        28     9      180.000000       -0.319752         4
        12        10        16        15     9        0.000000       -0.276971         1
        12        10        16        15     9      180.000000       15.879808         2
        12        10        16        15     9        0.000000       -0.476804         3
        12        10        16        15     9      180.000000       -0.553410         4
        12        10        16        25     9        0.000000       -0.030188         1
        12        10        16        25     9      180.000000       12.754568         2
        12        10        16        25     9        0.000000       -0.019747         3
        12        10        16        25     9      180.000000       -0.135447         4
        12        13        14        15     9        0.000000       -0.464193         1
        12        13        14        15     9      180.000000       10.843665         2
        12        13        14        15     9        0.000000       -0.719716         3
        12        13        14        15     9      180.000000       -0.177181         4
        12        13        14        18     9        0.000000       -1.010597         1
        12        13        14        18     9      180.000000       11.454980         2
        12        13        14        18     9        0.000000       -0.525839         3
        12        13        14        18     9      180.000000       -0.460776         4
        12        13        19        20     9        0.000000        0.617461         1
        12        13        19        20     9      180.000000        8.076115         2
        12        13        19        20     9        0.000000        0.395627         3
        12        13        19        20     9      180.000000       -0.107526         4
        13        12        10        16     9        0.000000        0.391586         1
        13        12        10        16     9      180.000000       19.181884         2
        13        12        10        16     9        0.000000       -0.650401         3
        13        12        10        16     9      180.000000       -0.397317         4
        13        14        15        16     9        0.000000       -0.059177         1
        13        14        15        16     9      180.000000       12.441163         2
        13        14        15        16     9        0.000000       -0.883492         3
        13        14        15        16     9      180.000000       -0.108281         4
        13        14        15        17     9        0.000000        0.162817         1
        13        14        15        17     9      180.000000       14.573308         2
        13        14        15        17     9        0.000000        0.064552         3
        13        14        15        17     9      180.000000       -0.573788         4
        13        14        18        22     9        0.000000        0.000000         1
        13        14        18        22     9      180.000000        0.000000         2
        13        14        18        22     9        0.000000        0.000000         3
        13        14        18        22     9      180.000000        0.000000         4
        13        19        20        21     9        0.000000       -1.993607         1
        13        19        20        21     9      180.000000       -0.102255         2
        13        19        20        21     9        0.000000        0.383118         3
        13        19        20        21     9      180.000000       -0.003527         4
        13        19        20        31     9        0.000000        0.956754         1
        13        19        20        31     9      180.000000        0.061545         2
        13        19        20        31     9        0.000000        0.289292         3
        13        19        20        31     9      180.000000        0.003639         4
        13        19        20        32     9        0.000000        0.956754         1
        13        19        20        32     9      180.000000        0.061545         2
        13        19        20        32     9        0.000000        0.289292         3
        13        19        20        32     9      180.000000        0.003639         4
        14        13        19        20     9        0.000000       -1.415060         1
        14        13        19        20     9      180.000000        8.116562         2
        14        13        19        20     9        0.000000       -0.151470         3
        14        13        19        20     9      180.000000        0.222166         4
        14        15        16        25     9        0.000000       -0.272436         1
        14        15        16        25     9      180.000000       12.226124         2
        14        15        16        25     9        0.000000       -0.402097         3
        14        15        16        25     9      180.000000        0.036569         4
        14        15        17        29     9        0.000000        2.241294         1
        14        15        17        29     9      180.000000        6.242563         2
        14        15        17        29     9        0.000000        0.140057         3
        14        15        17        29     9      180.000000       -0.272719         4
        14        15        17        30     9        0.000000        2.241293         1
        14        15        17        30     9      180.000000        6.242563         2
        14        15        17        30     9        0.000000        0.140057         3
        14        15        17        30     9      180.000000       -0.272719         4
        15        14        13        19     9        0.000000        0.454309         1
        15        14        13        19     9      180.000000       13.016494         2
        15        14        13        19     9        0.000000        0.720589         3
        15        14        13        19     9      180.000000       -0.398476         4
        15        14        18        22     9        0.000000        0.000000         1
        15        14        18        22     9      180.000000        0.000000         2
        15        14        18        22     9        0.000000        0.000000         3
        15        14        18        22     9      180.000000        0.000000         4
        16        10         9        28     9        0.000000        1.444114         1
        16        10         9        28     9      180.000000        4.745283         2
        16        10         9        28     9        0.000000        0.907973         3
        16        10         9        28     9      180.000000       -0.000219         4
        16        15        14        18     9        0.000000       -0.081142         1
        16        15        14        18     9      180.000000       12.977246         2
        16        15        14        18     9        0.000000       -0.318499         3
        16        15        14        18     9      180.000000       -0.132217         4
        16        15        17        29     9        0.000000       -0.117483         1
        16        15        17        29     9      180.000000        6.276046         2
        16        15        17        29     9        0.000000        0.013310         3
        16        15        17        29     9      180.000000       -0.224693         4
        16        15        17        30     9        0.000000       -0.117483         1
        16        15        17        30     9      180.000000        6.276046         2
        16        15        17        30     9        0.000000        0.013310         3
        16        15        17        30     9      180.000000       -0.224693         4
        17        15        14        18     9        0.000000       -0.220864         1
        17        15        14        18     9      180.000000       15.158682         2
        17        15        14        18     9        0.000000       -0.153296         3
        17        15        14        18     9      180.000000       -0.573510         4
        17        15        16        25     9        0.000000       -0.174826         1
        17        15        16        25     9      180.000000       14.115709         2
        17        15        16        25     9        0.000000       -0.275957         3
        17        15        16        25     9      180.000000        0.045247         4
        18        14        13        19     9        0.000000       -0.306668         1
        18        14        13        19     9      180.000000       13.260946         2
        18        14        13        19     9        0.000000       -0.112285         3
        18        14        13        19     9      180.000000       -0.440224         4
        19        20        21        33     9        0.000000        0.188760         1
        19        20        21        33     9      180.000000        0.030056         2
        19        20        21        33     9        0.000000        0.544573         3
        19        20        21        33     9      180.000000        0.044186         4
        19        20        21        34     9        0.000000        0.188760         1
        19        20        21        34     9      180.000000        0.030056         2
        19        20        21        34     9        0.000000        0.544573         3
        19        20        21        34     9      180.000000        0.044186         4
        19        20        21        35     9        0.000000        0.188760         1
        19        20        21        35     9      180.000000        0.030056         2
        19        20        21        35     9        0.000000        0.544573         3
        19        20        21        35     9      180.000000        0.044186         4
        23         1         2        36     9        0.000000       -0.068239         1
        23         1         2        36     9      180.000000       12.016536         2
        23         1         2        36     9        0.000000       -0.660283         3
        23         1         2        36     9      180.000000        0.242680         4
        23         1         6        37     9        0.000000       -0.169941         1
        23         1         6        37     9      180.000000       11.599222         2
        23         1         6        37     9        0.000000       -0.640915         3
        23         1         6        37     9      180.000000        0.273727         4
        24         4         5        38     9        0.000000        0.126390         1
        24         4         5        38     9      180.000000       13.650258         2
        24         4         5        38     9        0.000000       -0.107443         3
        24         4         5        38     9      180.000000        0.213688         4
        31        20        21        33     9        0.000000       -0.031410         1
        31        20        21        33     9      180.000000        0.011477         2
        31        20        21        33     9        0.000000        0.612781         3
        31        20        21        33     9      180.000000        0.005092         4
        31        20        21        34     9        0.000000       -0.031410         1
        31        20        21        34     9      180.000000        0.011477         2
        31        20        21        34     9        0.000000        0.612781         3
        31        20        21        34     9      180.000000        0.005092         4
        31        20        21        35     9        0.000000       -0.031410         1
        31        20        21        35     9      180.000000        0.011477         2
        31        20        21        35     9        0.000000        0.612781         3
        31        20        21        35     9      180.000000        0.005092         4
        32        20        21        33     9        0.000000       -0.031410         1
        32        20        21        33     9      180.000000        0.011477         2
        32        20        21        33     9        0.000000        0.612781         3
        32        20        21        33     9      180.000000        0.005092         4
        32        20        21        34     9        0.000000       -0.031410         1
        32        20        21        34     9      180.000000        0.011477         2
        32        20        21        34     9        0.000000        0.612781         3
        32        20        21        34     9      180.000000        0.005092         4
        32        20        21        35     9        0.000000       -0.031410         1
        32        20        21        35     9      180.000000        0.011477         2
        32        20        21        35     9        0.000000        0.612781         3
        32        20        21        35     9      180.000000        0.005092         4
        37         6         5        38     9        0.000000        0.181384         1
        37         6         5        38     9      180.000000       13.391942         2
        37         6         5        38     9        0.000000       -0.098832         3
        37         6         5        38     9      180.000000        0.224739         4

[ dihedrals ] ; impropers
;       ai        aj        ak        al funct           phase               k        pn
         1         2         6        23     4      180.000000        3.701141         2
         1         6        23         2     4      180.000000        3.701141         2
         1        23         2         6     4      180.000000        3.701141         2
         2         1         3        36     4      180.000000        1.316371         2
         2         3        36         1     4      180.000000        1.316371         2
         2        36         1         3     4      180.000000        1.316371         2
         4         3         5        24     4      180.000000        1.307078         2
         4         5        24         3     4      180.000000        1.307078         2
         4        24         3         5     4      180.000000        1.307078         2
         6         1         5        37     4      180.000000        0.635302         2
         6         5        37         1     4      180.000000        0.635302         2
         6        37         1         5     4      180.000000        0.635302         2
         8         7         9        11     4      180.000000       18.368200         2
         8         9        11         7     4      180.000000       18.368200         2
         8        11         7         9     4      180.000000       18.368200         2
        10         9        12        16     4      180.000000        2.711848         2
        10        12        16         9     4      180.000000        2.711848         2
        10        16         9        12     4      180.000000        2.711848         2
        13        12        14        19     4      180.000000       13.844207         2
        13        14        19        12     4      180.000000       13.844207         2
        13        19        12        14     4      180.000000       13.844207         2

[ pairs ]
;       ai        aj funct
         1         4     1
         1         7     1
         1        38     1
         2         5     1
         2         8     1
         2        24     1
         2        26     1
         2        27     1
         2        37     1
         3         6     1
         3         9     1
         3        11     1
         3        23     1
         3        38     1
         4         8     1
         4        26     1
         4        27     1
         4        36     1
         4        37     1
         5         7     1
         5        23     1
         6        24     1
         6        36     1
         7        10     1
         7        24     1
         7        28     1
         7        36     1
         8        12     1
         8        16     1
         9        13     1
         9        15     1
         9        25     1
         9        26     1
         9        27     1
        10        11     1
        10        14     1
        10        17     1
        10        19     1
        11        26     1
        11        27     1
        11        28     1
        12        15     1
        12        18     1
        12        20     1
        12        25     1
        12        28     1
        13        16     1
        13        17     1
        13        21     1
        13        22     1
        13        31     1
        13        32     1
        14        20     1
        14        25     1
        14        29     1
        14        30     1
        15        19     1
        15        22     1
        16        18     1
        16        28     1
        16        29     1
        16        30     1
        17        18     1
        17        25     1
        18        19     1
        19        33     1
        19        34     1
        19        35     1
        23        36     1
        23        37     1
        24        38     1
        31        33     1
        31        34     1
        31        35     1
        32        33     1
        32        34     1
        32        35     1
        37        38     1
