; ITP file created by ByteFF-ML, 2026-02-21 08:17:00.949405

[ atomtypes ]
;name           bonded.type        at.num        mass        charge   ptype           sigma         epsilon
 c0bf                                   6      0.0000       0.00000       A     3.31511e-01     4.13293e-01
 c1bf                                   6      0.0000       0.00000       A     3.31480e-01     4.13061e-01
 c2bf                                   6      0.0000       0.00000       A     3.31483e-01     4.12520e-01
 c3bf                                   6      0.0000       0.00000       A     3.31433e-01     4.12924e-01
 c4bf                                   6      0.0000       0.00000       A     3.31504e-01     4.12941e-01
 c5bf                                   6      0.0000       0.00000       A     3.31505e-01     4.13203e-01
 c6bf                                   6      0.0000       0.00000       A     3.39586e-01     4.50503e-01
 c7bf                                   6      0.0000       0.00000       A     3.31912e-01     4.10919e-01
 n8bf                                   7      0.0000       0.00000       A     3.27441e-01     4.84508e-01
 c9bf                                   6      0.0000       0.00000       A     3.31413e-01     4.13526e-01
 o10bf                                  8      0.0000       0.00000       A     3.04535e-01     6.09762e-01
 n11bf                                  7      0.0000       0.00000       A     3.38247e-01     3.93466e-01
 c12bf                                  6      0.0000       0.00000       A     3.31399e-01     4.14453e-01
 c13bf                                  6      0.0000       0.00000       A     3.31540e-01     4.13015e-01
 c14bf                                  6      0.0000       0.00000       A     3.31393e-01     4.14643e-01
 c15bf                                  6      0.0000       0.00000       A     3.31576e-01     4.11459e-01
 n16bf                                  7      0.0000       0.00000       A     3.36513e-01     4.72176e-01
 c17bf                                  6      0.0000       0.00000       A     3.48265e-01     6.71656e-01
 o18bf                                  8      0.0000       0.00000       A     3.15904e-01     3.02254e-01
 c19bf                                  6      0.0000       0.00000       A     3.39748e-01     4.50578e-01
 c20bf                                  6      0.0000       0.00000       A     3.39811e-01     4.51198e-01
 n21bf                                  7      0.0000       0.00000       A     3.27372e-01     4.59322e-01
 h22bf                                  1      0.0000       0.00000       A     2.62480e-01     6.72983e-02
 h23bf                                  1      0.0000       0.00000       A     2.62442e-01     6.77404e-02
 h24bf                                  1      0.0000       0.00000       A     2.62420e-01     6.84395e-02
 h25bf                                  1      0.0000       0.00000       A     2.60063e-01     8.65197e-02
 h26bf                                  1      0.0000       0.00000       A     2.60063e-01     8.65197e-02
 h27bf                                  1      0.0000       0.00000       A     1.10312e-01     4.02784e-02
 h28bf                                  1      0.0000       0.00000       A     1.10467e-01     4.08370e-02
 h29bf                                  1      0.0000       0.00000       A     1.10467e-01     4.08370e-02
 h30bf                                  1      0.0000       0.00000       A     2.42216e-01     8.76162e-02
 h31bf                                  1      0.0000       0.00000       A     2.42216e-01     8.76162e-02
 h32bf                                  1      0.0000       0.00000       A     2.60028e-01     8.73433e-02
 h33bf                                  1      0.0000       0.00000       A     2.60028e-01     8.73433e-02
 h34bf                                  1      0.0000       0.00000       A     2.60028e-01     8.73433e-02
 h35bf                                  1      0.0000       0.00000       A     2.62498e-01     6.72903e-02
 h36bf                                  1      0.0000       0.00000       A     2.62514e-01     6.76095e-02
 c37bf                                  6      0.0000       0.00000       A     3.39809e-01     4.50666e-01
 h38bf                                  1      0.0000       0.00000       A     2.59993e-01     8.72348e-02
 h39bf                                  1      0.0000       0.00000       A     2.59993e-01     8.72348e-02
 h40bf                                  1      0.0000       0.00000       A     2.59993e-01     8.72348e-02

[ moleculetype ]
;name             nrexcl
 18629-1_flip          3

[ atoms ]
;       nr            type      resi   res      atom      cgnr      charge          mass ; qtot
         1            c0bf         1   UNL        c0         1    -0.11082       12.0110 ; qtot   -0.111
         2            c1bf         1   UNL        c1         2    -0.10153       12.0110 ; qtot   -0.212
         3            c2bf         1   UNL        c2         3    -0.09776       12.0110 ; qtot   -0.310
         4            c3bf         1   UNL        c3         4    -0.09797       12.0110 ; qtot   -0.408
         5            c4bf         1   UNL        c4         5    -0.08008       12.0110 ; qtot   -0.488
         6            c5bf         1   UNL        c5         6    -0.10705       12.0110 ; qtot   -0.595
         7            c6bf         1   UNL        c6         7    -0.11181       12.0110 ; qtot   -0.707
         8            c7bf         1   UNL        c7         8     0.61337       12.0110 ; qtot   -0.094
         9            n8bf         1   UNL        n8         9    -0.33030       14.0070 ; qtot   -0.424
        10            c9bf         1   UNL        c9        10     0.55391       12.0110 ; qtot    0.130
        11           o10bf         1   UNL       o10        11    -0.56823       15.9990 ; qtot   -0.438
        12           n11bf         1   UNL       n11        12    -0.80694       14.0070 ; qtot   -1.245
        13           c12bf         1   UNL       c12        13     0.68635       12.0110 ; qtot   -0.559
        14           c13bf         1   UNL       c13        14    -0.21375       12.0110 ; qtot   -0.773
        15           c14bf         1   UNL       c14        15     0.41091       12.0110 ; qtot   -0.362
        16           c15bf         1   UNL       c15        16    -0.27787       12.0110 ; qtot   -0.640
        17           n16bf         1   UNL       n16        17    -1.06403       14.0070 ; qtot   -1.704
        18           c17bf         1   UNL       c17        18     0.34585       12.0110 ; qtot   -1.358
        19           o18bf         1   UNL       o18        19    -0.45337       15.9990 ; qtot   -1.811
        20           c19bf         1   UNL       c19        20     0.16982       12.0110 ; qtot   -1.641
        21           c20bf         1   UNL       c20        21    -0.11089       12.0110 ; qtot   -1.752
        22           n21bf         1   UNL       n21        22    -0.46684       14.0070 ; qtot   -2.219
        23           h22bf         1   UNL       h22        23     0.11409        1.0080 ; qtot   -2.105
        24           h23bf         1   UNL       h23        24     0.11578        1.0080 ; qtot   -1.989
        25           h24bf         1   UNL       h24        25     0.14532        1.0080 ; qtot   -1.844
        26           h25bf         1   UNL       h25        26     0.07646        1.0080 ; qtot   -1.767
        27           h26bf         1   UNL       h26        27     0.07646        1.0080 ; qtot   -1.691
        28           h27bf         1   UNL       h27        28     0.18700        1.0080 ; qtot   -1.504
        29           h28bf         1   UNL       h28        29     0.47013        1.0080 ; qtot   -1.034
        30           h29bf         1   UNL       h29        30     0.47013        1.0080 ; qtot   -0.564
        31           h30bf         1   UNL       h30        31     0.05579        1.0080 ; qtot   -0.508
        32           h31bf         1   UNL       h31        32     0.05579        1.0080 ; qtot   -0.452
        33           h32bf         1   UNL       h32        33     0.04682        1.0080 ; qtot   -0.405
        34           h33bf         1   UNL       h33        34     0.04682        1.0080 ; qtot   -0.358
        35           h34bf         1   UNL       h34        35     0.04682        1.0080 ; qtot   -0.312
        36           h35bf         1   UNL       h35        36     0.11206        1.0080 ; qtot   -0.200
        37           h36bf         1   UNL       h36        37     0.11837        1.0080 ; qtot   -0.081
        38           c37bf         1   UNL       c37        38    -0.04768       12.0110 ; qtot   -0.129
        39           h38bf         1   UNL       h38        39     0.04296        1.0080 ; qtot   -0.086
        40           h39bf         1   UNL       h39        40     0.04296        1.0080 ; qtot   -0.043
        41           h40bf         1   UNL       h40        41     0.04295        1.0080 ; qtot   -0.000

[ bonds ]
;       ai        aj funct               r               k
         1         2     1        0.139770   311195.342529
         1         6     1        0.139831   308432.354980
         1        23     1        0.108665   318308.168066
         2         3     1        0.140186   292095.295703
         2        37     1        0.108673   316872.395166
         3         4     1        0.140160   291185.817090
         3         7     1        0.151364   195888.258228
         4         5     1        0.140215   294051.897949
         4        24     1        0.108785   312722.997949
         5         6     1        0.140299   290623.643164
         5        38     1        0.151165   205562.941040
         6        36     1        0.108737   315158.880664
         7         8     1        0.153512   155633.167847
         7        26     1        0.109417   298331.738721
         7        27     1        0.109417   298331.738721
         8         9     1        0.137855   253584.364355
         8        11     1        0.122607   621443.666895
         9        10     1        0.140262   244903.560303
         9        28     1        0.101492   411234.644629
        10        12     1        0.134337   290399.835938
        10        16     1        0.139793   287882.362158
        12        13     1        0.132782   320066.244824
        13        14     1        0.141642   254795.895898
        13        19     1        0.134197   294966.407373
        14        15     1        0.141738   266111.669971
        14        18     1        0.142491   274099.473486
        15        16     1        0.140563   289985.828320
        15        17     1        0.137314   326218.977197
        16        25     1        0.108281   327746.760303
        17        29     1        0.101134   424950.575000
        17        30     1        0.101134   424950.575000
        18        22     1        0.116699  1087197.077734
        19        20     1        0.145397   160633.589233
        20        21     1        0.152033   202700.460913
        20        31     1        0.109268   302644.241455
        20        32     1        0.109268   302644.241455
        21        33     1        0.109353   303559.874512
        21        34     1        0.109353   303559.874512
        21        35     1        0.109353   303559.874512
        38        39     1        0.109461   298772.790137
        38        40     1        0.109461   298772.790137
        38        41     1        0.109461   298772.790137

[ angles ]
;       ai        aj        ak funct           theta             cth
         1         2         3     1      120.094177      695.551184
         1         2        37     1      120.133713      428.516781
         1         6         5     1      120.586868      692.801220
         1         6        36     1      119.832741      433.786970
         2         1         6     1      120.285072      703.416230
         2         1        23     1      119.865524      429.997327
         2         3         4     1      118.968140      709.916638
         2         3         7     1      120.673080      500.096086
         3         2        37     1      119.690590      391.770573
         3         4         5     1      121.647354      693.613236
         3         4        24     1      119.120094      393.860402
         3         7         8     1      116.550476      578.248515
         3         7        26     1      110.608215      489.047839
         3         7        27     1      110.608215      489.047839
         4         3         7     1      120.488647      476.554638
         4         5         6     1      118.347183      716.531770
         4         5        38     1      120.713295      464.377714
         5         4        24     1      119.256241      396.276181
         5         6        36     1      119.632996      404.908362
         5        38        39     1      111.254318      480.585351
         5        38        40     1      111.254318      480.585351
         5        38        41     1      111.254318      480.585351
         6         1        23     1      119.858231      426.554031
         6         5        38     1      120.920609      461.304195
         7         8         9     1      114.392075      484.784035
         7         8        11     1      120.820694      494.427997
         8         7        26     1      106.284348      542.395498
         8         7        27     1      106.284348      542.395498
         8         9        10     1      129.091705      534.025711
         8         9        28     1      116.731628      434.876128
         9         8        11     1      124.512405      640.952780
         9        10        12     1      113.758102      582.256947
         9        10        16     1      121.951126      485.345213
        10         9        28     1      113.534424      449.375907
        10        12        13     1      118.304626      775.603190
        10        16        15     1      118.613724      856.851419
        10        16        25     1      120.376305      450.317237
        12        10        16     1      123.825233      554.462868
        12        13        14     1      123.571449      555.125811
        12        13        19     1      119.755508      555.194953
        13        14        15     1      117.943275      836.313646
        13        14        18     1      121.656006      569.704117
        13        19        20     1      118.239746      524.626714
        14        13        19     1      116.527573      485.761532
        14        15        16     1      117.811523      640.006247
        14        15        17     1      121.165833      573.180356
        14        18        22     1      176.858093      167.360000
        15        14        18     1      119.587379      527.335786
        15        16        25     1      120.382774      424.889235
        15        17        29     1      117.595009      461.050995
        15        17        30     1      117.595009      461.050995
        16        15        17     1      121.074852      515.527140
        19        20        21     1      109.218674      641.639409
        19        20        31     1      107.597557      461.944347
        19        20        32     1      107.597557      461.944347
        20        21        33     1      110.391464      492.871382
        20        21        34     1      110.391464      492.871382
        20        21        35     1      110.391464      492.871382
        21        20        31     1      111.604774      489.853758
        21        20        32     1      111.604774      489.853758
        26         7        27     1      107.271866      357.973677
        29        17        30     1      114.641869      341.475906
        31        20        32     1      108.699196      339.590023
        33        21        34     1      108.539650      361.992771
        33        21        35     1      108.539650      361.992803
        34        21        35     1      108.539650      361.992803
        39        38        40     1      107.629349      360.727439
        39        38        41     1      107.629349      360.727439
        40        38        41     1      107.629349      360.727439

[ dihedrals ] ; propers for gromacs 4.5 or higher, use funct 9
;       ai        aj        ak        al funct           phase               k        pn
         1         2         3         4     9        0.000000       -0.077255         1
         1         2         3         4     9      180.000000       19.305315         2
         1         2         3         4     9        0.000000       -1.388617         3
         1         2         3         4     9      180.000000       -0.515304         4
         1         2         3         7     9        0.000000        0.171426         1
         1         2         3         7     9      180.000000       15.675734         2
         1         2         3         7     9        0.000000       -0.153633         3
         1         2         3         7     9      180.000000       -0.238106         4
         1         6         5         4     9        0.000000       -0.043007         1
         1         6         5         4     9      180.000000       18.937486         2
         1         6         5         4     9        0.000000       -1.432808         3
         1         6         5         4     9      180.000000       -0.445105         4
         1         6         5        38     9        0.000000        0.088023         1
         1         6         5        38     9      180.000000       15.695887         2
         1         6         5        38     9        0.000000       -0.173891         3
         1         6         5        38     9      180.000000       -0.110903         4
         2         1         6         5     9        0.000000        0.028386         1
         2         1         6         5     9      180.000000       18.220779         2
         2         1         6         5     9        0.000000       -1.644294         3
         2         1         6         5     9      180.000000       -0.378594         4
         2         1         6        36     9        0.000000        0.060080         1
         2         1         6        36     9      180.000000       14.404288         2
         2         1         6        36     9        0.000000       -0.737469         3
         2         1         6        36     9      180.000000        0.143520         4
         2         3         4         5     9        0.000000        0.013600         1
         2         3         4         5     9      180.000000       18.955709         2
         2         3         4         5     9        0.000000       -1.387074         3
         2         3         4         5     9      180.000000       -0.500561         4
         2         3         4        24     9        0.000000       -0.048439         1
         2         3         4        24     9      180.000000       14.522760         2
         2         3         4        24     9        0.000000       -0.541856         3
         2         3         4        24     9      180.000000        0.022310         4
         2         3         7         8     9        0.000000        0.098623         1
         2         3         7         8     9      180.000000       -0.681037         2
         2         3         7         8     9        0.000000        0.034543         3
         2         3         7         8     9      180.000000       -0.000002         4
         2         3         7        26     9        0.000000       -0.003834         1
         2         3         7        26     9      180.000000        0.152620         2
         2         3         7        26     9        0.000000       -0.013084         3
         2         3         7        26     9      180.000000       -0.000665         4
         2         3         7        27     9        0.000000       -0.003834         1
         2         3         7        27     9      180.000000        0.152620         2
         2         3         7        27     9        0.000000       -0.013084         3
         2         3         7        27     9      180.000000       -0.000665         4
         3         2         1         6     9        0.000000        0.115831         1
         3         2         1         6     9      180.000000       18.375718         2
         3         2         1         6     9        0.000000       -1.454286         3
         3         2         1         6     9      180.000000       -0.404058         4
         3         2         1        23     9        0.000000        0.062097         1
         3         2         1        23     9      180.000000       14.486548         2
         3         2         1        23     9        0.000000       -0.731543         3
         3         2         1        23     9      180.000000        0.082448         4
         3         4         5         6     9        0.000000        0.049869         1
         3         4         5         6     9      180.000000       18.675675         2
         3         4         5         6     9        0.000000       -1.284379         3
         3         4         5         6     9      180.000000       -0.462867         4
         3         4         5        38     9        0.000000        0.067948         1
         3         4         5        38     9      180.000000       15.203285         2
         3         4         5        38     9        0.000000       -0.140115         3
         3         4         5        38     9      180.000000       -0.085773         4
         3         7         8         9     9        0.000000        0.349813         1
         3         7         8         9     9      180.000000       -0.198493         2
         3         7         8         9     9        0.000000       -0.011808         3
         3         7         8         9     9      180.000000        0.099086         4
         3         7         8        11     9        0.000000       -3.627611         1
         3         7         8        11     9      180.000000        0.099401         2
         3         7         8        11     9        0.000000       -0.089741         3
         3         7         8        11     9      180.000000        0.058151         4
         4         3         2        37     9        0.000000        0.001224         1
         4         3         2        37     9      180.000000       14.576289         2
         4         3         2        37     9        0.000000       -0.545583         3
         4         3         2        37     9      180.000000       -0.017631         4
         4         3         7         8     9        0.000000       -0.102586         1
         4         3         7         8     9      180.000000       -0.637364         2
         4         3         7         8     9        0.000000        0.050613         3
         4         3         7         8     9      180.000000       -0.009047         4
         4         3         7        26     9        0.000000        0.026291         1
         4         3         7        26     9      180.000000        0.168952         2
         4         3         7        26     9        0.000000        0.022817         3
         4         3         7        26     9      180.000000        0.004381         4
         4         3         7        27     9        0.000000        0.026291         1
         4         3         7        27     9      180.000000        0.168952         2
         4         3         7        27     9        0.000000        0.022817         3
         4         3         7        27     9      180.000000        0.004381         4
         4         5         6        36     9        0.000000       -0.068315         1
         4         5         6        36     9      180.000000       14.572043         2
         4         5         6        36     9        0.000000       -0.566989         3
         4         5         6        36     9      180.000000        0.103133         4
         4         5        38        39     9        0.000000       -0.034943         1
         4         5        38        39     9      180.000000        0.011910         2
         4         5        38        39     9        0.000000        0.018485         3
         4         5        38        39     9      180.000000        0.007031         4
         4         5        38        40     9        0.000000       -0.034943         1
         4         5        38        40     9      180.000000        0.011910         2
         4         5        38        40     9        0.000000        0.018485         3
         4         5        38        40     9      180.000000        0.007031         4
         4         5        38        41     9        0.000000       -0.034943         1
         4         5        38        41     9      180.000000        0.011910         2
         4         5        38        41     9        0.000000        0.018485         3
         4         5        38        41     9      180.000000        0.007031         4
         5         4         3         7     9        0.000000        0.097483         1
         5         4         3         7     9      180.000000       15.239099         2
         5         4         3         7     9        0.000000       -0.191037         3
         5         4         3         7     9      180.000000       -0.220343         4
         5         6         1        23     9        0.000000        0.061620         1
         5         6         1        23     9      180.000000       14.044173         2
         5         6         1        23     9        0.000000       -0.772998         3
         5         6         1        23     9      180.000000        0.156509         4
         6         1         2        37     9        0.000000        0.104367         1
         6         1         2        37     9      180.000000       14.485127         2
         6         1         2        37     9        0.000000       -0.661234         3
         6         1         2        37     9      180.000000        0.097384         4
         6         5         4        24     9        0.000000       -0.020897         1
         6         5         4        24     9      180.000000       14.574936         2
         6         5         4        24     9        0.000000       -0.453975         3
         6         5         4        24     9      180.000000        0.056873         4
         6         5        38        39     9        0.000000       -0.018703         1
         6         5        38        39     9      180.000000        0.010603         2
         6         5        38        39     9        0.000000       -0.019020         3
         6         5        38        39     9      180.000000        0.001600         4
         6         5        38        40     9        0.000000       -0.018703         1
         6         5        38        40     9      180.000000        0.010603         2
         6         5        38        40     9        0.000000       -0.019020         3
         6         5        38        40     9      180.000000        0.001600         4
         6         5        38        41     9        0.000000       -0.018703         1
         6         5        38        41     9      180.000000        0.010603         2
         6         5        38        41     9        0.000000       -0.019020         3
         6         5        38        41     9      180.000000        0.001600         4
         7         3         2        37     9        0.000000       -0.103059         1
         7         3         2        37     9      180.000000       12.841278         2
         7         3         2        37     9        0.000000       -0.366075         3
         7         3         2        37     9      180.000000        0.164315         4
         7         3         4        24     9        0.000000       -0.155606         1
         7         3         4        24     9      180.000000       12.852558         2
         7         3         4        24     9        0.000000       -0.388029         3
         7         3         4        24     9      180.000000        0.156982         4
         7         8         9        10     9        0.000000        0.758937         1
         7         8         9        10     9      180.000000        9.400182         2
         7         8         9        10     9        0.000000        0.330944         3
         7         8         9        10     9      180.000000       -0.737090         4
         7         8         9        28     9        0.000000        1.733431         1
         7         8         9        28     9      180.000000        9.415812         2
         7         8         9        28     9        0.000000        0.393078         3
         7         8         9        28     9      180.000000        0.383414         4
         8         9        10        12     9        0.000000       -2.823031         1
         8         9        10        12     9      180.000000        5.195776         2
         8         9        10        12     9        0.000000        0.504301         3
         8         9        10        12     9      180.000000       -0.270585         4
         8         9        10        16     9        0.000000        0.576823         1
         8         9        10        16     9      180.000000        3.289257         2
         8         9        10        16     9        0.000000       -0.068681         3
         8         9        10        16     9      180.000000        0.102644         4
         9         8         7        26     9        0.000000       -0.103652         1
         9         8         7        26     9      180.000000       -0.144846         2
         9         8         7        26     9        0.000000       -0.130255         3
         9         8         7        26     9      180.000000        0.091981         4
         9         8         7        27     9        0.000000       -0.103652         1
         9         8         7        27     9      180.000000       -0.144846         2
         9         8         7        27     9        0.000000       -0.130255         3
         9         8         7        27     9      180.000000        0.091981         4
         9        10        12        13     9        0.000000        0.729424         1
         9        10        12        13     9      180.000000       25.135957         2
         9        10        12        13     9        0.000000        0.666756         3
         9        10        12        13     9      180.000000       -0.984798         4
         9        10        16        15     9        0.000000        0.162093         1
         9        10        16        15     9      180.000000       17.408671         2
         9        10        16        15     9        0.000000        0.303134         3
         9        10        16        15     9      180.000000       -0.718301         4
         9        10        16        25     9        0.000000        0.136361         1
         9        10        16        25     9      180.000000       13.172674         2
         9        10        16        25     9        0.000000       -0.091888         3
         9        10        16        25     9      180.000000        0.103766         4
        10         9         8        11     9        0.000000       -0.788687         1
        10         9         8        11     9      180.000000        9.962921         2
        10         9         8        11     9        0.000000       -0.170825         3
        10         9         8        11     9      180.000000       -0.182446         4
        10        12        13        14     9        0.000000        0.476446         1
        10        12        13        14     9      180.000000       19.589618         2
        10        12        13        14     9        0.000000        0.565011         3
        10        12        13        14     9      180.000000       -0.849501         4
        10        12        13        19     9        0.000000        1.407982         1
        10        12        13        19     9      180.000000       24.112847         2
        10        12        13        19     9        0.000000        1.396001         3
        10        12        13        19     9      180.000000       -1.069387         4
        10        16        15        14     9        0.000000       -0.221252         1
        10        16        15        14     9      180.000000       14.625500         2
        10        16        15        14     9        0.000000       -1.286572         3
        10        16        15        14     9      180.000000       -0.424418         4
        10        16        15        17     9        0.000000       -0.032765         1
        10        16        15        17     9      180.000000       15.756841         2
        10        16        15        17     9        0.000000       -0.068443         3
        10        16        15        17     9      180.000000       -0.595816         4
        11         8         7        26     9        0.000000        0.183858         1
        11         8         7        26     9      180.000000        0.128689         2
        11         8         7        26     9        0.000000        0.023526         3
        11         8         7        26     9      180.000000        0.081213         4
        11         8         7        27     9        0.000000        0.183858         1
        11         8         7        27     9      180.000000        0.128689         2
        11         8         7        27     9        0.000000        0.023526         3
        11         8         7        27     9      180.000000        0.081213         4
        11         8         9        28     9        0.000000       -0.080934         1
        11         8         9        28     9      180.000000       10.373704         2
        11         8         9        28     9        0.000000        0.158205         3
        11         8         9        28     9      180.000000        1.048169         4
        12        10         9        28     9        0.000000        3.775225         1
        12        10         9        28     9      180.000000        3.730190         2
        12        10         9        28     9        0.000000        0.217135         3
        12        10         9        28     9      180.000000       -0.319752         4
        12        10        16        15     9        0.000000       -0.276971         1
        12        10        16        15     9      180.000000       15.879808         2
        12        10        16        15     9        0.000000       -0.476804         3
        12        10        16        15     9      180.000000       -0.553410         4
        12        10        16        25     9        0.000000       -0.030188         1
        12        10        16        25     9      180.000000       12.754568         2
        12        10        16        25     9        0.000000       -0.019747         3
        12        10        16        25     9      180.000000       -0.135447         4
        12        13        14        15     9        0.000000       -0.464193         1
        12        13        14        15     9      180.000000       10.843665         2
        12        13        14        15     9        0.000000       -0.719716         3
        12        13        14        15     9      180.000000       -0.177181         4
        12        13        14        18     9        0.000000       -1.010597         1
        12        13        14        18     9      180.000000       11.454980         2
        12        13        14        18     9        0.000000       -0.525839         3
        12        13        14        18     9      180.000000       -0.460776         4
        12        13        19        20     9        0.000000        0.617461         1
        12        13        19        20     9      180.000000        8.076115         2
        12        13        19        20     9        0.000000        0.395627         3
        12        13        19        20     9      180.000000       -0.107526         4
        13        12        10        16     9        0.000000        0.391586         1
        13        12        10        16     9      180.000000       19.181884         2
        13        12        10        16     9        0.000000       -0.650401         3
        13        12        10        16     9      180.000000       -0.397317         4
        13        14        15        16     9        0.000000       -0.059177         1
        13        14        15        16     9      180.000000       12.441163         2
        13        14        15        16     9        0.000000       -0.883492         3
        13        14        15        16     9      180.000000       -0.108281         4
        13        14        15        17     9        0.000000        0.162817         1
        13        14        15        17     9      180.000000       14.573308         2
        13        14        15        17     9        0.000000        0.064552         3
        13        14        15        17     9      180.000000       -0.573788         4
        13        14        18        22     9        0.000000        0.000000         1
        13        14        18        22     9      180.000000        0.000000         2
        13        14        18        22     9        0.000000        0.000000         3
        13        14        18        22     9      180.000000        0.000000         4
        13        19        20        21     9        0.000000       -1.993606         1
        13        19        20        21     9      180.000000       -0.102255         2
        13        19        20        21     9        0.000000        0.383118         3
        13        19        20        21     9      180.000000       -0.003528         4
        13        19        20        31     9        0.000000        0.956755         1
        13        19        20        31     9      180.000000        0.061545         2
        13        19        20        31     9        0.000000        0.289292         3
        13        19        20        31     9      180.000000        0.003639         4
        13        19        20        32     9        0.000000        0.956754         1
        13        19        20        32     9      180.000000        0.061545         2
        13        19        20        32     9        0.000000        0.289292         3
        13        19        20        32     9      180.000000        0.003639         4
        14        13        19        20     9        0.000000       -1.415060         1
        14        13        19        20     9      180.000000        8.116562         2
        14        13        19        20     9        0.000000       -0.151470         3
        14        13        19        20     9      180.000000        0.222166         4
        14        15        16        25     9        0.000000       -0.272436         1
        14        15        16        25     9      180.000000       12.226124         2
        14        15        16        25     9        0.000000       -0.402097         3
        14        15        16        25     9      180.000000        0.036569         4
        14        15        17        29     9        0.000000        2.241294         1
        14        15        17        29     9      180.000000        6.242563         2
        14        15        17        29     9        0.000000        0.140057         3
        14        15        17        29     9      180.000000       -0.272719         4
        14        15        17        30     9        0.000000        2.241294         1
        14        15        17        30     9      180.000000        6.242563         2
        14        15        17        30     9        0.000000        0.140057         3
        14        15        17        30     9      180.000000       -0.272719         4
        15        14        13        19     9        0.000000        0.454309         1
        15        14        13        19     9      180.000000       13.016494         2
        15        14        13        19     9        0.000000        0.720589         3
        15        14        13        19     9      180.000000       -0.398476         4
        15        14        18        22     9        0.000000        0.000000         1
        15        14        18        22     9      180.000000        0.000000         2
        15        14        18        22     9        0.000000        0.000000         3
        15        14        18        22     9      180.000000        0.000000         4
        16        10         9        28     9        0.000000        1.444114         1
        16        10         9        28     9      180.000000        4.745283         2
        16        10         9        28     9        0.000000        0.907973         3
        16        10         9        28     9      180.000000       -0.000219         4
        16        15        14        18     9        0.000000       -0.081142         1
        16        15        14        18     9      180.000000       12.977246         2
        16        15        14        18     9        0.000000       -0.318499         3
        16        15        14        18     9      180.000000       -0.132217         4
        16        15        17        29     9        0.000000       -0.117483         1
        16        15        17        29     9      180.000000        6.276046         2
        16        15        17        29     9        0.000000        0.013310         3
        16        15        17        29     9      180.000000       -0.224693         4
        16        15        17        30     9        0.000000       -0.117483         1
        16        15        17        30     9      180.000000        6.276046         2
        16        15        17        30     9        0.000000        0.013310         3
        16        15        17        30     9      180.000000       -0.224693         4
        17        15        14        18     9        0.000000       -0.220864         1
        17        15        14        18     9      180.000000       15.158682         2
        17        15        14        18     9        0.000000       -0.153296         3
        17        15        14        18     9      180.000000       -0.573510         4
        17        15        16        25     9        0.000000       -0.174826         1
        17        15        16        25     9      180.000000       14.115709         2
        17        15        16        25     9        0.000000       -0.275957         3
        17        15        16        25     9      180.000000        0.045247         4
        18        14        13        19     9        0.000000       -0.306668         1
        18        14        13        19     9      180.000000       13.260946         2
        18        14        13        19     9        0.000000       -0.112285         3
        18        14        13        19     9      180.000000       -0.440224         4
        19        20        21        33     9        0.000000        0.188760         1
        19        20        21        33     9      180.000000        0.030055         2
        19        20        21        33     9        0.000000        0.544573         3
        19        20        21        33     9      180.000000        0.044186         4
        19        20        21        34     9        0.000000        0.188760         1
        19        20        21        34     9      180.000000        0.030055         2
        19        20        21        34     9        0.000000        0.544573         3
        19        20        21        34     9      180.000000        0.044186         4
        19        20        21        35     9        0.000000        0.188760         1
        19        20        21        35     9      180.000000        0.030055         2
        19        20        21        35     9        0.000000        0.544573         3
        19        20        21        35     9      180.000000        0.044186         4
        23         1         2        37     9        0.000000       -0.050021         1
        23         1         2        37     9      180.000000       11.899098         2
        23         1         2        37     9        0.000000       -0.656455         3
        23         1         2        37     9      180.000000        0.259864         4
        23         1         6        36     9        0.000000       -0.143668         1
        23         1         6        36     9      180.000000       11.284327         2
        23         1         6        36     9        0.000000       -0.572576         3
        23         1         6        36     9      180.000000        0.258834         4
        24         4         5        38     9        0.000000       -0.202093         1
        24         4         5        38     9      180.000000       13.025039         2
        24         4         5        38     9        0.000000       -0.395115         3
        24         4         5        38     9      180.000000        0.268159         4
        31        20        21        33     9        0.000000       -0.031410         1
        31        20        21        33     9      180.000000        0.011475         2
        31        20        21        33     9        0.000000        0.612781         3
        31        20        21        33     9      180.000000        0.005092         4
        31        20        21        34     9        0.000000       -0.031410         1
        31        20        21        34     9      180.000000        0.011475         2
        31        20        21        34     9        0.000000        0.612781         3
        31        20        21        34     9      180.000000        0.005092         4
        31        20        21        35     9        0.000000       -0.031410         1
        31        20        21        35     9      180.000000        0.011475         2
        31        20        21        35     9        0.000000        0.612781         3
        31        20        21        35     9      180.000000        0.005092         4
        32        20        21        33     9        0.000000       -0.031410         1
        32        20        21        33     9      180.000000        0.011476         2
        32        20        21        33     9        0.000000        0.612781         3
        32        20        21        33     9      180.000000        0.005092         4
        32        20        21        34     9        0.000000       -0.031410         1
        32        20        21        34     9      180.000000        0.011476         2
        32        20        21        34     9        0.000000        0.612781         3
        32        20        21        34     9      180.000000        0.005092         4
        32        20        21        35     9        0.000000       -0.031410         1
        32        20        21        35     9      180.000000        0.011476         2
        32        20        21        35     9        0.000000        0.612781         3
        32        20        21        35     9      180.000000        0.005092         4
        36         6         5        38     9        0.000000       -0.204759         1
        36         6         5        38     9      180.000000       12.860103         2
        36         6         5        38     9        0.000000       -0.432447         3
        36         6         5        38     9      180.000000        0.263317         4

[ dihedrals ] ; impropers
;       ai        aj        ak        al funct           phase               k        pn
         1         2         6        23     4      180.000000        2.726239         2
         1         6        23         2     4      180.000000        2.726239         2
         1        23         2         6     4      180.000000        2.726239         2
         2         1         3        37     4      180.000000        0.961768         2
         2         3        37         1     4      180.000000        0.961768         2
         2        37         1         3     4      180.000000        0.961768         2
         4         3         5        24     4      180.000000        3.402848         2
         4         5        24         3     4      180.000000        3.402848         2
         4        24         3         5     4      180.000000        3.402848         2
         6         1         5        36     4      180.000000        1.870045         2
         6         5        36         1     4      180.000000        1.870045         2
         6        36         1         5     4      180.000000        1.870045         2
         8         7         9        11     4      180.000000       18.413195         2
         8         9        11         7     4      180.000000       18.413195         2
         8        11         7         9     4      180.000000       18.413195         2
        10         9        12        16     4      180.000000        2.711848         2
        10        12        16         9     4      180.000000        2.711848         2
        10        16         9        12     4      180.000000        2.711848         2
        13        12        14        19     4      180.000000       13.844207         2
        13        14        19        12     4      180.000000       13.844207         2
        13        19        12        14     4      180.000000       13.844207         2

[ pairs ]
;       ai        aj funct
         1         4     1
         1         7     1
         1        38     1
         2         5     1
         2         8     1
         2        24     1
         2        26     1
         2        27     1
         2        36     1
         3         6     1
         3         9     1
         3        11     1
         3        23     1
         3        38     1
         4         8     1
         4        26     1
         4        27     1
         4        36     1
         4        37     1
         4        39     1
         4        40     1
         4        41     1
         5         7     1
         5        23     1
         6        24     1
         6        37     1
         6        39     1
         6        40     1
         6        41     1
         7        10     1
         7        24     1
         7        28     1
         7        37     1
         8        12     1
         8        16     1
         9        13     1
         9        15     1
         9        25     1
         9        26     1
         9        27     1
        10        11     1
        10        14     1
        10        17     1
        10        19     1
        11        26     1
        11        27     1
        11        28     1
        12        15     1
        12        18     1
        12        20     1
        12        25     1
        12        28     1
        13        16     1
        13        17     1
        13        21     1
        13        22     1
        13        31     1
        13        32     1
        14        20     1
        14        25     1
        14        29     1
        14        30     1
        15        19     1
        15        22     1
        16        18     1
        16        28     1
        16        29     1
        16        30     1
        17        18     1
        17        25     1
        18        19     1
        19        33     1
        19        34     1
        19        35     1
        23        36     1
        23        37     1
        24        38     1
        31        33     1
        31        34     1
        31        35     1
        32        33     1
        32        34     1
        32        35     1
        36        38     1
