; ITP file created by ByteFF-ML, 2026-02-21 08:16:45.547319

[ atomtypes ]
;name           bonded.type        at.num        mass        charge   ptype           sigma         epsilon
 c0bf                                   6      0.0000       0.00000       A     3.31428e-01     4.15363e-01
 c1bf                                   6      0.0000       0.00000       A     3.31526e-01     4.14525e-01
 c2bf                                   6      0.0000       0.00000       A     3.31315e-01     4.14324e-01
 c3bf                                   6      0.0000       0.00000       A     3.31568e-01     4.16332e-01
 c4bf                                   6      0.0000       0.00000       A     3.31432e-01     4.15474e-01
 c5bf                                   6      0.0000       0.00000       A     3.31502e-01     4.17699e-01
 c6bf                                   6      0.0000       0.00000       A     3.39655e-01     4.49447e-01
 c7bf                                   6      0.0000       0.00000       A     3.31893e-01     4.11495e-01
 n8bf                                   7      0.0000       0.00000       A     3.27441e-01     4.84508e-01
 c9bf                                   6      0.0000       0.00000       A     3.31413e-01     4.13526e-01
 o10bf                                  8      0.0000       0.00000       A     3.04535e-01     6.09762e-01
 n11bf                                  7      0.0000       0.00000       A     3.38247e-01     3.93466e-01
 c12bf                                  6      0.0000       0.00000       A     3.31399e-01     4.14453e-01
 c13bf                                  6      0.0000       0.00000       A     3.31540e-01     4.13015e-01
 c14bf                                  6      0.0000       0.00000       A     3.31393e-01     4.14643e-01
 c15bf                                  6      0.0000       0.00000       A     3.31576e-01     4.11459e-01
 o16bf                                  8      0.0000       0.00000       A     3.15883e-01     3.05997e-01
 c17bf                                  6      0.0000       0.00000       A     3.39726e-01     4.50360e-01
 o18bf                                  8      0.0000       0.00000       A     3.15778e-01     3.03177e-01
 c19bf                                  6      0.0000       0.00000       A     3.39784e-01     4.50460e-01
 n20bf                                  7      0.0000       0.00000       A     3.36513e-01     4.72176e-01
 c21bf                                  6      0.0000       0.00000       A     3.48265e-01     6.71656e-01
 o22bf                                  8      0.0000       0.00000       A     3.15904e-01     3.02254e-01
 c23bf                                  6      0.0000       0.00000       A     3.39748e-01     4.50578e-01
 c24bf                                  6      0.0000       0.00000       A     3.39811e-01     4.51198e-01
 n25bf                                  7      0.0000       0.00000       A     3.27372e-01     4.59322e-01
 h26bf                                  1      0.0000       0.00000       A     2.62710e-01     6.80165e-02
 h27bf                                  1      0.0000       0.00000       A     2.62606e-01     6.77164e-02
 h28bf                                  1      0.0000       0.00000       A     2.62420e-01     6.84395e-02
 h29bf                                  1      0.0000       0.00000       A     2.59913e-01     8.79307e-02
 h30bf                                  1      0.0000       0.00000       A     2.59913e-01     8.79307e-02
 h31bf                                  1      0.0000       0.00000       A     1.10312e-01     4.02784e-02
 h32bf                                  1      0.0000       0.00000       A     2.42080e-01     8.75859e-02
 h33bf                                  1      0.0000       0.00000       A     2.42080e-01     8.75859e-02
 h34bf                                  1      0.0000       0.00000       A     2.42080e-01     8.75859e-02
 h35bf                                  1      0.0000       0.00000       A     2.42080e-01     8.75859e-02
 h36bf                                  1      0.0000       0.00000       A     2.42080e-01     8.75859e-02
 h37bf                                  1      0.0000       0.00000       A     2.42080e-01     8.75859e-02
 h38bf                                  1      0.0000       0.00000       A     1.10467e-01     4.08370e-02
 h39bf                                  1      0.0000       0.00000       A     1.10467e-01     4.08370e-02
 h40bf                                  1      0.0000       0.00000       A     2.42216e-01     8.76162e-02
 h41bf                                  1      0.0000       0.00000       A     2.42216e-01     8.76162e-02
 h42bf                                  1      0.0000       0.00000       A     2.60028e-01     8.73433e-02
 h43bf                                  1      0.0000       0.00000       A     2.60028e-01     8.73433e-02
 h44bf                                  1      0.0000       0.00000       A     2.60028e-01     8.73433e-02
 o45bf                                  8      0.0000       0.00000       A     3.04967e-01     6.11868e-01
 n46bf                                  7      0.0000       0.00000       A     3.37033e-01     3.47665e-01
 o47bf                                  8      0.0000       0.00000       A     3.04967e-01     6.11868e-01

[ moleculetype ]
;name             nrexcl
 18639-1_flip          3

[ atoms ]
;       nr            type      resi   res      atom      cgnr      charge          mass ; qtot
         1            c0bf         1   UNL        c0         1    -0.07766       12.0110 ; qtot   -0.078
         2            c1bf         1   UNL        c1         2     0.12405       12.0110 ; qtot    0.046
         3            c2bf         1   UNL        c2         3    -0.07924       12.0110 ; qtot   -0.033
         4            c3bf         1   UNL        c3         4    -0.14641       12.0110 ; qtot   -0.179
         5            c4bf         1   UNL        c4         5     0.19285       12.0110 ; qtot    0.014
         6            c5bf         1   UNL        c5         6    -0.17795       12.0110 ; qtot   -0.164
         7            c6bf         1   UNL        c6         7    -0.10738       12.0110 ; qtot   -0.272
         8            c7bf         1   UNL        c7         8     0.61335       12.0110 ; qtot    0.342
         9            n8bf         1   UNL        n8         9    -0.33030       14.0070 ; qtot    0.011
        10            c9bf         1   UNL        c9        10     0.55391       12.0110 ; qtot    0.565
        11           o10bf         1   UNL       o10        11    -0.56579       15.9990 ; qtot   -0.001
        12           n11bf         1   UNL       n11        12    -0.80694       14.0070 ; qtot   -0.808
        13           c12bf         1   UNL       c12        13     0.68635       12.0110 ; qtot   -0.121
        14           c13bf         1   UNL       c13        14    -0.21375       12.0110 ; qtot   -0.335
        15           c14bf         1   UNL       c14        15     0.41091       12.0110 ; qtot    0.076
        16           c15bf         1   UNL       c15        16    -0.27787       12.0110 ; qtot   -0.202
        17           o16bf         1   UNL       o16        17    -0.32932       15.9990 ; qtot   -0.531
        18           c17bf         1   UNL       c17        18     0.14273       12.0110 ; qtot   -0.388
        19           o18bf         1   UNL       o18        19    -0.35231       15.9990 ; qtot   -0.741
        20           c19bf         1   UNL       c19        20     0.14484       12.0110 ; qtot   -0.596
        21           n20bf         1   UNL       n20        21    -1.06403       14.0070 ; qtot   -1.660
        22           c21bf         1   UNL       c21        22     0.34585       12.0110 ; qtot   -1.314
        23           o22bf         1   UNL       o22        23    -0.45337       15.9990 ; qtot   -1.767
        24           c23bf         1   UNL       c23        24     0.16982       12.0110 ; qtot   -1.598
        25           c24bf         1   UNL       c24        25    -0.11089       12.0110 ; qtot   -1.709
        26           n25bf         1   UNL       n25        26    -0.46684       14.0070 ; qtot   -2.175
        27           h26bf         1   UNL       h26        27     0.15847        1.0080 ; qtot   -2.017
        28           h27bf         1   UNL       h27        28     0.13584        1.0080 ; qtot   -1.881
        29           h28bf         1   UNL       h28        29     0.14532        1.0080 ; qtot   -1.736
        30           h29bf         1   UNL       h29        30     0.07947        1.0080 ; qtot   -1.656
        31           h30bf         1   UNL       h30        31     0.07947        1.0080 ; qtot   -1.577
        32           h31bf         1   UNL       h31        32     0.18700        1.0080 ; qtot   -1.390
        33           h32bf         1   UNL       h32        33     0.04847        1.0080 ; qtot   -1.341
        34           h33bf         1   UNL       h33        34     0.04847        1.0080 ; qtot   -1.293
        35           h34bf         1   UNL       h34        35     0.04847        1.0080 ; qtot   -1.244
        36           h35bf         1   UNL       h35        36     0.04237        1.0080 ; qtot   -1.202
        37           h36bf         1   UNL       h36        37     0.04237        1.0080 ; qtot   -1.160
        38           h37bf         1   UNL       h37        38     0.04237        1.0080 ; qtot   -1.117
        39           h38bf         1   UNL       h38        39     0.47013        1.0080 ; qtot   -0.647
        40           h39bf         1   UNL       h39        40     0.47013        1.0080 ; qtot   -0.177
        41           h40bf         1   UNL       h40        41     0.05579        1.0080 ; qtot   -0.121
        42           h41bf         1   UNL       h41        42     0.05579        1.0080 ; qtot   -0.065
        43           h42bf         1   UNL       h42        43     0.04682        1.0080 ; qtot   -0.019
        44           h43bf         1   UNL       h43        44     0.04682        1.0080 ; qtot    0.028
        45           h44bf         1   UNL       h44        45     0.04682        1.0080 ; qtot    0.075
        46           o45bf         1   UNL       o45        46    -0.37769       15.9990 ; qtot   -0.303
        47           n46bf         1   UNL       n46        47     0.68041       14.0070 ; qtot    0.378
        48           o47bf         1   UNL       o47        48    -0.37772       15.9990 ; qtot   -0.000

[ bonds ]
;       ai        aj funct               r               k
         1         2     1        0.139163   305822.768848
         1         6     1        0.139891   304393.686670
         1        27     1        0.108185   330239.616309
         2         3     1        0.140930   263792.568457
         2        19     1        0.137233   262540.279687
         3         4     1        0.139660   308664.257471
         3         7     1        0.151203   194415.303296
         4         5     1        0.140346   280628.112109
         4        28     1        0.108359   323414.568457
         5         6     1        0.140952   268040.845361
         5        17     1        0.135569   287267.198730
         6        47     1        0.147011   124995.467773
         7         8     1        0.153592   153621.967261
         7        30     1        0.109241   302571.256396
         7        31     1        0.109241   302571.256396
         8         9     1        0.137766   254542.108105
         8        11     1        0.122617   621123.227246
         9        10     1        0.140262   244903.560303
         9        32     1        0.101492   411234.644629
        10        12     1        0.134337   290399.835938
        10        16     1        0.139793   287882.362158
        12        13     1        0.132782   320066.244824
        13        14     1        0.141642   254795.895898
        13        23     1        0.134197   294966.407373
        14        15     1        0.141738   266111.669971
        14        22     1        0.142491   274099.473486
        15        16     1        0.140563   289985.828320
        15        21     1        0.137314   326218.977197
        16        29     1        0.108281   327746.760303
        17        18     1        0.143083   200138.986694
        18        33     1        0.109318   301463.992871
        18        34     1        0.109318   301463.992871
        18        35     1        0.109318   301463.992871
        19        20     1        0.142638   206439.642773
        20        36     1        0.109437   297369.372754
        20        37     1        0.109437   297369.347217
        20        38     1        0.109437   297369.347217
        21        39     1        0.101134   424950.626074
        21        40     1        0.101134   424950.626074
        22        26     1        0.116699  1087197.077734
        23        24     1        0.145397   160633.589233
        24        25     1        0.152033   202700.460913
        24        41     1        0.109268   302644.241455
        24        42     1        0.109268   302644.241455
        25        43     1        0.109353   303559.874512
        25        44     1        0.109353   303559.874512
        25        45     1        0.109353   303559.874512
        46        47     1        0.123669   490667.414746
        47        48     1        0.123669   490667.414746

[ angles ]
;       ai        aj        ak funct           theta             cth
         1         2         3     1      120.239746      647.630223
         1         2        19     1      123.895973      499.903728
         1         6         5     1      121.452774      636.422305
         1         6        47     1      116.600426      533.303713
         2         1         6     1      119.737534      663.157616
         2         1        27     1      121.989403      400.524821
         2         3         4     1      118.944275      697.690746
         2         3         7     1      120.316605      459.982139
         2        19        20     1      117.808273      544.334978
         3         2        19     1      115.948280      504.823611
         3         4         5     1      122.068031      714.999352
         3         4        28     1      118.803566      382.752653
         3         7         8     1      112.788879      601.694262
         3         7        30     1      110.210472      489.594907
         3         7        31     1      110.210472      489.594907
         4         3         7     1      120.701828      463.509197
         4         5         6     1      117.235497      558.741228
         4         5        17     1      123.023270      500.001471
         5         4        28     1      119.428162      427.457438
         5         6        47     1      121.755753      727.471549
         5        17        18     1      118.130630      513.382310
         6         1        27     1      118.069687      398.141092
         6         5        17     1      118.979042      573.050819
         6        47        46     1      117.659775      464.989392
         6        47        48     1      117.659775      464.989392
         7         8         9     1      113.833664      491.700282
         7         8        11     1      121.328224      493.112325
         8         7        30     1      107.046463      537.365773
         8         7        31     1      107.046463      537.365773
         8         9        10     1      129.069580      534.688143
         8         9        32     1      116.701096      438.836519
         9         8        11     1      124.602150      646.961023
         9        10        12     1      113.758102      582.256947
         9        10        16     1      121.951126      485.345213
        10         9        32     1      113.534424      449.375907
        10        12        13     1      118.304626      775.603190
        10        16        15     1      118.613724      856.851419
        10        16        29     1      120.376305      450.317237
        12        10        16     1      123.825233      554.462868
        12        13        14     1      123.571449      555.125811
        12        13        23     1      119.755508      555.194953
        13        14        15     1      117.943275      836.313646
        13        14        22     1      121.656006      569.704117
        13        23        24     1      118.239746      524.626714
        14        13        23     1      116.527573      485.761532
        14        15        16     1      117.811523      640.006247
        14        15        21     1      121.165833      573.180356
        14        22        26     1      176.858093      167.360000
        15        14        22     1      119.587379      527.335786
        15        16        29     1      120.382774      424.889235
        15        21        39     1      117.595009      461.050995
        15        21        40     1      117.595009      461.050995
        16        15        21     1      121.074852      515.527140
        17        18        33     1      109.179337      451.072529
        17        18        34     1      109.179337      451.072529
        17        18        35     1      109.179337      451.072529
        19        20        36     1      109.483566      451.386220
        19        20        37     1      109.483566      451.386220
        19        20        38     1      109.483566      451.386220
        23        24        25     1      109.218674      641.639473
        23        24        41     1      107.597557      461.944347
        23        24        42     1      107.597557      461.944347
        24        25        43     1      110.391464      492.871382
        24        25        44     1      110.391464      492.871382
        24        25        45     1      110.391464      492.871382
        25        24        41     1      111.604774      489.853694
        25        24        42     1      111.604774      489.853694
        30         7        31     1      107.749405      355.690404
        33        18        34     1      109.776016      344.097099
        33        18        35     1      109.776016      344.097099
        34        18        35     1      109.776016      344.097099
        36        20        37     1      109.504967      343.329358
        36        20        38     1      109.504967      343.329358
        37        20        38     1      109.504967      343.329358
        39        21        40     1      114.641884      341.475906
        41        24        42     1      108.699196      339.590023
        43        25        44     1      108.539650      361.992771
        43        25        45     1      108.539650      361.992771
        44        25        45     1      108.539650      361.992771
        46        47        48     1      124.596451      861.919003

[ dihedrals ] ; propers for gromacs 4.5 or higher, use funct 9
;       ai        aj        ak        al funct           phase               k        pn
         1         2         3         4     9        0.000000       -0.206328         1
         1         2         3         4     9      180.000000       15.214606         2
         1         2         3         4     9        0.000000       -0.925034         3
         1         2         3         4     9      180.000000       -0.170242         4
         1         2         3         7     9        0.000000        0.066201         1
         1         2         3         7     9      180.000000       12.539775         2
         1         2         3         7     9        0.000000       -0.181069         3
         1         2         3         7     9      180.000000       -0.080066         4
         1         2        19        20     9        0.000000       -0.101801         1
         1         2        19        20     9      180.000000        4.906949         2
         1         2        19        20     9        0.000000       -0.345011         3
         1         2        19        20     9      180.000000        0.366165         4
         1         6         5         4     9        0.000000       -0.006175         1
         1         6         5         4     9      180.000000       13.701770         2
         1         6         5         4     9        0.000000       -0.614894         3
         1         6         5         4     9      180.000000       -0.145505         4
         1         6         5        17     9        0.000000        0.227696         1
         1         6         5        17     9      180.000000       14.718547         2
         1         6         5        17     9        0.000000        0.170350         3
         1         6         5        17     9      180.000000        0.018351         4
         1         6        47        46     9        0.000000        0.428866         1
         1         6        47        46     9      180.000000        3.637729         2
         1         6        47        46     9        0.000000       -0.107157         3
         1         6        47        46     9      180.000000        0.005524         4
         1         6        47        48     9        0.000000        0.428866         1
         1         6        47        48     9      180.000000        3.637729         2
         1         6        47        48     9        0.000000       -0.107157         3
         1         6        47        48     9      180.000000        0.005524         4
         2         1         6         5     9        0.000000       -0.165603         1
         2         1         6         5     9      180.000000       17.576749         2
         2         1         6         5     9        0.000000       -1.646194         3
         2         1         6         5     9      180.000000       -0.361863         4
         2         1         6        47     9        0.000000       -0.016848         1
         2         1         6        47     9      180.000000       15.934204         2
         2         1         6        47     9        0.000000       -0.119495         3
         2         1         6        47     9      180.000000       -0.430452         4
         2         3         4         5     9        0.000000       -0.083110         1
         2         3         4         5     9      180.000000       19.029619         2
         2         3         4         5     9        0.000000       -1.471260         3
         2         3         4         5     9      180.000000       -0.457210         4
         2         3         4        28     9        0.000000        0.091087         1
         2         3         4        28     9      180.000000       14.937459         2
         2         3         4        28     9        0.000000       -0.284897         3
         2         3         4        28     9      180.000000        0.023088         4
         2         3         7         8     9        0.000000       -0.991452         1
         2         3         7         8     9      180.000000        0.306793         2
         2         3         7         8     9        0.000000        0.106517         3
         2         3         7         8     9      180.000000       -0.033064         4
         2         3         7        30     9        0.000000        0.006154         1
         2         3         7        30     9      180.000000       -0.059765         2
         2         3         7        30     9        0.000000        0.040508         3
         2         3         7        30     9      180.000000        0.109230         4
         2         3         7        31     9        0.000000        0.006154         1
         2         3         7        31     9      180.000000       -0.059765         2
         2         3         7        31     9        0.000000        0.040508         3
         2         3         7        31     9      180.000000        0.109230         4
         2        19        20        36     9        0.000000       -0.065371         1
         2        19        20        36     9      180.000000        0.053922         2
         2        19        20        36     9        0.000000        0.669797         3
         2        19        20        36     9      180.000000       -0.018704         4
         2        19        20        37     9        0.000000       -0.065370         1
         2        19        20        37     9      180.000000        0.053923         2
         2        19        20        37     9        0.000000        0.669797         3
         2        19        20        37     9      180.000000       -0.018704         4
         2        19        20        38     9        0.000000       -0.065370         1
         2        19        20        38     9      180.000000        0.053923         2
         2        19        20        38     9        0.000000        0.669797         3
         2        19        20        38     9      180.000000       -0.018704         4
         3         2         1         6     9        0.000000       -0.269516         1
         3         2         1         6     9      180.000000       16.994324         2
         3         2         1         6     9        0.000000       -1.171023         3
         3         2         1         6     9      180.000000       -0.492535         4
         3         2         1        27     9        0.000000        0.324082         1
         3         2         1        27     9      180.000000       12.531181         2
         3         2         1        27     9        0.000000       -0.422163         3
         3         2         1        27     9      180.000000        0.134422         4
         3         2        19        20     9        0.000000       -1.890123         1
         3         2        19        20     9      180.000000        5.520131         2
         3         2        19        20     9        0.000000       -0.265456         3
         3         2        19        20     9      180.000000        0.314560         4
         3         4         5         6     9        0.000000       -0.260573         1
         3         4         5         6     9      180.000000       16.398521         2
         3         4         5         6     9        0.000000       -1.459488         3
         3         4         5         6     9      180.000000       -0.304575         4
         3         4         5        17     9        0.000000        0.321722         1
         3         4         5        17     9      180.000000       18.160205         2
         3         4         5        17     9        0.000000        0.048405         3
         3         4         5        17     9      180.000000       -0.377189         4
         3         7         8         9     9        0.000000        0.632958         1
         3         7         8         9     9      180.000000        1.146774         2
         3         7         8         9     9        0.000000        0.083727         3
         3         7         8         9     9      180.000000        0.009461         4
         3         7         8        11     9        0.000000       -2.694373         1
         3         7         8        11     9      180.000000        0.793063         2
         3         7         8        11     9        0.000000       -0.001974         3
         3         7         8        11     9      180.000000        0.012616         4
         4         3         2        19     9        0.000000        0.152203         1
         4         3         2        19     9      180.000000       18.391335         2
         4         3         2        19     9        0.000000        0.141261         3
         4         3         2        19     9      180.000000       -0.364855         4
         4         3         7         8     9        0.000000       -0.515171         1
         4         3         7         8     9      180.000000        0.182243         2
         4         3         7         8     9        0.000000       -0.054990         3
         4         3         7         8     9      180.000000        0.015695         4
         4         3         7        30     9        0.000000        0.125279         1
         4         3         7        30     9      180.000000       -0.051782         2
         4         3         7        30     9        0.000000        0.037664         3
         4         3         7        30     9      180.000000        0.042538         4
         4         3         7        31     9        0.000000        0.125279         1
         4         3         7        31     9      180.000000       -0.051782         2
         4         3         7        31     9        0.000000        0.037664         3
         4         3         7        31     9      180.000000        0.042538         4
         4         5         6        47     9        0.000000       -0.098668         1
         4         5         6        47     9      180.000000       11.485864         2
         4         5         6        47     9        0.000000       -0.025644         3
         4         5         6        47     9      180.000000       -0.042157         4
         4         5        17        18     9        0.000000        0.800223         1
         4         5        17        18     9      180.000000        5.004486         2
         4         5        17        18     9        0.000000       -1.189282         3
         4         5        17        18     9      180.000000        0.650662         4
         5         4         3         7     9        0.000000        0.229844         1
         5         4         3         7     9      180.000000       16.317362         2
         5         4         3         7     9        0.000000       -0.121344         3
         5         4         3         7     9      180.000000       -0.412942         4
         5         6         1        27     9        0.000000        0.180254         1
         5         6         1        27     9      180.000000       13.819939         2
         5         6         1        27     9        0.000000       -0.485393         3
         5         6         1        27     9      180.000000        0.107325         4
         5         6        47        46     9        0.000000       -0.520127         1
         5         6        47        46     9      180.000000        3.727867         2
         5         6        47        46     9        0.000000        0.558668         3
         5         6        47        46     9      180.000000       -0.054537         4
         5         6        47        48     9        0.000000       -0.520127         1
         5         6        47        48     9      180.000000        3.727867         2
         5         6        47        48     9        0.000000        0.558668         3
         5         6        47        48     9      180.000000       -0.054537         4
         5        17        18        33     9        0.000000        0.024553         1
         5        17        18        33     9      180.000000        0.033953         2
         5        17        18        33     9        0.000000        0.026350         3
         5        17        18        33     9      180.000000       -0.019391         4
         5        17        18        34     9        0.000000        0.024553         1
         5        17        18        34     9      180.000000        0.033953         2
         5        17        18        34     9        0.000000        0.026350         3
         5        17        18        34     9      180.000000       -0.019391         4
         5        17        18        35     9        0.000000        0.024553         1
         5        17        18        35     9      180.000000        0.033953         2
         5        17        18        35     9        0.000000        0.026350         3
         5        17        18        35     9      180.000000       -0.019391         4
         6         1         2        19     9        0.000000        0.191691         1
         6         1         2        19     9      180.000000       19.817034         2
         6         1         2        19     9        0.000000        0.075505         3
         6         1         2        19     9      180.000000       -0.665081         4
         6         5         4        28     9        0.000000        0.142504         1
         6         5         4        28     9      180.000000       12.477514         2
         6         5         4        28     9        0.000000       -0.565025         3
         6         5         4        28     9      180.000000        0.206294         4
         6         5        17        18     9        0.000000       -2.135248         1
         6         5        17        18     9      180.000000        5.807182         2
         6         5        17        18     9        0.000000       -0.537718         3
         6         5        17        18     9      180.000000        0.695715         4
         7         3         2        19     9        0.000000        0.094880         1
         7         3         2        19     9      180.000000       16.701171         2
         7         3         2        19     9        0.000000        0.015297         3
         7         3         2        19     9      180.000000       -0.534331         4
         7         3         4        28     9        0.000000       -0.093345         1
         7         3         4        28     9      180.000000       13.287128         2
         7         3         4        28     9        0.000000       -0.399340         3
         7         3         4        28     9      180.000000        0.086252         4
         7         8         9        10     9        0.000000        0.953036         1
         7         8         9        10     9      180.000000        9.389414         2
         7         8         9        10     9        0.000000        0.383550         3
         7         8         9        10     9      180.000000       -0.691061         4
         7         8         9        32     9        0.000000        1.586875         1
         7         8         9        32     9      180.000000        9.627105         2
         7         8         9        32     9        0.000000        0.246001         3
         7         8         9        32     9      180.000000        0.510298         4
         8         9        10        12     9        0.000000       -2.686227         1
         8         9        10        12     9      180.000000        5.066668         2
         8         9        10        12     9        0.000000        0.433294         3
         8         9        10        12     9      180.000000       -0.226781         4
         8         9        10        16     9        0.000000        0.367824         1
         8         9        10        16     9      180.000000        3.339939         2
         8         9        10        16     9        0.000000       -0.088259         3
         8         9        10        16     9      180.000000        0.087734         4
         9         8         7        30     9        0.000000       -0.102699         1
         9         8         7        30     9      180.000000       -0.300971         2
         9         8         7        30     9        0.000000       -0.124593         3
         9         8         7        30     9      180.000000        0.138565         4
         9         8         7        31     9        0.000000       -0.102699         1
         9         8         7        31     9      180.000000       -0.300971         2
         9         8         7        31     9        0.000000       -0.124593         3
         9         8         7        31     9      180.000000        0.138565         4
         9        10        12        13     9        0.000000        0.729424         1
         9        10        12        13     9      180.000000       25.135957         2
         9        10        12        13     9        0.000000        0.666756         3
         9        10        12        13     9      180.000000       -0.984798         4
         9        10        16        15     9        0.000000        0.162093         1
         9        10        16        15     9      180.000000       17.408671         2
         9        10        16        15     9        0.000000        0.303134         3
         9        10        16        15     9      180.000000       -0.718301         4
         9        10        16        29     9        0.000000        0.136361         1
         9        10        16        29     9      180.000000       13.172674         2
         9        10        16        29     9        0.000000       -0.091888         3
         9        10        16        29     9      180.000000        0.103766         4
        10         9         8        11     9        0.000000       -0.840616         1
        10         9         8        11     9      180.000000       10.078041         2
        10         9         8        11     9        0.000000       -0.175423         3
        10         9         8        11     9      180.000000       -0.208874         4
        10        12        13        14     9        0.000000        0.476446         1
        10        12        13        14     9      180.000000       19.589618         2
        10        12        13        14     9        0.000000        0.565011         3
        10        12        13        14     9      180.000000       -0.849501         4
        10        12        13        23     9        0.000000        1.407982         1
        10        12        13        23     9      180.000000       24.112847         2
        10        12        13        23     9        0.000000        1.396001         3
        10        12        13        23     9      180.000000       -1.069387         4
        10        16        15        14     9        0.000000       -0.221252         1
        10        16        15        14     9      180.000000       14.625500         2
        10        16        15        14     9        0.000000       -1.286572         3
        10        16        15        14     9      180.000000       -0.424418         4
        10        16        15        21     9        0.000000       -0.032765         1
        10        16        15        21     9      180.000000       15.756841         2
        10        16        15        21     9        0.000000       -0.068443         3
        10        16        15        21     9      180.000000       -0.595816         4
        11         8         7        30     9        0.000000        0.254810         1
        11         8         7        30     9      180.000000        0.012136         2
        11         8         7        30     9        0.000000        0.062568         3
        11         8         7        30     9      180.000000        0.093519         4
        11         8         7        31     9        0.000000        0.254810         1
        11         8         7        31     9      180.000000        0.012136         2
        11         8         7        31     9        0.000000        0.062568         3
        11         8         7        31     9      180.000000        0.093519         4
        11         8         9        32     9        0.000000        0.002604         1
        11         8         9        32     9      180.000000       10.503663         2
        11         8         9        32     9        0.000000        0.191503         3
        11         8         9        32     9      180.000000        1.053032         4
        12        10         9        32     9        0.000000        3.775225         1
        12        10         9        32     9      180.000000        3.730190         2
        12        10         9        32     9        0.000000        0.217135         3
        12        10         9        32     9      180.000000       -0.319752         4
        12        10        16        15     9        0.000000       -0.276971         1
        12        10        16        15     9      180.000000       15.879808         2
        12        10        16        15     9        0.000000       -0.476804         3
        12        10        16        15     9      180.000000       -0.553410         4
        12        10        16        29     9        0.000000       -0.030188         1
        12        10        16        29     9      180.000000       12.754568         2
        12        10        16        29     9        0.000000       -0.019747         3
        12        10        16        29     9      180.000000       -0.135447         4
        12        13        14        15     9        0.000000       -0.464193         1
        12        13        14        15     9      180.000000       10.843665         2
        12        13        14        15     9        0.000000       -0.719716         3
        12        13        14        15     9      180.000000       -0.177181         4
        12        13        14        22     9        0.000000       -1.010597         1
        12        13        14        22     9      180.000000       11.454980         2
        12        13        14        22     9        0.000000       -0.525839         3
        12        13        14        22     9      180.000000       -0.460776         4
        12        13        23        24     9        0.000000        0.617461         1
        12        13        23        24     9      180.000000        8.076115         2
        12        13        23        24     9        0.000000        0.395627         3
        12        13        23        24     9      180.000000       -0.107526         4
        13        12        10        16     9        0.000000        0.391586         1
        13        12        10        16     9      180.000000       19.181884         2
        13        12        10        16     9        0.000000       -0.650401         3
        13        12        10        16     9      180.000000       -0.397317         4
        13        14        15        16     9        0.000000       -0.059177         1
        13        14        15        16     9      180.000000       12.441163         2
        13        14        15        16     9        0.000000       -0.883492         3
        13        14        15        16     9      180.000000       -0.108281         4
        13        14        15        21     9        0.000000        0.162817         1
        13        14        15        21     9      180.000000       14.573308         2
        13        14        15        21     9        0.000000        0.064552         3
        13        14        15        21     9      180.000000       -0.573788         4
        13        14        22        26     9        0.000000        0.000000         1
        13        14        22        26     9      180.000000        0.000000         2
        13        14        22        26     9        0.000000        0.000000         3
        13        14        22        26     9      180.000000        0.000000         4
        13        23        24        25     9        0.000000       -1.993607         1
        13        23        24        25     9      180.000000       -0.102255         2
        13        23        24        25     9        0.000000        0.383118         3
        13        23        24        25     9      180.000000       -0.003527         4
        13        23        24        41     9        0.000000        0.956754         1
        13        23        24        41     9      180.000000        0.061545         2
        13        23        24        41     9        0.000000        0.289292         3
        13        23        24        41     9      180.000000        0.003639         4
        13        23        24        42     9        0.000000        0.956754         1
        13        23        24        42     9      180.000000        0.061545         2
        13        23        24        42     9        0.000000        0.289292         3
        13        23        24        42     9      180.000000        0.003639         4
        14        13        23        24     9        0.000000       -1.415060         1
        14        13        23        24     9      180.000000        8.116562         2
        14        13        23        24     9        0.000000       -0.151470         3
        14        13        23        24     9      180.000000        0.222166         4
        14        15        16        29     9        0.000000       -0.272436         1
        14        15        16        29     9      180.000000       12.226124         2
        14        15        16        29     9        0.000000       -0.402097         3
        14        15        16        29     9      180.000000        0.036569         4
        14        15        21        39     9        0.000000        2.241293         1
        14        15        21        39     9      180.000000        6.242563         2
        14        15        21        39     9        0.000000        0.140057         3
        14        15        21        39     9      180.000000       -0.272719         4
        14        15        21        40     9        0.000000        2.241293         1
        14        15        21        40     9      180.000000        6.242563         2
        14        15        21        40     9        0.000000        0.140057         3
        14        15        21        40     9      180.000000       -0.272719         4
        15        14        13        23     9        0.000000        0.454309         1
        15        14        13        23     9      180.000000       13.016494         2
        15        14        13        23     9        0.000000        0.720589         3
        15        14        13        23     9      180.000000       -0.398476         4
        15        14        22        26     9        0.000000        0.000000         1
        15        14        22        26     9      180.000000        0.000000         2
        15        14        22        26     9        0.000000        0.000000         3
        15        14        22        26     9      180.000000        0.000000         4
        16        10         9        32     9        0.000000        1.444114         1
        16        10         9        32     9      180.000000        4.745283         2
        16        10         9        32     9        0.000000        0.907973         3
        16        10         9        32     9      180.000000       -0.000219         4
        16        15        14        22     9        0.000000       -0.081142         1
        16        15        14        22     9      180.000000       12.977246         2
        16        15        14        22     9        0.000000       -0.318499         3
        16        15        14        22     9      180.000000       -0.132217         4
        16        15        21        39     9        0.000000       -0.117483         1
        16        15        21        39     9      180.000000        6.276046         2
        16        15        21        39     9        0.000000        0.013310         3
        16        15        21        39     9      180.000000       -0.224693         4
        16        15        21        40     9        0.000000       -0.117483         1
        16        15        21        40     9      180.000000        6.276046         2
        16        15        21        40     9        0.000000        0.013310         3
        16        15        21        40     9      180.000000       -0.224693         4
        17         5         4        28     9        0.000000        0.143558         1
        17         5         4        28     9      180.000000       14.046979         2
        17         5         4        28     9        0.000000        0.033701         3
        17         5         4        28     9      180.000000        0.099557         4
        17         5         6        47     9        0.000000       -0.138388         1
        17         5         6        47     9      180.000000       13.655469         2
        17         5         6        47     9        0.000000        0.283248         3
        17         5         6        47     9      180.000000       -0.471622         4
        19         2         1        27     9        0.000000        0.175764         1
        19         2         1        27     9      180.000000       13.976977         2
        19         2         1        27     9        0.000000       -0.028733         3
        19         2         1        27     9      180.000000        0.114419         4
        21        15        14        22     9        0.000000       -0.220864         1
        21        15        14        22     9      180.000000       15.158682         2
        21        15        14        22     9        0.000000       -0.153296         3
        21        15        14        22     9      180.000000       -0.573510         4
        21        15        16        29     9        0.000000       -0.174826         1
        21        15        16        29     9      180.000000       14.115709         2
        21        15        16        29     9        0.000000       -0.275957         3
        21        15        16        29     9      180.000000        0.045247         4
        22        14        13        23     9        0.000000       -0.306668         1
        22        14        13        23     9      180.000000       13.260946         2
        22        14        13        23     9        0.000000       -0.112285         3
        22        14        13        23     9      180.000000       -0.440224         4
        23        24        25        43     9        0.000000        0.188760         1
        23        24        25        43     9      180.000000        0.030056         2
        23        24        25        43     9        0.000000        0.544573         3
        23        24        25        43     9      180.000000        0.044186         4
        23        24        25        44     9        0.000000        0.188760         1
        23        24        25        44     9      180.000000        0.030056         2
        23        24        25        44     9        0.000000        0.544573         3
        23        24        25        44     9      180.000000        0.044186         4
        23        24        25        45     9        0.000000        0.188760         1
        23        24        25        45     9      180.000000        0.030056         2
        23        24        25        45     9        0.000000        0.544573         3
        23        24        25        45     9      180.000000        0.044186         4
        27         1         6        47     9        0.000000       -0.074466         1
        27         1         6        47     9      180.000000       12.372161         2
        27         1         6        47     9        0.000000       -0.256884         3
        27         1         6        47     9      180.000000        0.141125         4
        41        24        25        43     9        0.000000       -0.031410         1
        41        24        25        43     9      180.000000        0.011477         2
        41        24        25        43     9        0.000000        0.612781         3
        41        24        25        43     9      180.000000        0.005092         4
        41        24        25        44     9        0.000000       -0.031410         1
        41        24        25        44     9      180.000000        0.011477         2
        41        24        25        44     9        0.000000        0.612781         3
        41        24        25        44     9      180.000000        0.005092         4
        41        24        25        45     9        0.000000       -0.031410         1
        41        24        25        45     9      180.000000        0.011477         2
        41        24        25        45     9        0.000000        0.612781         3
        41        24        25        45     9      180.000000        0.005092         4
        42        24        25        43     9        0.000000       -0.031410         1
        42        24        25        43     9      180.000000        0.011477         2
        42        24        25        43     9        0.000000        0.612781         3
        42        24        25        43     9      180.000000        0.005092         4
        42        24        25        44     9        0.000000       -0.031410         1
        42        24        25        44     9      180.000000        0.011477         2
        42        24        25        44     9        0.000000        0.612781         3
        42        24        25        44     9      180.000000        0.005092         4
        42        24        25        45     9        0.000000       -0.031410         1
        42        24        25        45     9      180.000000        0.011477         2
        42        24        25        45     9        0.000000        0.612781         3
        42        24        25        45     9      180.000000        0.005092         4

[ dihedrals ] ; impropers
;       ai        aj        ak        al funct           phase               k        pn
         1         2         6        27     4      180.000000        0.291097         2
         1         6        27         2     4      180.000000        0.291097         2
         1        27         2         6     4      180.000000        0.291097         2
         8         7         9        11     4      180.000000       19.599544         2
         8         9        11         7     4      180.000000       19.599544         2
         8        11         7         9     4      180.000000       19.599544         2
        10         9        12        16     4      180.000000        2.711848         2
        10        12        16         9     4      180.000000        2.711848         2
        10        16         9        12     4      180.000000        2.711848         2
        13        12        14        23     4      180.000000       13.844207         2
        13        14        23        12     4      180.000000       13.844207         2
        13        23        12        14     4      180.000000       13.844207         2
        47         6        46        48     4      180.000000       19.657400         2
        47        46        48         6     4      180.000000       19.657400         2
        47        48         6        46     4      180.000000       19.657400         2

[ pairs ]
;       ai        aj funct
         1         4     1
         1         7     1
         1        17     1
         1        20     1
         1        46     1
         1        48     1
         2         5     1
         2         8     1
         2        28     1
         2        30     1
         2        31     1
         2        36     1
         2        37     1
         2        38     1
         2        47     1
         3         6     1
         3         9     1
         3        11     1
         3        17     1
         3        20     1
         3        27     1
         4         8     1
         4        18     1
         4        19     1
         4        30     1
         4        31     1
         4        47     1
         5         7     1
         5        27     1
         5        33     1
         5        34     1
         5        35     1
         5        46     1
         5        48     1
         6        18     1
         6        19     1
         6        28     1
         7        10     1
         7        19     1
         7        28     1
         7        32     1
         8        12     1
         8        16     1
         9        13     1
         9        15     1
         9        29     1
         9        30     1
         9        31     1
        10        11     1
        10        14     1
        10        21     1
        10        23     1
        11        30     1
        11        31     1
        11        32     1
        12        15     1
        12        22     1
        12        24     1
        12        29     1
        12        32     1
        13        16     1
        13        21     1
        13        25     1
        13        26     1
        13        41     1
        13        42     1
        14        24     1
        14        29     1
        14        39     1
        14        40     1
        15        23     1
        15        26     1
        16        22     1
        16        32     1
        16        39     1
        16        40     1
        17        28     1
        17        47     1
        19        27     1
        21        22     1
        21        29     1
        22        23     1
        23        43     1
        23        44     1
        23        45     1
        27        47     1
        41        43     1
        41        44     1
        41        45     1
        42        43     1
        42        44     1
        42        45     1
