; ITP file created by ByteFF-ML, 2026-02-21 08:17:08.844993

[ atomtypes ]
;name           bonded.type        at.num        mass        charge   ptype           sigma         epsilon
 c0bf                                   6      0.0000       0.00000       A     3.31480e-01     4.14274e-01
 c1bf                                   6      0.0000       0.00000       A     3.31233e-01     4.13601e-01
 c2bf                                   6      0.0000       0.00000       A     3.31481e-01     4.14427e-01
 c3bf                                   6      0.0000       0.00000       A     3.31454e-01     4.15080e-01
 c4bf                                   6      0.0000       0.00000       A     3.31451e-01     4.11296e-01
 c5bf                                   6      0.0000       0.00000       A     3.31552e-01     4.12772e-01
 c6bf                                   6      0.0000       0.00000       A     3.39655e-01     4.49447e-01
 c7bf                                   6      0.0000       0.00000       A     3.31893e-01     4.11495e-01
 n8bf                                   7      0.0000       0.00000       A     3.27441e-01     4.84508e-01
 c9bf                                   6      0.0000       0.00000       A     3.31413e-01     4.13526e-01
 o10bf                                  8      0.0000       0.00000       A     3.04535e-01     6.09762e-01
 n11bf                                  7      0.0000       0.00000       A     3.38247e-01     3.93466e-01
 c12bf                                  6      0.0000       0.00000       A     3.31399e-01     4.14453e-01
 c13bf                                  6      0.0000       0.00000       A     3.31540e-01     4.13015e-01
 c14bf                                  6      0.0000       0.00000       A     3.31393e-01     4.14643e-01
 c15bf                                  6      0.0000       0.00000       A     3.31576e-01     4.11459e-01
 o16bf                                  8      0.0000       0.00000       A     3.15774e-01     3.03904e-01
 c17bf                                  6      0.0000       0.00000       A     3.39800e-01     4.50400e-01
 o18bf                                  8      0.0000       0.00000       A     3.15765e-01     3.04623e-01
 c19bf                                  6      0.0000       0.00000       A     3.39784e-01     4.50460e-01
 n20bf                                  7      0.0000       0.00000       A     3.36513e-01     4.72176e-01
 c21bf                                  6      0.0000       0.00000       A     3.48265e-01     6.71656e-01
 o22bf                                  8      0.0000       0.00000       A     3.15904e-01     3.02254e-01
 c23bf                                  6      0.0000       0.00000       A     3.39748e-01     4.50578e-01
 c24bf                                  6      0.0000       0.00000       A     3.39811e-01     4.51198e-01
 n25bf                                  7      0.0000       0.00000       A     3.27372e-01     4.59322e-01
 h26bf                                  1      0.0000       0.00000       A     2.62456e-01     6.73270e-02
 h27bf                                  1      0.0000       0.00000       A     2.62674e-01     6.76063e-02
 h28bf                                  1      0.0000       0.00000       A     2.62420e-01     6.84395e-02
 h29bf                                  1      0.0000       0.00000       A     2.59913e-01     8.79307e-02
 h30bf                                  1      0.0000       0.00000       A     2.59913e-01     8.79307e-02
 h31bf                                  1      0.0000       0.00000       A     1.10312e-01     4.02784e-02
 h32bf                                  1      0.0000       0.00000       A     2.42080e-01     8.75859e-02
 h33bf                                  1      0.0000       0.00000       A     2.42080e-01     8.75859e-02
 h34bf                                  1      0.0000       0.00000       A     2.42080e-01     8.75859e-02
 h35bf                                  1      0.0000       0.00000       A     2.42080e-01     8.75859e-02
 h36bf                                  1      0.0000       0.00000       A     2.42080e-01     8.75859e-02
 h37bf                                  1      0.0000       0.00000       A     2.42080e-01     8.75859e-02
 h38bf                                  1      0.0000       0.00000       A     1.10467e-01     4.08370e-02
 h39bf                                  1      0.0000       0.00000       A     1.10467e-01     4.08370e-02
 h40bf                                  1      0.0000       0.00000       A     2.42216e-01     8.76162e-02
 h41bf                                  1      0.0000       0.00000       A     2.42216e-01     8.76162e-02
 h42bf                                  1      0.0000       0.00000       A     2.60028e-01     8.73433e-02
 h43bf                                  1      0.0000       0.00000       A     2.60028e-01     8.73433e-02
 h44bf                                  1      0.0000       0.00000       A     2.60028e-01     8.73433e-02
 h45bf                                  1      0.0000       0.00000       A     1.10465e-01     4.10892e-02
 n46bf                                  7      0.0000       0.00000       A     3.27202e-01     4.90154e-01
 c47bf                                  6      0.0000       0.00000       A     3.31547e-01     4.13214e-01
 o48bf                                  8      0.0000       0.00000       A     3.04726e-01     6.12551e-01
 c49bf                                  6      0.0000       0.00000       A     3.39729e-01     4.51732e-01
 h50bf                                  1      0.0000       0.00000       A     2.60039e-01     8.76944e-02
 h51bf                                  1      0.0000       0.00000       A     2.60039e-01     8.76944e-02
 h52bf                                  1      0.0000       0.00000       A     2.60039e-01     8.76944e-02

[ moleculetype ]
;name             nrexcl
 18637-1               3

[ atoms ]
;       nr            type      resi   res      atom      cgnr      charge          mass ; qtot
         1            c0bf         1   UNL        c0         1    -0.17967       12.0110 ; qtot   -0.180
         2            c1bf         1   UNL        c1         2     0.14146       12.0110 ; qtot   -0.038
         3            c2bf         1   UNL        c2         3    -0.10858       12.0110 ; qtot   -0.147
         4            c3bf         1   UNL        c3         4    -0.10844       12.0110 ; qtot   -0.255
         5            c4bf         1   UNL        c4         5     0.05764       12.0110 ; qtot   -0.198
         6            c5bf         1   UNL        c5         6    -0.01806       12.0110 ; qtot   -0.216
         7            c6bf         1   UNL        c6         7    -0.10475       12.0110 ; qtot   -0.320
         8            c7bf         1   UNL        c7         8     0.61335       12.0110 ; qtot    0.293
         9            n8bf         1   UNL        n8         9    -0.33030       14.0070 ; qtot   -0.037
        10            c9bf         1   UNL        c9        10     0.55391       12.0110 ; qtot    0.517
        11           o10bf         1   UNL       o10        11    -0.56579       15.9990 ; qtot   -0.049
        12           n11bf         1   UNL       n11        12    -0.80694       14.0070 ; qtot   -0.856
        13           c12bf         1   UNL       c12        13     0.68635       12.0110 ; qtot   -0.170
        14           c13bf         1   UNL       c13        14    -0.21375       12.0110 ; qtot   -0.384
        15           c14bf         1   UNL       c14        15     0.41091       12.0110 ; qtot    0.027
        16           c15bf         1   UNL       c15        16    -0.27787       12.0110 ; qtot   -0.251
        17           o16bf         1   UNL       o16        17    -0.36551       15.9990 ; qtot   -0.616
        18           c17bf         1   UNL       c17        18     0.14604       12.0110 ; qtot   -0.470
        19           o18bf         1   UNL       o18        19    -0.35846       15.9990 ; qtot   -0.828
        20           c19bf         1   UNL       c19        20     0.14400       12.0110 ; qtot   -0.684
        21           n20bf         1   UNL       n20        21    -1.06403       14.0070 ; qtot   -1.748
        22           c21bf         1   UNL       c21        22     0.34585       12.0110 ; qtot   -1.403
        23           o22bf         1   UNL       o22        23    -0.45337       15.9990 ; qtot   -1.856
        24           c23bf         1   UNL       c23        24     0.16982       12.0110 ; qtot   -1.686
        25           c24bf         1   UNL       c24        25    -0.11089       12.0110 ; qtot   -1.797
        26           n25bf         1   UNL       n25        26    -0.46684       14.0070 ; qtot   -2.264
        27           h26bf         1   UNL       h26        27     0.14708        1.0080 ; qtot   -2.117
        28           h27bf         1   UNL       h27        28     0.12489        1.0080 ; qtot   -1.992
        29           h28bf         1   UNL       h28        29     0.14532        1.0080 ; qtot   -1.847
        30           h29bf         1   UNL       h29        30     0.07947        1.0080 ; qtot   -1.767
        31           h30bf         1   UNL       h30        31     0.07947        1.0080 ; qtot   -1.688
        32           h31bf         1   UNL       h31        32     0.18700        1.0080 ; qtot   -1.501
        33           h32bf         1   UNL       h32        33     0.04345        1.0080 ; qtot   -1.457
        34           h33bf         1   UNL       h33        34     0.04345        1.0080 ; qtot   -1.414
        35           h34bf         1   UNL       h34        35     0.04345        1.0080 ; qtot   -1.370
        36           h35bf         1   UNL       h35        36     0.04237        1.0080 ; qtot   -1.328
        37           h36bf         1   UNL       h36        37     0.04237        1.0080 ; qtot   -1.286
        38           h37bf         1   UNL       h37        38     0.04237        1.0080 ; qtot   -1.243
        39           h38bf         1   UNL       h38        39     0.47013        1.0080 ; qtot   -0.773
        40           h39bf         1   UNL       h39        40     0.47013        1.0080 ; qtot   -0.303
        41           h40bf         1   UNL       h40        41     0.05579        1.0080 ; qtot   -0.247
        42           h41bf         1   UNL       h41        42     0.05579        1.0080 ; qtot   -0.191
        43           h42bf         1   UNL       h42        43     0.04682        1.0080 ; qtot   -0.145
        44           h43bf         1   UNL       h43        44     0.04682        1.0080 ; qtot   -0.098
        45           h44bf         1   UNL       h44        45     0.04682        1.0080 ; qtot   -0.051
        46           h45bf         1   UNL       h45        46     0.16818        1.0080 ; qtot    0.117
        47           n46bf         1   UNL       n46        47    -0.15290       14.0070 ; qtot   -0.036
        48           c47bf         1   UNL       c47        48     0.60536       12.0110 ; qtot    0.570
        49           o48bf         1   UNL       o48        49    -0.59027       15.9990 ; qtot   -0.021
        50           c49bf         1   UNL       c49        50    -0.17671       12.0110 ; qtot   -0.197
        51           h50bf         1   UNL       h50        51     0.06575        1.0080 ; qtot   -0.132
        52           h51bf         1   UNL       h51        52     0.06575        1.0080 ; qtot   -0.066
        53           h52bf         1   UNL       h52        53     0.06577        1.0080 ; qtot    0.000

[ bonds ]
;       ai        aj funct               r               k
         1         2     1        0.139934   296400.622510
         1         6     1        0.139930   298506.208252
         1        27     1        0.107954   332002.238672
         2         3     1        0.140555   271799.039600
         2        19     1        0.137717   254949.271777
         3         4     1        0.140116   299388.643066
         3         7     1        0.151210   194959.524634
         4         5     1        0.139355   307258.005469
         4        28     1        0.108472   320013.153174
         5         6     1        0.141133   257990.486133
         5        17     1        0.137716   259035.209277
         6        47     1        0.140934   250104.269238
         7         8     1        0.153592   153621.967261
         7        30     1        0.109241   302571.256396
         7        31     1        0.109241   302571.256396
         8         9     1        0.137766   254542.108105
         8        11     1        0.122617   621123.227246
         9        10     1        0.140262   244903.560303
         9        32     1        0.101492   411234.644629
        10        12     1        0.134337   290399.835938
        10        16     1        0.139793   287882.362158
        12        13     1        0.132782   320066.244824
        13        14     1        0.141642   254795.895898
        13        23     1        0.134197   294966.407373
        14        15     1        0.141738   266111.669971
        14        22     1        0.142491   274099.447949
        15        16     1        0.140563   289985.802783
        15        21     1        0.137314   326219.002734
        16        29     1        0.108281   327746.760303
        17        18     1        0.142846   204784.148584
        18        33     1        0.109399   298462.871777
        18        34     1        0.109399   298462.871777
        18        35     1        0.109399   298462.871777
        19        20     1        0.142467   208505.109717
        20        36     1        0.109437   297369.372754
        20        37     1        0.109437   297369.372754
        20        38     1        0.109437   297369.372754
        21        39     1        0.101134   424950.626074
        21        40     1        0.101134   424950.626074
        22        26     1        0.116699  1087197.077734
        23        24     1        0.145397   160633.589233
        24        25     1        0.152033   202700.460913
        24        41     1        0.109268   302644.241455
        24        42     1        0.109268   302644.241455
        25        43     1        0.109353   303559.874512
        25        44     1        0.109353   303559.874512
        25        45     1        0.109353   303559.874512
        46        47     1        0.101261   414931.396582
        47        48     1        0.137827   260153.351611
        48        49     1        0.122868   610894.899902
        48        50     1        0.151997   179695.075024
        50        51     1        0.109282   307279.865234
        50        52     1        0.109282   307279.865234
        50        53     1        0.109282   307279.865234

[ angles ]
;       ai        aj        ak funct           theta             cth
         1         2         3     1      121.060654      612.203549
         1         2        19     1      122.876022      511.970427
         1         6         5     1      119.365685      572.485555
         1         6        47     1      123.361694      559.386614
         2         1         6     1      119.823608      799.526354
         2         1        27     1      121.501122      396.802117
         2         3         4     1      118.381027      669.318316
         2         3         7     1      120.627930      458.268854
         2        19        20     1      117.739731      546.472434
         3         2        19     1      116.087135      510.542647
         3         4         5     1      121.308128      701.023275
         3         4        28     1      118.744789      391.337846
         3         7         8     1      113.020470      590.025910
         3         7        30     1      110.291275      486.989196
         3         7        31     1      110.291275      486.989196
         4         3         7     1      120.955078      463.076343
         4         5         6     1      119.873169      639.468818
         4         5        17     1      124.631699      520.667632
         5         4        28     1      120.266136      422.954001
         5         6        47     1      116.546120      436.660214
         5        17        18     1      117.797401      531.371160
         6         1        27     1      119.132118      450.713318
         6         5        17     1      115.452682      464.116374
         6        47        46     1      114.058739      440.625776
         6        47        48     1      128.519867      484.686483
         7         8         9     1      113.833664      491.700282
         7         8        11     1      121.328224      493.112325
         8         7        30     1      107.046463      537.365773
         8         7        31     1      107.046463      537.365773
         8         9        10     1      129.069580      534.688143
         8         9        32     1      116.701096      438.836519
         9         8        11     1      124.602150      646.961023
         9        10        12     1      113.758102      582.256947
         9        10        16     1      121.951126      485.345213
        10         9        32     1      113.534424      449.375907
        10        12        13     1      118.304626      775.603190
        10        16        15     1      118.613724      856.851419
        10        16        29     1      120.376305      450.317237
        12        10        16     1      123.825233      554.462868
        12        13        14     1      123.571449      555.125811
        12        13        23     1      119.755508      555.194953
        13        14        15     1      117.943275      836.313646
        13        14        22     1      121.656006      569.704117
        13        23        24     1      118.239746      524.626714
        14        13        23     1      116.527573      485.761532
        14        15        16     1      117.811523      640.006247
        14        15        21     1      121.165833      573.180356
        14        22        26     1      176.858093      167.360000
        15        14        22     1      119.587379      527.335786
        15        16        29     1      120.382774      424.889235
        15        21        39     1      117.595009      461.050995
        15        21        40     1      117.595009      461.050995
        16        15        21     1      121.074852      515.527140
        17        18        33     1      109.360306      453.978492
        17        18        34     1      109.360306      453.978492
        17        18        35     1      109.360306      453.978492
        19        20        36     1      109.561401      450.655221
        19        20        37     1      109.561401      450.655221
        19        20        38     1      109.561401      450.655221
        23        24        25     1      109.218674      641.639409
        23        24        41     1      107.597557      461.944347
        23        24        42     1      107.597557      461.944347
        24        25        43     1      110.391464      492.871382
        24        25        44     1      110.391464      492.871382
        24        25        45     1      110.391464      492.871382
        25        24        41     1      111.604774      489.853694
        25        24        42     1      111.604774      489.853694
        30         7        31     1      107.749405      355.690404
        33        18        34     1      109.603470      343.304363
        33        18        35     1      109.603470      343.304363
        34        18        35     1      109.603470      343.304363
        36        20        37     1      109.504967      343.329390
        36        20        38     1      109.504967      343.329390
        37        20        38     1      109.504967      343.329390
        39        21        40     1      114.641884      341.475906
        41        24        42     1      108.699196      339.590023
        43        25        44     1      108.539650      361.992803
        43        25        45     1      108.539650      361.992803
        44        25        45     1      108.539650      361.992803
        46        47        48     1      117.425369      433.455850
        47        48        49     1      123.872963      627.263293
        47        48        50     1      114.475586      480.805226
        48        50        51     1      110.293190      519.093525
        48        50        52     1      110.293190      519.093525
        48        50        53     1      110.293190      519.093525
        49        48        50     1      121.608742      529.120734
        51        50        52     1      108.617905      357.301987
        51        50        53     1      108.617905      357.301987
        52        50        53     1      108.617905      357.301987

[ dihedrals ] ; propers for gromacs 4.5 or higher, use funct 9
;       ai        aj        ak        al funct           phase               k        pn
         1         2         3         4     9        0.000000       -0.135460         1
         1         2         3         4     9      180.000000       15.793088         2
         1         2         3         4     9        0.000000       -0.976461         3
         1         2         3         4     9      180.000000       -0.252164         4
         1         2         3         7     9        0.000000        0.091244         1
         1         2         3         7     9      180.000000       12.858713         2
         1         2         3         7     9        0.000000       -0.104312         3
         1         2         3         7     9      180.000000       -0.106792         4
         1         2        19        20     9        0.000000        1.129743         1
         1         2        19        20     9      180.000000        5.105777         2
         1         2        19        20     9        0.000000       -0.154468         3
         1         2        19        20     9      180.000000        0.364816         4
         1         6         5         4     9        0.000000       -0.323632         1
         1         6         5         4     9      180.000000       13.324215         2
         1         6         5         4     9        0.000000       -1.188674         3
         1         6         5         4     9      180.000000       -0.123099         4
         1         6         5        17     9        0.000000        0.002830         1
         1         6         5        17     9      180.000000       15.577754         2
         1         6         5        17     9        0.000000       -0.173543         3
         1         6         5        17     9      180.000000       -0.058595         4
         1         6        47        46     9        0.000000        1.636794         1
         1         6        47        46     9      180.000000        2.700505         2
         1         6        47        46     9        0.000000        1.193022         3
         1         6        47        46     9      180.000000        0.205052         4
         1         6        47        48     9        0.000000       -0.519582         1
         1         6        47        48     9      180.000000        1.503820         2
         1         6        47        48     9        0.000000       -0.396662         3
         1         6        47        48     9      180.000000        0.586842         4
         2         1         6         5     9        0.000000       -0.137778         1
         2         1         6         5     9      180.000000       17.110841         2
         2         1         6         5     9        0.000000       -1.533067         3
         2         1         6         5     9      180.000000       -0.421190         4
         2         1         6        47     9        0.000000        0.542648         1
         2         1         6        47     9      180.000000       18.781786         2
         2         1         6        47     9        0.000000        0.192757         3
         2         1         6        47     9      180.000000       -0.792939         4
         2         3         4         5     9        0.000000       -0.305279         1
         2         3         4         5     9      180.000000       19.270634         2
         2         3         4         5     9        0.000000       -1.759591         3
         2         3         4         5     9      180.000000       -0.416906         4
         2         3         4        28     9        0.000000        0.192048         1
         2         3         4        28     9      180.000000       14.640451         2
         2         3         4        28     9        0.000000       -0.256702         3
         2         3         4        28     9      180.000000        0.073900         4
         2         3         7         8     9        0.000000       -0.314087         1
         2         3         7         8     9      180.000000        0.001534         2
         2         3         7         8     9        0.000000        0.090610         3
         2         3         7         8     9      180.000000       -0.058427         4
         2         3         7        30     9        0.000000        0.022951         1
         2         3         7        30     9      180.000000       -0.043243         2
         2         3         7        30     9        0.000000        0.051677         3
         2         3         7        30     9      180.000000        0.108864         4
         2         3         7        31     9        0.000000        0.022951         1
         2         3         7        31     9      180.000000       -0.043243         2
         2         3         7        31     9        0.000000        0.051677         3
         2         3         7        31     9      180.000000        0.108864         4
         2        19        20        36     9        0.000000       -0.081112         1
         2        19        20        36     9      180.000000        0.062784         2
         2        19        20        36     9        0.000000        0.684784         3
         2        19        20        36     9      180.000000       -0.022974         4
         2        19        20        37     9        0.000000       -0.081112         1
         2        19        20        37     9      180.000000        0.062784         2
         2        19        20        37     9        0.000000        0.684784         3
         2        19        20        37     9      180.000000       -0.022974         4
         2        19        20        38     9        0.000000       -0.081112         1
         2        19        20        38     9      180.000000        0.062784         2
         2        19        20        38     9        0.000000        0.684784         3
         2        19        20        38     9      180.000000       -0.022974         4
         3         2         1         6     9        0.000000       -0.222138         1
         3         2         1         6     9      180.000000       16.520592         2
         3         2         1         6     9        0.000000       -1.428050         3
         3         2         1         6     9      180.000000       -0.421917         4
         3         2         1        27     9        0.000000        0.043769         1
         3         2         1        27     9      180.000000       12.422399         2
         3         2         1        27     9        0.000000       -0.345338         3
         3         2         1        27     9      180.000000        0.054034         4
         3         2        19        20     9        0.000000       -2.147952         1
         3         2        19        20     9      180.000000        5.585008         2
         3         2        19        20     9        0.000000       -0.305987         3
         3         2        19        20     9      180.000000        0.347970         4
         3         4         5         6     9        0.000000       -0.396323         1
         3         4         5         6     9      180.000000       17.636746         2
         3         4         5         6     9        0.000000       -1.722881         3
         3         4         5         6     9      180.000000       -0.457522         4
         3         4         5        17     9        0.000000        0.371806         1
         3         4         5        17     9      180.000000       18.621963         2
         3         4         5        17     9        0.000000       -0.203384         3
         3         4         5        17     9      180.000000       -0.313088         4
         3         7         8         9     9        0.000000        0.647467         1
         3         7         8         9     9      180.000000        1.102411         2
         3         7         8         9     9        0.000000        0.093748         3
         3         7         8         9     9      180.000000        0.021830         4
         3         7         8        11     9        0.000000       -3.218400         1
         3         7         8        11     9      180.000000        0.708830         2
         3         7         8        11     9        0.000000       -0.005484         3
         3         7         8        11     9      180.000000        0.019506         4
         4         3         2        19     9        0.000000        0.179331         1
         4         3         2        19     9      180.000000       18.622344         2
         4         3         2        19     9        0.000000        0.216245         3
         4         3         2        19     9      180.000000       -0.411156         4
         4         3         7         8     9        0.000000       -0.465645         1
         4         3         7         8     9      180.000000        0.150985         2
         4         3         7         8     9        0.000000        0.017732         3
         4         3         7         8     9      180.000000        0.033759         4
         4         3         7        30     9        0.000000        0.063553         1
         4         3         7        30     9      180.000000        0.006675         2
         4         3         7        30     9        0.000000        0.100935         3
         4         3         7        30     9      180.000000        0.046268         4
         4         3         7        31     9        0.000000        0.063553         1
         4         3         7        31     9      180.000000        0.006675         2
         4         3         7        31     9        0.000000        0.100935         3
         4         3         7        31     9      180.000000        0.046268         4
         4         5         6        47     9        0.000000        0.140451         1
         4         5         6        47     9      180.000000       15.654171         2
         4         5         6        47     9        0.000000       -0.187047         3
         4         5         6        47     9      180.000000       -0.328095         4
         4         5        17        18     9        0.000000        1.534792         1
         4         5        17        18     9      180.000000        4.381352         2
         4         5        17        18     9        0.000000        0.043717         3
         4         5        17        18     9      180.000000        0.414473         4
         5         4         3         7     9        0.000000        0.419735         1
         5         4         3         7     9      180.000000       16.878491         2
         5         4         3         7     9        0.000000        0.063796         3
         5         4         3         7     9      180.000000       -0.530537         4
         5         6         1        27     9        0.000000        0.144667         1
         5         6         1        27     9      180.000000       12.848081         2
         5         6         1        27     9        0.000000       -0.296288         3
         5         6         1        27     9      180.000000        0.112496         4
         5         6        47        46     9        0.000000        3.998048         1
         5         6        47        46     9      180.000000        2.929037         2
         5         6        47        46     9        0.000000       -0.148145         3
         5         6        47        46     9      180.000000       -0.055148         4
         5         6        47        48     9        0.000000       -1.057099         1
         5         6        47        48     9      180.000000        1.296352         2
         5         6        47        48     9        0.000000        0.075659         3
         5         6        47        48     9      180.000000        0.113218         4
         5        17        18        33     9        0.000000        0.000581         1
         5        17        18        33     9      180.000000        0.032571         2
         5        17        18        33     9        0.000000        0.814339         3
         5        17        18        33     9      180.000000       -0.021076         4
         5        17        18        34     9        0.000000        0.000581         1
         5        17        18        34     9      180.000000        0.032571         2
         5        17        18        34     9        0.000000        0.814339         3
         5        17        18        34     9      180.000000       -0.021076         4
         5        17        18        35     9        0.000000        0.000581         1
         5        17        18        35     9      180.000000        0.032571         2
         5        17        18        35     9        0.000000        0.814339         3
         5        17        18        35     9      180.000000       -0.021076         4
         6         1         2        19     9        0.000000        0.475184         1
         6         1         2        19     9      180.000000       18.536895         2
         6         1         2        19     9        0.000000        0.181486         3
         6         1         2        19     9      180.000000       -0.592959         4
         6         5         4        28     9        0.000000        0.314929         1
         6         5         4        28     9      180.000000       12.954929         2
         6         5         4        28     9        0.000000       -0.460738         3
         6         5         4        28     9      180.000000        0.115373         4
         6         5        17        18     9        0.000000       -3.046572         1
         6         5        17        18     9      180.000000        5.181434         2
         6         5        17        18     9        0.000000       -0.477946         3
         6         5        17        18     9      180.000000        0.772263         4
         6        47        48        49     9        0.000000       -1.197371         1
         6        47        48        49     9      180.000000       10.103772         2
         6        47        48        49     9        0.000000       -0.234236         3
         6        47        48        49     9      180.000000       -0.795320         4
         6        47        48        50     9        0.000000        3.800047         1
         6        47        48        50     9      180.000000        8.052500         2
         6        47        48        50     9        0.000000        0.572906         3
         6        47        48        50     9      180.000000       -0.466982         4
         7         3         2        19     9        0.000000        0.152169         1
         7         3         2        19     9      180.000000       16.897379         2
         7         3         2        19     9        0.000000        0.028701         3
         7         3         2        19     9      180.000000       -0.555182         4
         7         3         4        28     9        0.000000        0.012301         1
         7         3         4        28     9      180.000000       13.135722         2
         7         3         4        28     9        0.000000       -0.332264         3
         7         3         4        28     9      180.000000        0.092403         4
         7         8         9        10     9        0.000000        0.953036         1
         7         8         9        10     9      180.000000        9.389414         2
         7         8         9        10     9        0.000000        0.383550         3
         7         8         9        10     9      180.000000       -0.691061         4
         7         8         9        32     9        0.000000        1.586875         1
         7         8         9        32     9      180.000000        9.627105         2
         7         8         9        32     9        0.000000        0.246001         3
         7         8         9        32     9      180.000000        0.510298         4
         8         9        10        12     9        0.000000       -2.686227         1
         8         9        10        12     9      180.000000        5.066668         2
         8         9        10        12     9        0.000000        0.433294         3
         8         9        10        12     9      180.000000       -0.226781         4
         8         9        10        16     9        0.000000        0.367824         1
         8         9        10        16     9      180.000000        3.339939         2
         8         9        10        16     9        0.000000       -0.088259         3
         8         9        10        16     9      180.000000        0.087734         4
         9         8         7        30     9        0.000000       -0.102699         1
         9         8         7        30     9      180.000000       -0.300971         2
         9         8         7        30     9        0.000000       -0.124593         3
         9         8         7        30     9      180.000000        0.138565         4
         9         8         7        31     9        0.000000       -0.102699         1
         9         8         7        31     9      180.000000       -0.300971         2
         9         8         7        31     9        0.000000       -0.124593         3
         9         8         7        31     9      180.000000        0.138565         4
         9        10        12        13     9        0.000000        0.729424         1
         9        10        12        13     9      180.000000       25.135957         2
         9        10        12        13     9        0.000000        0.666756         3
         9        10        12        13     9      180.000000       -0.984798         4
         9        10        16        15     9        0.000000        0.162093         1
         9        10        16        15     9      180.000000       17.408671         2
         9        10        16        15     9        0.000000        0.303134         3
         9        10        16        15     9      180.000000       -0.718301         4
         9        10        16        29     9        0.000000        0.136361         1
         9        10        16        29     9      180.000000       13.172674         2
         9        10        16        29     9        0.000000       -0.091888         3
         9        10        16        29     9      180.000000        0.103766         4
        10         9         8        11     9        0.000000       -0.840616         1
        10         9         8        11     9      180.000000       10.078041         2
        10         9         8        11     9        0.000000       -0.175423         3
        10         9         8        11     9      180.000000       -0.208874         4
        10        12        13        14     9        0.000000        0.476446         1
        10        12        13        14     9      180.000000       19.589618         2
        10        12        13        14     9        0.000000        0.565011         3
        10        12        13        14     9      180.000000       -0.849501         4
        10        12        13        23     9        0.000000        1.407982         1
        10        12        13        23     9      180.000000       24.112847         2
        10        12        13        23     9        0.000000        1.396001         3
        10        12        13        23     9      180.000000       -1.069387         4
        10        16        15        14     9        0.000000       -0.221252         1
        10        16        15        14     9      180.000000       14.625500         2
        10        16        15        14     9        0.000000       -1.286572         3
        10        16        15        14     9      180.000000       -0.424418         4
        10        16        15        21     9        0.000000       -0.032765         1
        10        16        15        21     9      180.000000       15.756841         2
        10        16        15        21     9        0.000000       -0.068443         3
        10        16        15        21     9      180.000000       -0.595816         4
        11         8         7        30     9        0.000000        0.254810         1
        11         8         7        30     9      180.000000        0.012136         2
        11         8         7        30     9        0.000000        0.062568         3
        11         8         7        30     9      180.000000        0.093519         4
        11         8         7        31     9        0.000000        0.254810         1
        11         8         7        31     9      180.000000        0.012136         2
        11         8         7        31     9        0.000000        0.062568         3
        11         8         7        31     9      180.000000        0.093519         4
        11         8         9        32     9        0.000000        0.002604         1
        11         8         9        32     9      180.000000       10.503663         2
        11         8         9        32     9        0.000000        0.191503         3
        11         8         9        32     9      180.000000        1.053032         4
        12        10         9        32     9        0.000000        3.775225         1
        12        10         9        32     9      180.000000        3.730190         2
        12        10         9        32     9        0.000000        0.217135         3
        12        10         9        32     9      180.000000       -0.319752         4
        12        10        16        15     9        0.000000       -0.276971         1
        12        10        16        15     9      180.000000       15.879808         2
        12        10        16        15     9        0.000000       -0.476804         3
        12        10        16        15     9      180.000000       -0.553410         4
        12        10        16        29     9        0.000000       -0.030188         1
        12        10        16        29     9      180.000000       12.754568         2
        12        10        16        29     9        0.000000       -0.019747         3
        12        10        16        29     9      180.000000       -0.135447         4
        12        13        14        15     9        0.000000       -0.464193         1
        12        13        14        15     9      180.000000       10.843665         2
        12        13        14        15     9        0.000000       -0.719716         3
        12        13        14        15     9      180.000000       -0.177181         4
        12        13        14        22     9        0.000000       -1.010597         1
        12        13        14        22     9      180.000000       11.454980         2
        12        13        14        22     9        0.000000       -0.525839         3
        12        13        14        22     9      180.000000       -0.460776         4
        12        13        23        24     9        0.000000        0.617461         1
        12        13        23        24     9      180.000000        8.076115         2
        12        13        23        24     9        0.000000        0.395627         3
        12        13        23        24     9      180.000000       -0.107526         4
        13        12        10        16     9        0.000000        0.391586         1
        13        12        10        16     9      180.000000       19.181884         2
        13        12        10        16     9        0.000000       -0.650401         3
        13        12        10        16     9      180.000000       -0.397317         4
        13        14        15        16     9        0.000000       -0.059177         1
        13        14        15        16     9      180.000000       12.441163         2
        13        14        15        16     9        0.000000       -0.883492         3
        13        14        15        16     9      180.000000       -0.108281         4
        13        14        15        21     9        0.000000        0.162817         1
        13        14        15        21     9      180.000000       14.573308         2
        13        14        15        21     9        0.000000        0.064552         3
        13        14        15        21     9      180.000000       -0.573788         4
        13        14        22        26     9        0.000000        0.000000         1
        13        14        22        26     9      180.000000        0.000000         2
        13        14        22        26     9        0.000000        0.000000         3
        13        14        22        26     9      180.000000        0.000000         4
        13        23        24        25     9        0.000000       -1.993606         1
        13        23        24        25     9      180.000000       -0.102255         2
        13        23        24        25     9        0.000000        0.383118         3
        13        23        24        25     9      180.000000       -0.003528         4
        13        23        24        41     9        0.000000        0.956754         1
        13        23        24        41     9      180.000000        0.061545         2
        13        23        24        41     9        0.000000        0.289292         3
        13        23        24        41     9      180.000000        0.003639         4
        13        23        24        42     9        0.000000        0.956754         1
        13        23        24        42     9      180.000000        0.061545         2
        13        23        24        42     9        0.000000        0.289292         3
        13        23        24        42     9      180.000000        0.003639         4
        14        13        23        24     9        0.000000       -1.415060         1
        14        13        23        24     9      180.000000        8.116562         2
        14        13        23        24     9        0.000000       -0.151470         3
        14        13        23        24     9      180.000000        0.222166         4
        14        15        16        29     9        0.000000       -0.272436         1
        14        15        16        29     9      180.000000       12.226124         2
        14        15        16        29     9        0.000000       -0.402097         3
        14        15        16        29     9      180.000000        0.036569         4
        14        15        21        39     9        0.000000        2.241294         1
        14        15        21        39     9      180.000000        6.242563         2
        14        15        21        39     9        0.000000        0.140057         3
        14        15        21        39     9      180.000000       -0.272719         4
        14        15        21        40     9        0.000000        2.241294         1
        14        15        21        40     9      180.000000        6.242563         2
        14        15        21        40     9        0.000000        0.140057         3
        14        15        21        40     9      180.000000       -0.272719         4
        15        14        13        23     9        0.000000        0.454309         1
        15        14        13        23     9      180.000000       13.016494         2
        15        14        13        23     9        0.000000        0.720589         3
        15        14        13        23     9      180.000000       -0.398476         4
        15        14        22        26     9        0.000000        0.000000         1
        15        14        22        26     9      180.000000        0.000000         2
        15        14        22        26     9        0.000000        0.000000         3
        15        14        22        26     9      180.000000        0.000000         4
        16        10         9        32     9        0.000000        1.444114         1
        16        10         9        32     9      180.000000        4.745283         2
        16        10         9        32     9        0.000000        0.907973         3
        16        10         9        32     9      180.000000       -0.000219         4
        16        15        14        22     9        0.000000       -0.081142         1
        16        15        14        22     9      180.000000       12.977246         2
        16        15        14        22     9        0.000000       -0.318499         3
        16        15        14        22     9      180.000000       -0.132217         4
        16        15        21        39     9        0.000000       -0.117483         1
        16        15        21        39     9      180.000000        6.276046         2
        16        15        21        39     9        0.000000        0.013310         3
        16        15        21        39     9      180.000000       -0.224693         4
        16        15        21        40     9        0.000000       -0.117483         1
        16        15        21        40     9      180.000000        6.276046         2
        16        15        21        40     9        0.000000        0.013310         3
        16        15        21        40     9      180.000000       -0.224693         4
        17         5         4        28     9        0.000000        0.276828         1
        17         5         4        28     9      180.000000       14.312012         2
        17         5         4        28     9        0.000000       -0.040110         3
        17         5         4        28     9      180.000000        0.230600         4
        17         5         6        47     9        0.000000       -0.064378         1
        17         5         6        47     9      180.000000       18.532222         2
        17         5         6        47     9        0.000000        0.053118         3
        17         5         6        47     9      180.000000       -0.426770         4
        19         2         1        27     9        0.000000        0.337082         1
        19         2         1        27     9      180.000000       13.674633         2
        19         2         1        27     9        0.000000        0.050877         3
        19         2         1        27     9      180.000000        0.168616         4
        21        15        14        22     9        0.000000       -0.220864         1
        21        15        14        22     9      180.000000       15.158682         2
        21        15        14        22     9        0.000000       -0.153296         3
        21        15        14        22     9      180.000000       -0.573510         4
        21        15        16        29     9        0.000000       -0.174826         1
        21        15        16        29     9      180.000000       14.115709         2
        21        15        16        29     9        0.000000       -0.275957         3
        21        15        16        29     9      180.000000        0.045247         4
        22        14        13        23     9        0.000000       -0.306668         1
        22        14        13        23     9      180.000000       13.260946         2
        22        14        13        23     9        0.000000       -0.112285         3
        22        14        13        23     9      180.000000       -0.440224         4
        23        24        25        43     9        0.000000        0.188760         1
        23        24        25        43     9      180.000000        0.030055         2
        23        24        25        43     9        0.000000        0.544573         3
        23        24        25        43     9      180.000000        0.044186         4
        23        24        25        44     9        0.000000        0.188760         1
        23        24        25        44     9      180.000000        0.030055         2
        23        24        25        44     9        0.000000        0.544573         3
        23        24        25        44     9      180.000000        0.044186         4
        23        24        25        45     9        0.000000        0.188760         1
        23        24        25        45     9      180.000000        0.030055         2
        23        24        25        45     9        0.000000        0.544573         3
        23        24        25        45     9      180.000000        0.044186         4
        27         1         6        47     9        0.000000        0.154279         1
        27         1         6        47     9      180.000000       14.776940         2
        27         1         6        47     9        0.000000       -0.043203         3
        27         1         6        47     9      180.000000       -0.038946         4
        41        24        25        43     9        0.000000       -0.031410         1
        41        24        25        43     9      180.000000        0.011476         2
        41        24        25        43     9        0.000000        0.612781         3
        41        24        25        43     9      180.000000        0.005092         4
        41        24        25        44     9        0.000000       -0.031410         1
        41        24        25        44     9      180.000000        0.011476         2
        41        24        25        44     9        0.000000        0.612781         3
        41        24        25        44     9      180.000000        0.005092         4
        41        24        25        45     9        0.000000       -0.031410         1
        41        24        25        45     9      180.000000        0.011476         2
        41        24        25        45     9        0.000000        0.612781         3
        41        24        25        45     9      180.000000        0.005092         4
        42        24        25        43     9        0.000000       -0.031410         1
        42        24        25        43     9      180.000000        0.011476         2
        42        24        25        43     9        0.000000        0.612781         3
        42        24        25        43     9      180.000000        0.005092         4
        42        24        25        44     9        0.000000       -0.031410         1
        42        24        25        44     9      180.000000        0.011476         2
        42        24        25        44     9        0.000000        0.612781         3
        42        24        25        44     9      180.000000        0.005092         4
        42        24        25        45     9        0.000000       -0.031410         1
        42        24        25        45     9      180.000000        0.011476         2
        42        24        25        45     9        0.000000        0.612781         3
        42        24        25        45     9      180.000000        0.005092         4
        46        47        48        49     9        0.000000       -0.401478         1
        46        47        48        49     9      180.000000       10.545990         2
        46        47        48        49     9        0.000000        0.114331         3
        46        47        48        49     9      180.000000        0.652465         4
        46        47        48        50     9        0.000000        1.675475         1
        46        47        48        50     9      180.000000        8.580172         2
        46        47        48        50     9        0.000000       -0.357953         3
        46        47        48        50     9      180.000000        0.429152         4
        47        48        50        51     9        0.000000        0.013790         1
        47        48        50        51     9      180.000000       -0.024166         2
        47        48        50        51     9        0.000000       -0.171775         3
        47        48        50        51     9      180.000000        0.051886         4
        47        48        50        52     9        0.000000        0.013790         1
        47        48        50        52     9      180.000000       -0.024166         2
        47        48        50        52     9        0.000000       -0.171775         3
        47        48        50        52     9      180.000000        0.051886         4
        47        48        50        53     9        0.000000        0.013790         1
        47        48        50        53     9      180.000000       -0.024166         2
        47        48        50        53     9        0.000000       -0.171775         3
        47        48        50        53     9      180.000000        0.051886         4
        49        48        50        51     9        0.000000        0.022830         1
        49        48        50        51     9      180.000000        0.029188         2
        49        48        50        51     9        0.000000        0.169590         3
        49        48        50        51     9      180.000000       -0.008173         4
        49        48        50        52     9        0.000000        0.022830         1
        49        48        50        52     9      180.000000        0.029188         2
        49        48        50        52     9        0.000000        0.169590         3
        49        48        50        52     9      180.000000       -0.008173         4
        49        48        50        53     9        0.000000        0.022830         1
        49        48        50        53     9      180.000000        0.029188         2
        49        48        50        53     9        0.000000        0.169590         3
        49        48        50        53     9      180.000000       -0.008173         4

[ dihedrals ] ; impropers
;       ai        aj        ak        al funct           phase               k        pn
         8         7         9        11     4      180.000000       19.599548         2
         8         9        11         7     4      180.000000       19.599548         2
         8        11         7         9     4      180.000000       19.599548         2
        10         9        12        16     4      180.000000        2.711848         2
        10        12        16         9     4      180.000000        2.711848         2
        10        16         9        12     4      180.000000        2.711848         2
        13        12        14        23     4      180.000000       13.844208         2
        13        14        23        12     4      180.000000       13.844208         2
        13        23        12        14     4      180.000000       13.844208         2
        48        47        49        50     4      180.000000       27.893333         2
        48        49        50        47     4      180.000000       27.893333         2
        48        50        47        49     4      180.000000       27.893333         2

[ pairs ]
;       ai        aj funct
         1         4     1
         1         7     1
         1        17     1
         1        20     1
         1        46     1
         1        48     1
         2         5     1
         2         8     1
         2        28     1
         2        30     1
         2        31     1
         2        36     1
         2        37     1
         2        38     1
         2        47     1
         3         6     1
         3         9     1
         3        11     1
         3        17     1
         3        20     1
         3        27     1
         4         8     1
         4        18     1
         4        19     1
         4        30     1
         4        31     1
         4        47     1
         5         7     1
         5        27     1
         5        33     1
         5        34     1
         5        35     1
         5        46     1
         5        48     1
         6        18     1
         6        19     1
         6        28     1
         6        49     1
         6        50     1
         7        10     1
         7        19     1
         7        28     1
         7        32     1
         8        12     1
         8        16     1
         9        13     1
         9        15     1
         9        29     1
         9        30     1
         9        31     1
        10        11     1
        10        14     1
        10        21     1
        10        23     1
        11        30     1
        11        31     1
        11        32     1
        12        15     1
        12        22     1
        12        24     1
        12        29     1
        12        32     1
        13        16     1
        13        21     1
        13        25     1
        13        26     1
        13        41     1
        13        42     1
        14        24     1
        14        29     1
        14        39     1
        14        40     1
        15        23     1
        15        26     1
        16        22     1
        16        32     1
        16        39     1
        16        40     1
        17        28     1
        17        47     1
        19        27     1
        21        22     1
        21        29     1
        22        23     1
        23        43     1
        23        44     1
        23        45     1
        27        47     1
        41        43     1
        41        44     1
        41        45     1
        42        43     1
        42        44     1
        42        45     1
        46        49     1
        46        50     1
        47        51     1
        47        52     1
        47        53     1
        49        51     1
        49        52     1
        49        53     1
