; ITP file created by ByteFF-ML, 2026-02-21 08:17:52.151578

[ atomtypes ]
;name           bonded.type        at.num        mass        charge   ptype           sigma         epsilon
 c0bf                                   6      0.0000       0.00000       A     3.31373e-01     4.12804e-01
 c1bf                                   6      0.0000       0.00000       A     3.31386e-01     4.11842e-01
 c2bf                                   6      0.0000       0.00000       A     3.31408e-01     4.12747e-01
 c3bf                                   6      0.0000       0.00000       A     3.31454e-01     4.13235e-01
 c4bf                                   6      0.0000       0.00000       A     3.31522e-01     4.13042e-01
 c5bf                                   6      0.0000       0.00000       A     3.31441e-01     4.12705e-01
 c6bf                                   6      0.0000       0.00000       A     3.39774e-01     4.50778e-01
 c7bf                                   6      0.0000       0.00000       A     3.31952e-01     4.11459e-01
 n8bf                                   7      0.0000       0.00000       A     3.27441e-01     4.84508e-01
 c9bf                                   6      0.0000       0.00000       A     3.31413e-01     4.13526e-01
 o10bf                                  8      0.0000       0.00000       A     3.04535e-01     6.09762e-01
 n11bf                                  7      0.0000       0.00000       A     3.38247e-01     3.93466e-01
 c12bf                                  6      0.0000       0.00000       A     3.31399e-01     4.14453e-01
 c13bf                                  6      0.0000       0.00000       A     3.31540e-01     4.13015e-01
 c14bf                                  6      0.0000       0.00000       A     3.31393e-01     4.14643e-01
 c15bf                                  6      0.0000       0.00000       A     3.31576e-01     4.11459e-01
 n16bf                                  7      0.0000       0.00000       A     3.36513e-01     4.72176e-01
 c17bf                                  6      0.0000       0.00000       A     3.48265e-01     6.71656e-01
 o18bf                                  8      0.0000       0.00000       A     3.15904e-01     3.02254e-01
 c19bf                                  6      0.0000       0.00000       A     3.39748e-01     4.50578e-01
 c20bf                                  6      0.0000       0.00000       A     3.39811e-01     4.51198e-01
 n21bf                                  7      0.0000       0.00000       A     3.27372e-01     4.59322e-01
 h22bf                                  1      0.0000       0.00000       A     2.62556e-01     6.70812e-02
 h23bf                                  1      0.0000       0.00000       A     2.62514e-01     6.70126e-02
 h24bf                                  1      0.0000       0.00000       A     2.62420e-01     6.84395e-02
 h25bf                                  1      0.0000       0.00000       A     2.59916e-01     8.68693e-02
 h26bf                                  1      0.0000       0.00000       A     2.59916e-01     8.68693e-02
 h27bf                                  1      0.0000       0.00000       A     1.10312e-01     4.02784e-02
 h28bf                                  1      0.0000       0.00000       A     1.10467e-01     4.08370e-02
 h29bf                                  1      0.0000       0.00000       A     1.10467e-01     4.08370e-02
 h30bf                                  1      0.0000       0.00000       A     2.42216e-01     8.76162e-02
 h31bf                                  1      0.0000       0.00000       A     2.42216e-01     8.76162e-02
 h32bf                                  1      0.0000       0.00000       A     2.60028e-01     8.73433e-02
 h33bf                                  1      0.0000       0.00000       A     2.60028e-01     8.73433e-02
 h34bf                                  1      0.0000       0.00000       A     2.60028e-01     8.73433e-02
 h35bf                                  1      0.0000       0.00000       A     2.62551e-01     6.70844e-02
 br36bf                                35      0.0000       0.00000       A     3.61388e-01     1.64626e+00
 br37bf                                35      0.0000       0.00000       A     3.61257e-01     1.64730e+00

[ moleculetype ]
;name             nrexcl
 18636-1               3

[ atoms ]
;       nr            type      resi   res      atom      cgnr      charge          mass ; qtot
         1            c0bf         1   UNL        c0         1    -0.07857       12.0110 ; qtot   -0.079
         2            c1bf         1   UNL        c1         2     0.00118       12.0110 ; qtot   -0.077
         3            c2bf         1   UNL        c2         3    -0.05058       12.0110 ; qtot   -0.128
         4            c3bf         1   UNL        c3         4    -0.06701       12.0110 ; qtot   -0.195
         5            c4bf         1   UNL        c4         5    -0.00990       12.0110 ; qtot   -0.205
         6            c5bf         1   UNL        c5         6    -0.07620       12.0110 ; qtot   -0.281
         7            c6bf         1   UNL        c6         7    -0.11664       12.0110 ; qtot   -0.398
         8            c7bf         1   UNL        c7         8     0.61406       12.0110 ; qtot    0.216
         9            n8bf         1   UNL        n8         9    -0.33063       14.0070 ; qtot   -0.114
        10            c9bf         1   UNL        c9        10     0.55391       12.0110 ; qtot    0.440
        11           o10bf         1   UNL       o10        11    -0.56513       15.9990 ; qtot   -0.126
        12           n11bf         1   UNL       n11        12    -0.80694       14.0070 ; qtot   -0.932
        13           c12bf         1   UNL       c12        13     0.68635       12.0110 ; qtot   -0.246
        14           c13bf         1   UNL       c13        14    -0.21375       12.0110 ; qtot   -0.460
        15           c14bf         1   UNL       c14        15     0.41091       12.0110 ; qtot   -0.049
        16           c15bf         1   UNL       c15        16    -0.27787       12.0110 ; qtot   -0.327
        17           n16bf         1   UNL       n16        17    -1.06403       14.0070 ; qtot   -1.391
        18           c17bf         1   UNL       c17        18     0.34585       12.0110 ; qtot   -1.045
        19           o18bf         1   UNL       o18        19    -0.45337       15.9990 ; qtot   -1.498
        20           c19bf         1   UNL       c19        20     0.16982       12.0110 ; qtot   -1.329
        21           c20bf         1   UNL       c20        21    -0.11089       12.0110 ; qtot   -1.439
        22           n21bf         1   UNL       n21        22    -0.46684       14.0070 ; qtot   -1.906
        23           h22bf         1   UNL       h22        23     0.13512        1.0080 ; qtot   -1.771
        24           h23bf         1   UNL       h23        24     0.13933        1.0080 ; qtot   -1.632
        25           h24bf         1   UNL       h24        25     0.14532        1.0080 ; qtot   -1.486
        26           h25bf         1   UNL       h25        26     0.08511        1.0080 ; qtot   -1.401
        27           h26bf         1   UNL       h26        27     0.08511        1.0080 ; qtot   -1.316
        28           h27bf         1   UNL       h27        28     0.18700        1.0080 ; qtot   -1.129
        29           h28bf         1   UNL       h28        29     0.47013        1.0080 ; qtot   -0.659
        30           h29bf         1   UNL       h29        30     0.47013        1.0080 ; qtot   -0.189
        31           h30bf         1   UNL       h30        31     0.05579        1.0080 ; qtot   -0.133
        32           h31bf         1   UNL       h31        32     0.05579        1.0080 ; qtot   -0.077
        33           h32bf         1   UNL       h32        33     0.04682        1.0080 ; qtot   -0.031
        34           h33bf         1   UNL       h33        34     0.04682        1.0080 ; qtot    0.016
        35           h34bf         1   UNL       h34        35     0.04682        1.0080 ; qtot    0.063
        36           h35bf         1   UNL       h35        36     0.13563        1.0080 ; qtot    0.199
        37          br36bf         1   UNL      br36        37    -0.09590       79.9040 ; qtot    0.103
        38          br37bf         1   UNL      br37        38    -0.10275       79.9040 ; qtot    0.000

[ bonds ]
;       ai        aj funct               r               k
         1         2     1        0.139655   300937.213379
         1         6     1        0.139647   310225.264355
         1        23     1        0.108438   325428.527051
         2         3     1        0.140260   273543.351855
         2        38     1        0.192396   113874.567383
         3         4     1        0.140386   285451.229346
         3         7     1        0.151221   194950.637720
         4         5     1        0.139347   308833.594043
         4        24     1        0.108446   323570.293750
         5         6     1        0.139472   301906.244531
         5        37     1        0.191585   122307.763623
         6        36     1        0.108432   326466.406250
         7         8     1        0.153685   153012.153857
         7        26     1        0.109222   303531.783691
         7        27     1        0.109222   303531.783691
         8         9     1        0.137757   255662.191260
         8        11     1        0.122582   622676.036719
         9        10     1        0.140262   244903.560303
         9        28     1        0.101492   411234.644629
        10        12     1        0.134337   290399.835938
        10        16     1        0.139793   287882.362158
        12        13     1        0.132782   320066.244824
        13        14     1        0.141642   254795.895898
        13        19     1        0.134197   294966.407373
        14        15     1        0.141738   266111.669971
        14        18     1        0.142491   274099.473486
        15        16     1        0.140563   289985.828320
        15        17     1        0.137314   326218.977197
        16        25     1        0.108281   327746.760303
        17        29     1        0.101134   424950.575000
        17        30     1        0.101134   424950.575000
        18        22     1        0.116699  1087197.077734
        19        20     1        0.145397   160633.589233
        20        21     1        0.152033   202700.460913
        20        31     1        0.109268   302644.241455
        20        32     1        0.109268   302644.241455
        21        33     1        0.109353   303559.900049
        21        34     1        0.109353   303559.874512
        21        35     1        0.109353   303559.900049

[ angles ]
;       ai        aj        ak funct           theta             cth
         1         2         3     1      121.791298      654.010862
         1         2        38     1      117.405678      336.949198
         1         6         5     1      118.625244      619.496437
         1         6        36     1      120.417824      418.105238
         2         1         6     1      119.886963      631.186304
         2         1        23     1      120.128761      386.327849
         2         3         4     1      117.522079      647.467680
         2         3         7     1      123.186142      431.367042
         3         2        38     1      120.599449      296.119446
         3         4         5     1      120.694374      631.636970
         3         4        24     1      119.235924      366.929924
         3         7         8     1      113.391701      599.721968
         3         7        26     1      110.291542      482.780074
         3         7        27     1      110.291542      482.780074
         4         3         7     1      119.182472      466.548879
         4         5         6     1      121.212204      672.723562
         4         5        37     1      119.299500      343.122252
         5         4        24     1      119.941895      381.091815
         5         6        36     1      120.887802      400.773202
         6         1        23     1      120.009460      416.230208
         6         5        37     1      119.471481      318.566725
         7         8         9     1      114.195419      486.026543
         7         8        11     1      121.038918      487.568633
         8         7        26     1      106.847328      533.649645
         8         7        27     1      106.847328      533.649645
         8         9        10     1      129.011520      535.238660
         8         9        28     1      116.780067      438.191324
         9         8        11     1      124.654617      643.941324
         9        10        12     1      113.758102      582.256947
         9        10        16     1      121.951126      485.345213
        10         9        28     1      113.534424      449.375907
        10        12        13     1      118.304611      775.603190
        10        16        15     1      118.613724      856.851419
        10        16        25     1      120.376297      450.317237
        12        10        16     1      123.825233      554.462740
        12        13        14     1      123.571457      555.125747
        12        13        19     1      119.755508      555.194953
        13        14        15     1      117.943260      836.313518
        13        14        18     1      121.655991      569.704181
        13        19        20     1      118.239761      524.626714
        14        13        19     1      116.527588      485.761468
        14        15        16     1      117.811523      640.006247
        14        15        17     1      121.165848      573.180356
        14        18        22     1      176.858093      167.360000
        15        14        18     1      119.587364      527.335786
        15        16        25     1      120.382790      424.889171
        15        17        29     1      117.595009      461.050995
        15        17        30     1      117.595009      461.050995
        16        15        17     1      121.074852      515.527076
        19        20        21     1      109.218674      641.639409
        19        20        31     1      107.597557      461.944347
        19        20        32     1      107.597557      461.944347
        20        21        33     1      110.391464      492.871382
        20        21        34     1      110.391464      492.871382
        20        21        35     1      110.391464      492.871382
        21        20        31     1      111.604774      489.853694
        21        20        32     1      111.604774      489.853694
        26         7        27     1      107.502663      356.106563
        29        17        30     1      114.641884      341.475906
        31        20        32     1      108.699196      339.590023
        33        21        34     1      108.539650      361.992803
        33        21        35     1      108.539650      361.992803
        34        21        35     1      108.539650      361.992803

[ dihedrals ] ; propers for gromacs 4.5 or higher, use funct 9
;       ai        aj        ak        al funct           phase               k        pn
         1         2         3         4     9        0.000000       -0.198039         1
         1         2         3         4     9      180.000000       17.748902         2
         1         2         3         4     9        0.000000       -1.161803         3
         1         2         3         4     9      180.000000       -0.483729         4
         1         2         3         7     9        0.000000        0.124000         1
         1         2         3         7     9      180.000000       13.595954         2
         1         2         3         7     9        0.000000       -0.000539         3
         1         2         3         7     9      180.000000       -0.198510         4
         1         6         5         4     9        0.000000       -0.144632         1
         1         6         5         4     9      180.000000       18.404968         2
         1         6         5         4     9        0.000000       -1.335142         3
         1         6         5         4     9      180.000000       -0.482578         4
         1         6         5        37     9        0.000000        0.486040         1
         1         6         5        37     9      180.000000       18.065133         2
         1         6         5        37     9        0.000000        0.376138         3
         1         6         5        37     9      180.000000       -0.532305         4
         2         1         6         5     9        0.000000       -0.102003         1
         2         1         6         5     9      180.000000       18.738476         2
         2         1         6         5     9        0.000000       -1.560172         3
         2         1         6         5     9      180.000000       -0.469766         4
         2         1         6        36     9        0.000000        0.023764         1
         2         1         6        36     9      180.000000       14.319242         2
         2         1         6        36     9        0.000000       -0.638529         3
         2         1         6        36     9      180.000000        0.099492         4
         2         3         4         5     9        0.000000       -0.050429         1
         2         3         4         5     9      180.000000       19.283670         2
         2         3         4         5     9        0.000000       -1.241658         3
         2         3         4         5     9      180.000000       -0.624618         4
         2         3         4        24     9        0.000000       -0.034293         1
         2         3         4        24     9      180.000000       14.491105         2
         2         3         4        24     9        0.000000       -0.590111         3
         2         3         4        24     9      180.000000        0.127290         4
         2         3         7         8     9        0.000000        1.523038         1
         2         3         7         8     9      180.000000       -0.959577         2
         2         3         7         8     9        0.000000        0.474812         3
         2         3         7         8     9      180.000000       -0.040046         4
         2         3         7        26     9        0.000000       -0.434619         1
         2         3         7        26     9      180.000000        0.178374         2
         2         3         7        26     9        0.000000        0.301457         3
         2         3         7        26     9      180.000000        0.054900         4
         2         3         7        27     9        0.000000       -0.434619         1
         2         3         7        27     9      180.000000        0.178374         2
         2         3         7        27     9        0.000000        0.301457         3
         2         3         7        27     9      180.000000        0.054900         4
         3         2         1         6     9        0.000000        0.090473         1
         3         2         1         6     9      180.000000       18.245814         2
         3         2         1         6     9        0.000000       -1.250695         3
         3         2         1         6     9      180.000000       -0.471276         4
         3         2         1        23     9        0.000000       -0.023518         1
         3         2         1        23     9      180.000000       13.906166         2
         3         2         1        23     9        0.000000       -0.438818         3
         3         2         1        23     9      180.000000        0.076886         4
         3         4         5         6     9        0.000000       -0.007832         1
         3         4         5         6     9      180.000000       17.803072         2
         3         4         5         6     9        0.000000       -1.298345         3
         3         4         5         6     9      180.000000       -0.475144         4
         3         4         5        37     9        0.000000        0.424220         1
         3         4         5        37     9      180.000000       17.400948         2
         3         4         5        37     9        0.000000        0.251396         3
         3         4         5        37     9      180.000000       -0.485947         4
         3         7         8         9     9        0.000000        0.206079         1
         3         7         8         9     9      180.000000        1.551669         2
         3         7         8         9     9        0.000000        0.011636         3
         3         7         8         9     9      180.000000       -0.039821         4
         3         7         8        11     9        0.000000       -2.593469         1
         3         7         8        11     9      180.000000        0.848917         2
         3         7         8        11     9        0.000000       -0.107066         3
         3         7         8        11     9      180.000000       -0.006050         4
         4         3         2        38     9        0.000000        0.359296         1
         4         3         2        38     9      180.000000       17.622082         2
         4         3         2        38     9        0.000000        0.465279         3
         4         3         2        38     9      180.000000       -0.618007         4
         4         3         7         8     9        0.000000       -0.693923         1
         4         3         7         8     9      180.000000       -0.141977         2
         4         3         7         8     9        0.000000       -0.292070         3
         4         3         7         8     9      180.000000        0.095666         4
         4         3         7        26     9        0.000000        0.372444         1
         4         3         7        26     9      180.000000        0.040017         2
         4         3         7        26     9        0.000000       -0.260310         3
         4         3         7        26     9      180.000000        0.005401         4
         4         3         7        27     9        0.000000        0.372444         1
         4         3         7        27     9      180.000000        0.040017         2
         4         3         7        27     9        0.000000       -0.260310         3
         4         3         7        27     9      180.000000        0.005401         4
         4         5         6        36     9        0.000000       -0.032158         1
         4         5         6        36     9      180.000000       13.924968         2
         4         5         6        36     9        0.000000       -0.624414         3
         4         5         6        36     9      180.000000        0.105782         4
         5         4         3         7     9        0.000000        0.067050         1
         5         4         3         7     9      180.000000       16.620697         2
         5         4         3         7     9        0.000000       -0.073963         3
         5         4         3         7     9      180.000000       -0.434389         4
         5         6         1        23     9        0.000000        0.006336         1
         5         6         1        23     9      180.000000       14.391786         2
         5         6         1        23     9        0.000000       -0.600081         3
         5         6         1        23     9      180.000000        0.126012         4
         6         1         2        38     9        0.000000        0.449502         1
         6         1         2        38     9      180.000000       19.049092         2
         6         1         2        38     9        0.000000        0.435111         3
         6         1         2        38     9      180.000000       -0.601680         4
         6         5         4        24     9        0.000000        0.028190         1
         6         5         4        24     9      180.000000       13.698734         2
         6         5         4        24     9        0.000000       -0.599384         3
         6         5         4        24     9      180.000000        0.059950         4
         7         3         2        38     9        0.000000        0.104965         1
         7         3         2        38     9      180.000000       14.801801         2
         7         3         2        38     9        0.000000        0.108305         3
         7         3         2        38     9      180.000000       -0.501614         4
         7         3         4        24     9        0.000000       -0.056195         1
         7         3         4        24     9      180.000000       13.363815         2
         7         3         4        24     9        0.000000       -0.425623         3
         7         3         4        24     9      180.000000        0.135767         4
         7         8         9        10     9        0.000000        0.828678         1
         7         8         9        10     9      180.000000        9.596920         2
         7         8         9        10     9        0.000000        0.401397         3
         7         8         9        10     9      180.000000       -0.731062         4
         7         8         9        28     9        0.000000        1.663374         1
         7         8         9        28     9      180.000000        9.991113         2
         7         8         9        28     9        0.000000        0.277670         3
         7         8         9        28     9      180.000000        0.507598         4
         8         9        10        12     9        0.000000       -2.469634         1
         8         9        10        12     9      180.000000        5.022827         2
         8         9        10        12     9        0.000000        0.478977         3
         8         9        10        12     9      180.000000       -0.236000         4
         8         9        10        16     9        0.000000        0.503431         1
         8         9        10        16     9      180.000000        3.254276         2
         8         9        10        16     9        0.000000       -0.077994         3
         8         9        10        16     9      180.000000        0.104138         4
         9         8         7        26     9        0.000000       -0.114560         1
         9         8         7        26     9      180.000000       -0.197095         2
         9         8         7        26     9        0.000000       -0.110367         3
         9         8         7        26     9      180.000000        0.133146         4
         9         8         7        27     9        0.000000       -0.114560         1
         9         8         7        27     9      180.000000       -0.197095         2
         9         8         7        27     9        0.000000       -0.110367         3
         9         8         7        27     9      180.000000        0.133146         4
         9        10        12        13     9        0.000000        0.729424         1
         9        10        12        13     9      180.000000       25.135957         2
         9        10        12        13     9        0.000000        0.666756         3
         9        10        12        13     9      180.000000       -0.984798         4
         9        10        16        15     9        0.000000        0.162093         1
         9        10        16        15     9      180.000000       17.408671         2
         9        10        16        15     9        0.000000        0.303134         3
         9        10        16        15     9      180.000000       -0.718301         4
         9        10        16        25     9        0.000000        0.136361         1
         9        10        16        25     9      180.000000       13.172674         2
         9        10        16        25     9        0.000000       -0.091888         3
         9        10        16        25     9      180.000000        0.103766         4
        10         9         8        11     9        0.000000       -0.880025         1
        10         9         8        11     9      180.000000       10.076268         2
        10         9         8        11     9        0.000000       -0.208467         3
        10         9         8        11     9      180.000000       -0.195977         4
        10        12        13        14     9        0.000000        0.476446         1
        10        12        13        14     9      180.000000       19.589618         2
        10        12        13        14     9        0.000000        0.565011         3
        10        12        13        14     9      180.000000       -0.849501         4
        10        12        13        19     9        0.000000        1.407982         1
        10        12        13        19     9      180.000000       24.112847         2
        10        12        13        19     9        0.000000        1.396001         3
        10        12        13        19     9      180.000000       -1.069387         4
        10        16        15        14     9        0.000000       -0.221252         1
        10        16        15        14     9      180.000000       14.625500         2
        10        16        15        14     9        0.000000       -1.286572         3
        10        16        15        14     9      180.000000       -0.424418         4
        10        16        15        17     9        0.000000       -0.032765         1
        10        16        15        17     9      180.000000       15.756841         2
        10        16        15        17     9        0.000000       -0.068443         3
        10        16        15        17     9      180.000000       -0.595816         4
        11         8         7        26     9        0.000000        0.220395         1
        11         8         7        26     9      180.000000        0.064448         2
        11         8         7        26     9        0.000000        0.037245         3
        11         8         7        26     9      180.000000        0.107794         4
        11         8         7        27     9        0.000000        0.220395         1
        11         8         7        27     9      180.000000        0.064448         2
        11         8         7        27     9        0.000000        0.037245         3
        11         8         7        27     9      180.000000        0.107794         4
        11         8         9        28     9        0.000000       -0.020957         1
        11         8         9        28     9      180.000000       10.472443         2
        11         8         9        28     9        0.000000        0.160273         3
        11         8         9        28     9      180.000000        1.056586         4
        12        10         9        28     9        0.000000        3.775225         1
        12        10         9        28     9      180.000000        3.730190         2
        12        10         9        28     9        0.000000        0.217135         3
        12        10         9        28     9      180.000000       -0.319752         4
        12        10        16        15     9        0.000000       -0.276971         1
        12        10        16        15     9      180.000000       15.879808         2
        12        10        16        15     9        0.000000       -0.476804         3
        12        10        16        15     9      180.000000       -0.553410         4
        12        10        16        25     9        0.000000       -0.030188         1
        12        10        16        25     9      180.000000       12.754568         2
        12        10        16        25     9        0.000000       -0.019747         3
        12        10        16        25     9      180.000000       -0.135447         4
        12        13        14        15     9        0.000000       -0.464193         1
        12        13        14        15     9      180.000000       10.843665         2
        12        13        14        15     9        0.000000       -0.719716         3
        12        13        14        15     9      180.000000       -0.177181         4
        12        13        14        18     9        0.000000       -1.010597         1
        12        13        14        18     9      180.000000       11.454980         2
        12        13        14        18     9        0.000000       -0.525839         3
        12        13        14        18     9      180.000000       -0.460776         4
        12        13        19        20     9        0.000000        0.617461         1
        12        13        19        20     9      180.000000        8.076115         2
        12        13        19        20     9        0.000000        0.395627         3
        12        13        19        20     9      180.000000       -0.107526         4
        13        12        10        16     9        0.000000        0.391586         1
        13        12        10        16     9      180.000000       19.181884         2
        13        12        10        16     9        0.000000       -0.650401         3
        13        12        10        16     9      180.000000       -0.397317         4
        13        14        15        16     9        0.000000       -0.059177         1
        13        14        15        16     9      180.000000       12.441163         2
        13        14        15        16     9        0.000000       -0.883492         3
        13        14        15        16     9      180.000000       -0.108281         4
        13        14        15        17     9        0.000000        0.162817         1
        13        14        15        17     9      180.000000       14.573308         2
        13        14        15        17     9        0.000000        0.064552         3
        13        14        15        17     9      180.000000       -0.573788         4
        13        14        18        22     9        0.000000        0.000000         1
        13        14        18        22     9      180.000000        0.000000         2
        13        14        18        22     9        0.000000        0.000000         3
        13        14        18        22     9      180.000000        0.000000         4
        13        19        20        21     9        0.000000       -1.993607         1
        13        19        20        21     9      180.000000       -0.102255         2
        13        19        20        21     9        0.000000        0.383118         3
        13        19        20        21     9      180.000000       -0.003527         4
        13        19        20        31     9        0.000000        0.956754         1
        13        19        20        31     9      180.000000        0.061545         2
        13        19        20        31     9        0.000000        0.289292         3
        13        19        20        31     9      180.000000        0.003639         4
        13        19        20        32     9        0.000000        0.956754         1
        13        19        20        32     9      180.000000        0.061545         2
        13        19        20        32     9        0.000000        0.289292         3
        13        19        20        32     9      180.000000        0.003639         4
        14        13        19        20     9        0.000000       -1.415060         1
        14        13        19        20     9      180.000000        8.116562         2
        14        13        19        20     9        0.000000       -0.151470         3
        14        13        19        20     9      180.000000        0.222166         4
        14        15        16        25     9        0.000000       -0.272436         1
        14        15        16        25     9      180.000000       12.226124         2
        14        15        16        25     9        0.000000       -0.402097         3
        14        15        16        25     9      180.000000        0.036569         4
        14        15        17        29     9        0.000000        2.241294         1
        14        15        17        29     9      180.000000        6.242563         2
        14        15        17        29     9        0.000000        0.140057         3
        14        15        17        29     9      180.000000       -0.272719         4
        14        15        17        30     9        0.000000        2.241293         1
        14        15        17        30     9      180.000000        6.242563         2
        14        15        17        30     9        0.000000        0.140057         3
        14        15        17        30     9      180.000000       -0.272719         4
        15        14        13        19     9        0.000000        0.454309         1
        15        14        13        19     9      180.000000       13.016494         2
        15        14        13        19     9        0.000000        0.720589         3
        15        14        13        19     9      180.000000       -0.398476         4
        15        14        18        22     9        0.000000        0.000000         1
        15        14        18        22     9      180.000000        0.000000         2
        15        14        18        22     9        0.000000        0.000000         3
        15        14        18        22     9      180.000000        0.000000         4
        16        10         9        28     9        0.000000        1.444114         1
        16        10         9        28     9      180.000000        4.745283         2
        16        10         9        28     9        0.000000        0.907973         3
        16        10         9        28     9      180.000000       -0.000219         4
        16        15        14        18     9        0.000000       -0.081142         1
        16        15        14        18     9      180.000000       12.977246         2
        16        15        14        18     9        0.000000       -0.318499         3
        16        15        14        18     9      180.000000       -0.132217         4
        16        15        17        29     9        0.000000       -0.117483         1
        16        15        17        29     9      180.000000        6.276046         2
        16        15        17        29     9        0.000000        0.013310         3
        16        15        17        29     9      180.000000       -0.224693         4
        16        15        17        30     9        0.000000       -0.117483         1
        16        15        17        30     9      180.000000        6.276046         2
        16        15        17        30     9        0.000000        0.013310         3
        16        15        17        30     9      180.000000       -0.224693         4
        17        15        14        18     9        0.000000       -0.220864         1
        17        15        14        18     9      180.000000       15.158682         2
        17        15        14        18     9        0.000000       -0.153296         3
        17        15        14        18     9      180.000000       -0.573510         4
        17        15        16        25     9        0.000000       -0.174826         1
        17        15        16        25     9      180.000000       14.115709         2
        17        15        16        25     9        0.000000       -0.275957         3
        17        15        16        25     9      180.000000        0.045247         4
        18        14        13        19     9        0.000000       -0.306668         1
        18        14        13        19     9      180.000000       13.260946         2
        18        14        13        19     9        0.000000       -0.112285         3
        18        14        13        19     9      180.000000       -0.440224         4
        19        20        21        33     9        0.000000        0.188760         1
        19        20        21        33     9      180.000000        0.030056         2
        19        20        21        33     9        0.000000        0.544573         3
        19        20        21        33     9      180.000000        0.044186         4
        19        20        21        34     9        0.000000        0.188760         1
        19        20        21        34     9      180.000000        0.030056         2
        19        20        21        34     9        0.000000        0.544573         3
        19        20        21        34     9      180.000000        0.044186         4
        19        20        21        35     9        0.000000        0.188760         1
        19        20        21        35     9      180.000000        0.030056         2
        19        20        21        35     9        0.000000        0.544573         3
        19        20        21        35     9      180.000000        0.044186         4
        23         1         2        38     9        0.000000        0.071915         1
        23         1         2        38     9      180.000000       13.512302         2
        23         1         2        38     9        0.000000       -0.001530         3
        23         1         2        38     9      180.000000        0.207243         4
        23         1         6        36     9        0.000000       -0.203122         1
        23         1         6        36     9      180.000000       11.977088         2
        23         1         6        36     9        0.000000       -0.701494         3
        23         1         6        36     9      180.000000        0.286407         4
        24         4         5        37     9        0.000000        0.036153         1
        24         4         5        37     9      180.000000       13.142212         2
        24         4         5        37     9        0.000000       -0.115318         3
        24         4         5        37     9      180.000000        0.124335         4
        31        20        21        33     9        0.000000       -0.031410         1
        31        20        21        33     9      180.000000        0.011477         2
        31        20        21        33     9        0.000000        0.612781         3
        31        20        21        33     9      180.000000        0.005092         4
        31        20        21        34     9        0.000000       -0.031410         1
        31        20        21        34     9      180.000000        0.011477         2
        31        20        21        34     9        0.000000        0.612781         3
        31        20        21        34     9      180.000000        0.005092         4
        31        20        21        35     9        0.000000       -0.031410         1
        31        20        21        35     9      180.000000        0.011477         2
        31        20        21        35     9        0.000000        0.612781         3
        31        20        21        35     9      180.000000        0.005092         4
        32        20        21        33     9        0.000000       -0.031410         1
        32        20        21        33     9      180.000000        0.011477         2
        32        20        21        33     9        0.000000        0.612781         3
        32        20        21        33     9      180.000000        0.005092         4
        32        20        21        34     9        0.000000       -0.031410         1
        32        20        21        34     9      180.000000        0.011477         2
        32        20        21        34     9        0.000000        0.612781         3
        32        20        21        34     9      180.000000        0.005092         4
        32        20        21        35     9        0.000000       -0.031410         1
        32        20        21        35     9      180.000000        0.011477         2
        32        20        21        35     9        0.000000        0.612781         3
        32        20        21        35     9      180.000000        0.005092         4
        36         6         5        37     9        0.000000        0.145705         1
        36         6         5        37     9      180.000000       12.818000         2
        36         6         5        37     9        0.000000       -0.059805         3
        36         6         5        37     9      180.000000        0.181116         4

[ dihedrals ] ; impropers
;       ai        aj        ak        al funct           phase               k        pn
         1         2         6        23     4      180.000000        2.339275         2
         1         6        23         2     4      180.000000        2.339275         2
         1        23         2         6     4      180.000000        2.339275         2
         4         3         5        24     4      180.000000        0.699519         2
         4         5        24         3     4      180.000000        0.699519         2
         4        24         3         5     4      180.000000        0.699519         2
         8         7         9        11     4      180.000000       16.749503         2
         8         9        11         7     4      180.000000       16.749503         2
         8        11         7         9     4      180.000000       16.749503         2
        10         9        12        16     4      180.000000        2.711848         2
        10        12        16         9     4      180.000000        2.711848         2
        10        16         9        12     4      180.000000        2.711848         2
        13        12        14        19     4      180.000000       13.844207         2
        13        14        19        12     4      180.000000       13.844207         2
        13        19        12        14     4      180.000000       13.844207         2

[ pairs ]
;       ai        aj funct
         1         4     1
         1         7     1
         1        37     1
         2         5     1
         2         8     1
         2        24     1
         2        26     1
         2        27     1
         2        36     1
         3         6     1
         3         9     1
         3        11     1
         3        23     1
         3        37     1
         4         8     1
         4        26     1
         4        27     1
         4        36     1
         4        38     1
         5         7     1
         5        23     1
         6        24     1
         6        38     1
         7        10     1
         7        24     1
         7        28     1
         7        38     1
         8        12     1
         8        16     1
         9        13     1
         9        15     1
         9        25     1
         9        26     1
         9        27     1
        10        11     1
        10        14     1
        10        17     1
        10        19     1
        11        26     1
        11        27     1
        11        28     1
        12        15     1
        12        18     1
        12        20     1
        12        25     1
        12        28     1
        13        16     1
        13        17     1
        13        21     1
        13        22     1
        13        31     1
        13        32     1
        14        20     1
        14        25     1
        14        29     1
        14        30     1
        15        19     1
        15        22     1
        16        18     1
        16        28     1
        16        29     1
        16        30     1
        17        18     1
        17        25     1
        18        19     1
        19        33     1
        19        34     1
        19        35     1
        23        36     1
        23        38     1
        24        37     1
        31        33     1
        31        34     1
        31        35     1
        32        33     1
        32        34     1
        32        35     1
        36        37     1
