; ITP file created by ByteFF-ML, 2026-02-21 08:17:03.545717

[ atomtypes ]
;name           bonded.type        at.num        mass        charge   ptype           sigma         epsilon
 c0bf                                   6      0.0000       0.00000       A     3.31483e-01     4.13438e-01
 c1bf                                   6      0.0000       0.00000       A     3.31601e-01     4.13205e-01
 c2bf                                   6      0.0000       0.00000       A     3.31599e-01     4.12973e-01
 c3bf                                   6      0.0000       0.00000       A     3.31431e-01     4.12412e-01
 c4bf                                   6      0.0000       0.00000       A     3.31507e-01     4.12613e-01
 c5bf                                   6      0.0000       0.00000       A     3.31503e-01     4.13098e-01
 c6bf                                   6      0.0000       0.00000       A     3.39440e-01     4.49188e-01
 c7bf                                   6      0.0000       0.00000       A     3.31923e-01     4.11321e-01
 n8bf                                   7      0.0000       0.00000       A     3.27441e-01     4.84508e-01
 c9bf                                   6      0.0000       0.00000       A     3.31413e-01     4.13526e-01
 o10bf                                  8      0.0000       0.00000       A     3.04535e-01     6.09762e-01
 n11bf                                  7      0.0000       0.00000       A     3.38247e-01     3.93466e-01
 c12bf                                  6      0.0000       0.00000       A     3.31399e-01     4.14453e-01
 c13bf                                  6      0.0000       0.00000       A     3.31540e-01     4.13015e-01
 c14bf                                  6      0.0000       0.00000       A     3.31393e-01     4.14643e-01
 c15bf                                  6      0.0000       0.00000       A     3.31576e-01     4.11459e-01
 n16bf                                  7      0.0000       0.00000       A     3.36513e-01     4.72176e-01
 c17bf                                  6      0.0000       0.00000       A     3.48265e-01     6.71656e-01
 o18bf                                  8      0.0000       0.00000       A     3.15904e-01     3.02254e-01
 c19bf                                  6      0.0000       0.00000       A     3.39748e-01     4.50578e-01
 c20bf                                  6      0.0000       0.00000       A     3.39811e-01     4.51198e-01
 n21bf                                  7      0.0000       0.00000       A     3.27372e-01     4.59322e-01
 h22bf                                  1      0.0000       0.00000       A     2.62493e-01     6.74451e-02
 h23bf                                  1      0.0000       0.00000       A     2.62435e-01     6.76526e-02
 h24bf                                  1      0.0000       0.00000       A     2.62420e-01     6.84395e-02
 h25bf                                  1      0.0000       0.00000       A     2.60204e-01     8.64750e-02
 h26bf                                  1      0.0000       0.00000       A     2.60204e-01     8.64750e-02
 h27bf                                  1      0.0000       0.00000       A     1.10312e-01     4.02784e-02
 h28bf                                  1      0.0000       0.00000       A     1.10467e-01     4.08370e-02
 h29bf                                  1      0.0000       0.00000       A     1.10467e-01     4.08370e-02
 h30bf                                  1      0.0000       0.00000       A     2.42216e-01     8.76162e-02
 h31bf                                  1      0.0000       0.00000       A     2.42216e-01     8.76162e-02
 h32bf                                  1      0.0000       0.00000       A     2.60028e-01     8.73433e-02
 h33bf                                  1      0.0000       0.00000       A     2.60028e-01     8.73433e-02
 h34bf                                  1      0.0000       0.00000       A     2.60028e-01     8.73433e-02
 c35bf                                  6      0.0000       0.00000       A     3.39809e-01     4.50666e-01
 h36bf                                  1      0.0000       0.00000       A     2.59993e-01     8.72348e-02
 h37bf                                  1      0.0000       0.00000       A     2.59993e-01     8.72348e-02
 h38bf                                  1      0.0000       0.00000       A     2.59993e-01     8.72348e-02
 c39bf                                  6      0.0000       0.00000       A     3.39807e-01     4.50388e-01
 h40bf                                  1      0.0000       0.00000       A     2.59994e-01     8.72380e-02
 h41bf                                  1      0.0000       0.00000       A     2.59994e-01     8.72380e-02
 h42bf                                  1      0.0000       0.00000       A     2.59994e-01     8.72380e-02
 h43bf                                  1      0.0000       0.00000       A     2.62498e-01     6.73334e-02

[ moleculetype ]
;name             nrexcl
 18635-1               3

[ atoms ]
;       nr            type      resi   res      atom      cgnr      charge          mass ; qtot
         1            c0bf         1   UNL        c0         1    -0.11076       12.0110 ; qtot   -0.111
         2            c1bf         1   UNL        c1         2    -0.06688       12.0110 ; qtot   -0.178
         3            c2bf         1   UNL        c2         3    -0.08899       12.0110 ; qtot   -0.267
         4            c3bf         1   UNL        c3         4    -0.09917       12.0110 ; qtot   -0.366
         5            c4bf         1   UNL        c4         5    -0.08387       12.0110 ; qtot   -0.450
         6            c5bf         1   UNL        c5         6    -0.10579       12.0110 ; qtot   -0.555
         7            c6bf         1   UNL        c6         7    -0.10986       12.0110 ; qtot   -0.665
         8            c7bf         1   UNL        c7         8     0.61363       12.0110 ; qtot   -0.052
         9            n8bf         1   UNL        n8         9    -0.33155       14.0070 ; qtot   -0.383
        10            c9bf         1   UNL        c9        10     0.55391       12.0110 ; qtot    0.171
        11           o10bf         1   UNL       o10        11    -0.56806       15.9990 ; qtot   -0.397
        12           n11bf         1   UNL       n11        12    -0.80694       14.0070 ; qtot   -1.204
        13           c12bf         1   UNL       c12        13     0.68635       12.0110 ; qtot   -0.518
        14           c13bf         1   UNL       c13        14    -0.21375       12.0110 ; qtot   -0.732
        15           c14bf         1   UNL       c14        15     0.41091       12.0110 ; qtot   -0.321
        16           c15bf         1   UNL       c15        16    -0.27787       12.0110 ; qtot   -0.599
        17           n16bf         1   UNL       n16        17    -1.06403       14.0070 ; qtot   -1.663
        18           c17bf         1   UNL       c17        18     0.34585       12.0110 ; qtot   -1.317
        19           o18bf         1   UNL       o18        19    -0.45337       15.9990 ; qtot   -1.770
        20           c19bf         1   UNL       c19        20     0.16982       12.0110 ; qtot   -1.600
        21           c20bf         1   UNL       c20        21    -0.11089       12.0110 ; qtot   -1.711
        22           n21bf         1   UNL       n21        22    -0.46684       14.0070 ; qtot   -2.178
        23           h22bf         1   UNL       h22        23     0.11117        1.0080 ; qtot   -2.067
        24           h23bf         1   UNL       h23        24     0.11446        1.0080 ; qtot   -1.953
        25           h24bf         1   UNL       h24        25     0.14532        1.0080 ; qtot   -1.807
        26           h25bf         1   UNL       h25        26     0.07581        1.0080 ; qtot   -1.731
        27           h26bf         1   UNL       h26        27     0.07581        1.0080 ; qtot   -1.656
        28           h27bf         1   UNL       h27        28     0.18700        1.0080 ; qtot   -1.469
        29           h28bf         1   UNL       h28        29     0.47013        1.0080 ; qtot   -0.998
        30           h29bf         1   UNL       h29        30     0.47013        1.0080 ; qtot   -0.528
        31           h30bf         1   UNL       h30        31     0.05579        1.0080 ; qtot   -0.473
        32           h31bf         1   UNL       h31        32     0.05579        1.0080 ; qtot   -0.417
        33           h32bf         1   UNL       h32        33     0.04682        1.0080 ; qtot   -0.370
        34           h33bf         1   UNL       h33        34     0.04682        1.0080 ; qtot   -0.323
        35           h34bf         1   UNL       h34        35     0.04682        1.0080 ; qtot   -0.276
        36           c35bf         1   UNL       c35        36    -0.04663       12.0110 ; qtot   -0.323
        37           h36bf         1   UNL       h36        37     0.04296        1.0080 ; qtot   -0.280
        38           h37bf         1   UNL       h37        38     0.04296        1.0080 ; qtot   -0.237
        39           h38bf         1   UNL       h38        39     0.04296        1.0080 ; qtot   -0.194
        40           c39bf         1   UNL       c39        40    -0.04865       12.0110 ; qtot   -0.243
        41           h40bf         1   UNL       h40        41     0.04371        1.0080 ; qtot   -0.199
        42           h41bf         1   UNL       h41        42     0.04371        1.0080 ; qtot   -0.155
        43           h42bf         1   UNL       h42        43     0.04371        1.0080 ; qtot   -0.112
        44           h43bf         1   UNL       h43        44     0.11155        1.0080 ; qtot   -0.000

[ bonds ]
;       ai        aj funct               r               k
         1         2     1        0.140127   294725.260449
         1         6     1        0.139773   310280.756494
         1        23     1        0.108751   313837.590625
         2         3     1        0.141121   266044.456299
         2        40     1        0.151253   201992.304102
         3         4     1        0.140132   292351.535059
         3         7     1        0.151455   191518.003320
         4         5     1        0.140064   296122.676611
         4        24     1        0.108774   312248.007715
         5         6     1        0.140035   294988.420361
         5        36     1        0.151174   205730.528320
         6        44     1        0.108762   314167.734375
         7         8     1        0.153549   154436.077539
         7        26     1        0.109360   299174.131348
         7        27     1        0.109360   299174.131348
         8         9     1        0.137896   252338.587549
         8        11     1        0.122613   621533.302148
         9        10     1        0.140262   244903.560303
         9        28     1        0.101492   411234.644629
        10        12     1        0.134337   290399.835938
        10        16     1        0.139793   287882.362158
        12        13     1        0.132782   320066.244824
        13        14     1        0.141642   254795.895898
        13        19     1        0.134197   294966.407373
        14        15     1        0.141738   266111.669971
        14        18     1        0.142491   274099.473486
        15        16     1        0.140563   289985.828320
        15        17     1        0.137314   326218.977197
        16        25     1        0.108281   327746.760303
        17        29     1        0.101134   424950.575000
        17        30     1        0.101134   424950.575000
        18        22     1        0.116699  1087197.077734
        19        20     1        0.145397   160633.589233
        20        21     1        0.152033   202700.460913
        20        31     1        0.109268   302644.241455
        20        32     1        0.109268   302644.241455
        21        33     1        0.109353   303559.874512
        21        34     1        0.109353   303559.874512
        21        35     1        0.109353   303559.874512
        36        37     1        0.109461   298772.790137
        36        38     1        0.109461   298772.790137
        36        39     1        0.109461   298772.790137
        40        41     1        0.109417   299296.096582
        40        42     1        0.109417   299296.096582
        40        43     1        0.109417   299296.096582

[ angles ]
;       ai        aj        ak funct           theta             cth
         1         2         3     1      118.060928      699.604051
         1         2        40     1      119.984024      457.037646
         1         6         5     1      120.498825      695.002455
         1         6        44     1      119.657669      433.708795
         2         1         6     1      121.728516      690.264108
         2         1        23     1      119.095810      387.389107
         2         3         4     1      119.603012      721.899990
         2         3         7     1      121.206100      476.851060
         2        40        41     1      111.390625      475.826255
         2        40        42     1      111.390625      475.826255
         2        40        43     1      111.390625      475.826255
         3         2        40     1      121.798866      435.050898
         3         4         5     1      122.333755      680.982135
         3         4        24     1      118.744583      382.928444
         3         7         8     1      115.573318      580.029600
         3         7        26     1      110.769531      482.490420
         3         7        27     1      110.769531      482.490420
         4         3         7     1      119.165909      472.528042
         4         5         6     1      117.750160      715.377876
         4         5        36     1      120.933983      471.021959
         5         4        24     1      118.985619      398.432885
         5         6        44     1      119.815903      403.512759
         5        36        37     1      111.277283      478.974470
         5        36        38     1      111.277283      478.974470
         5        36        39     1      111.277283      478.974470
         6         1        23     1      119.272194      429.031929
         6         5        36     1      121.305222      454.214264
         7         8         9     1      114.285690      484.573194
         7         8        11     1      120.967636      496.462698
         8         7        26     1      106.038292      542.495540
         8         7        27     1      106.038292      542.495540
         8         9        10     1      129.067429      531.387153
         8         9        28     1      116.716324      435.333498
         9         8        11     1      124.433823      646.261115
         9        10        12     1      113.758102      582.256947
         9        10        16     1      121.951126      485.345213
        10         9        28     1      113.534424      449.375907
        10        12        13     1      118.304626      775.603190
        10        16        15     1      118.613724      856.851419
        10        16        25     1      120.376305      450.317237
        12        10        16     1      123.825233      554.462868
        12        13        14     1      123.571449      555.125811
        12        13        19     1      119.755508      555.194953
        13        14        15     1      117.943275      836.313646
        13        14        18     1      121.656006      569.704117
        13        19        20     1      118.239746      524.626714
        14        13        19     1      116.527573      485.761532
        14        15        16     1      117.811523      640.006247
        14        15        17     1      121.165833      573.180356
        14        18        22     1      176.858093      167.360000
        15        14        18     1      119.587379      527.335786
        15        16        25     1      120.382774      424.889235
        15        17        29     1      117.595009      461.050995
        15        17        30     1      117.595009      461.050995
        16        15        17     1      121.074852      515.527140
        19        20        21     1      109.218674      641.639409
        19        20        31     1      107.597557      461.944347
        19        20        32     1      107.597557      461.944347
        20        21        33     1      110.391464      492.871382
        20        21        34     1      110.391464      492.871382
        20        21        35     1      110.391464      492.871382
        21        20        31     1      111.604774      489.853758
        21        20        32     1      111.604774      489.853758
        26         7        27     1      106.984230      359.087063
        29        17        30     1      114.641884      341.475906
        31        20        32     1      108.699196      339.590023
        33        21        34     1      108.539650      361.992771
        33        21        35     1      108.539650      361.992771
        34        21        35     1      108.539650      361.992803
        37        36        38     1      107.629349      360.727439
        37        36        39     1      107.629349      360.727439
        38        36        39     1      107.629349      360.727439
        41        40        42     1      107.500046      360.895729
        41        40        43     1      107.500046      360.895729
        42        40        43     1      107.500046      360.895729

[ dihedrals ] ; propers for gromacs 4.5 or higher, use funct 9
;       ai        aj        ak        al funct           phase               k        pn
         1         2         3         4     9        0.000000       -0.162272         1
         1         2         3         4     9      180.000000       18.724311         2
         1         2         3         4     9        0.000000       -1.193146         3
         1         2         3         4     9      180.000000       -0.584884         4
         1         2         3         7     9        0.000000        0.177150         1
         1         2         3         7     9      180.000000       14.530400         2
         1         2         3         7     9        0.000000       -0.102383         3
         1         2         3         7     9      180.000000       -0.171129         4
         1         2        40        41     9        0.000000       -0.022711         1
         1         2        40        41     9      180.000000        0.018828         2
         1         2        40        41     9        0.000000        0.033983         3
         1         2        40        41     9      180.000000        0.002376         4
         1         2        40        42     9        0.000000       -0.022711         1
         1         2        40        42     9      180.000000        0.018828         2
         1         2        40        42     9        0.000000        0.033983         3
         1         2        40        42     9      180.000000        0.002376         4
         1         2        40        43     9        0.000000       -0.022711         1
         1         2        40        43     9      180.000000        0.018828         2
         1         2        40        43     9        0.000000        0.033983         3
         1         2        40        43     9      180.000000        0.002376         4
         1         6         5         4     9        0.000000       -0.052579         1
         1         6         5         4     9      180.000000       19.107978         2
         1         6         5         4     9        0.000000       -1.581813         3
         1         6         5         4     9      180.000000       -0.475909         4
         1         6         5        36     9        0.000000        0.097079         1
         1         6         5        36     9      180.000000       15.775575         2
         1         6         5        36     9        0.000000       -0.199921         3
         1         6         5        36     9      180.000000       -0.135853         4
         2         1         6         5     9        0.000000        0.004385         1
         2         1         6         5     9      180.000000       18.070358         2
         2         1         6         5     9        0.000000       -1.531660         3
         2         1         6         5     9      180.000000       -0.411276         4
         2         1         6        44     9        0.000000        0.025816         1
         2         1         6        44     9      180.000000       14.405880         2
         2         1         6        44     9        0.000000       -0.637795         3
         2         1         6        44     9      180.000000        0.118669         4
         2         3         4         5     9        0.000000       -0.013749         1
         2         3         4         5     9      180.000000       19.145388         2
         2         3         4         5     9        0.000000       -1.324480         3
         2         3         4         5     9      180.000000       -0.572484         4
         2         3         4        24     9        0.000000       -0.062117         1
         2         3         4        24     9      180.000000       15.021165         2
         2         3         4        24     9        0.000000       -0.520610         3
         2         3         4        24     9      180.000000       -0.000595         4
         2         3         7         8     9        0.000000        0.452189         1
         2         3         7         8     9      180.000000       -0.980532         2
         2         3         7         8     9        0.000000        0.355381         3
         2         3         7         8     9      180.000000        0.079520         4
         2         3         7        26     9        0.000000       -0.143917         1
         2         3         7        26     9      180.000000        0.147732         2
         2         3         7        26     9        0.000000        0.282660         3
         2         3         7        26     9      180.000000       -0.016155         4
         2         3         7        27     9        0.000000       -0.143917         1
         2         3         7        27     9      180.000000        0.147732         2
         2         3         7        27     9        0.000000        0.282660         3
         2         3         7        27     9      180.000000       -0.016155         4
         3         2         1         6     9        0.000000        0.123182         1
         3         2         1         6     9      180.000000       19.124113         2
         3         2         1         6     9        0.000000       -1.399143         3
         3         2         1         6     9      180.000000       -0.509308         4
         3         2         1        23     9        0.000000        0.029356         1
         3         2         1        23     9      180.000000       15.086212         2
         3         2         1        23     9        0.000000       -0.540950         3
         3         2         1        23     9      180.000000       -0.007006         4
         3         2        40        41     9        0.000000        0.004395         1
         3         2        40        41     9      180.000000        0.014202         2
         3         2        40        41     9        0.000000        0.370308         3
         3         2        40        41     9      180.000000        0.020515         4
         3         2        40        42     9        0.000000        0.004395         1
         3         2        40        42     9      180.000000        0.014202         2
         3         2        40        42     9        0.000000        0.370308         3
         3         2        40        42     9      180.000000        0.020515         4
         3         2        40        43     9        0.000000        0.004395         1
         3         2        40        43     9      180.000000        0.014202         2
         3         2        40        43     9        0.000000        0.370308         3
         3         2        40        43     9      180.000000        0.020515         4
         3         4         5         6     9        0.000000        0.071645         1
         3         4         5         6     9      180.000000       18.775894         2
         3         4         5         6     9        0.000000       -1.395161         3
         3         4         5         6     9      180.000000       -0.483778         4
         3         4         5        36     9        0.000000        0.074034         1
         3         4         5        36     9      180.000000       15.073329         2
         3         4         5        36     9        0.000000       -0.190547         3
         3         4         5        36     9      180.000000       -0.137938         4
         3         7         8         9     9        0.000000        0.140959         1
         3         7         8         9     9      180.000000        0.420236         2
         3         7         8         9     9        0.000000        0.128469         3
         3         7         8         9     9      180.000000        0.036944         4
         3         7         8        11     9        0.000000       -4.256036         1
         3         7         8        11     9      180.000000        0.341340         2
         3         7         8        11     9        0.000000       -0.037954         3
         3         7         8        11     9      180.000000        0.029316         4
         4         3         2        40     9        0.000000        0.002283         1
         4         3         2        40     9      180.000000       16.113530         2
         4         3         2        40     9        0.000000       -0.240310         3
         4         3         2        40     9      180.000000       -0.300701         4
         4         3         7         8     9        0.000000       -0.504506         1
         4         3         7         8     9      180.000000       -0.644400         2
         4         3         7         8     9        0.000000       -0.122038         3
         4         3         7         8     9      180.000000        0.115784         4
         4         3         7        26     9        0.000000        0.265783         1
         4         3         7        26     9      180.000000        0.164794         2
         4         3         7        26     9        0.000000       -0.189784         3
         4         3         7        26     9      180.000000       -0.018129         4
         4         3         7        27     9        0.000000        0.265783         1
         4         3         7        27     9      180.000000        0.164794         2
         4         3         7        27     9        0.000000       -0.189784         3
         4         3         7        27     9      180.000000       -0.018129         4
         4         5         6        44     9        0.000000       -0.058973         1
         4         5         6        44     9      180.000000       14.680199         2
         4         5         6        44     9        0.000000       -0.562842         3
         4         5         6        44     9      180.000000        0.092622         4
         4         5        36        37     9        0.000000       -0.032450         1
         4         5        36        37     9      180.000000        0.009669         2
         4         5        36        37     9        0.000000       -0.007713         3
         4         5        36        37     9      180.000000        0.009239         4
         4         5        36        38     9        0.000000       -0.032450         1
         4         5        36        38     9      180.000000        0.009669         2
         4         5        36        38     9        0.000000       -0.007713         3
         4         5        36        38     9      180.000000        0.009239         4
         4         5        36        39     9        0.000000       -0.032450         1
         4         5        36        39     9      180.000000        0.009669         2
         4         5        36        39     9        0.000000       -0.007713         3
         4         5        36        39     9      180.000000        0.009239         4
         5         4         3         7     9        0.000000        0.188820         1
         5         4         3         7     9      180.000000       15.929698         2
         5         4         3         7     9        0.000000       -0.143750         3
         5         4         3         7     9      180.000000       -0.260480         4
         5         6         1        23     9        0.000000        0.047225         1
         5         6         1        23     9      180.000000       14.042279         2
         5         6         1        23     9        0.000000       -0.757443         3
         5         6         1        23     9      180.000000        0.181758         4
         6         1         2        40     9        0.000000        0.115976         1
         6         1         2        40     9      180.000000       16.966750         2
         6         1         2        40     9        0.000000       -0.233158         3
         6         1         2        40     9      180.000000       -0.264501         4
         6         5         4        24     9        0.000000       -0.029333         1
         6         5         4        24     9      180.000000       14.481209         2
         6         5         4        24     9        0.000000       -0.507137         3
         6         5         4        24     9      180.000000        0.065447         4
         6         5        36        37     9        0.000000       -0.024913         1
         6         5        36        37     9      180.000000        0.011899         2
         6         5        36        37     9        0.000000       -0.024124         3
         6         5        36        37     9      180.000000        0.000536         4
         6         5        36        38     9        0.000000       -0.024913         1
         6         5        36        38     9      180.000000        0.011899         2
         6         5        36        38     9        0.000000       -0.024124         3
         6         5        36        38     9      180.000000        0.000536         4
         6         5        36        39     9        0.000000       -0.024913         1
         6         5        36        39     9      180.000000        0.011899         2
         6         5        36        39     9        0.000000       -0.024124         3
         6         5        36        39     9      180.000000        0.000536         4
         7         3         2        40     9        0.000000       -0.026607         1
         7         3         2        40     9      180.000000       15.127112         2
         7         3         2        40     9        0.000000       -0.186346         3
         7         3         2        40     9      180.000000       -0.273769         4
         7         3         4        24     9        0.000000       -0.174728         1
         7         3         4        24     9      180.000000       13.007114         2
         7         3         4        24     9        0.000000       -0.413939         3
         7         3         4        24     9      180.000000        0.211264         4
         7         8         9        10     9        0.000000        0.830092         1
         7         8         9        10     9      180.000000        9.248767         2
         7         8         9        10     9        0.000000        0.348489         3
         7         8         9        10     9      180.000000       -0.716811         4
         7         8         9        28     9        0.000000        1.650779         1
         7         8         9        28     9      180.000000        9.253823         2
         7         8         9        28     9        0.000000        0.268057         3
         7         8         9        28     9      180.000000        0.473671         4
         8         9        10        12     9        0.000000       -2.811179         1
         8         9        10        12     9      180.000000        5.172796         2
         8         9        10        12     9        0.000000        0.483768         3
         8         9        10        12     9      180.000000       -0.256774         4
         8         9        10        16     9        0.000000        0.559718         1
         8         9        10        16     9      180.000000        3.337274         2
         8         9        10        16     9        0.000000       -0.056924         3
         8         9        10        16     9      180.000000        0.081513         4
         9         8         7        26     9        0.000000       -0.090007         1
         9         8         7        26     9      180.000000       -0.123891         2
         9         8         7        26     9        0.000000       -0.088366         3
         9         8         7        26     9      180.000000        0.102626         4
         9         8         7        27     9        0.000000       -0.090007         1
         9         8         7        27     9      180.000000       -0.123891         2
         9         8         7        27     9        0.000000       -0.088366         3
         9         8         7        27     9      180.000000        0.102626         4
         9        10        12        13     9        0.000000        0.729424         1
         9        10        12        13     9      180.000000       25.135957         2
         9        10        12        13     9        0.000000        0.666756         3
         9        10        12        13     9      180.000000       -0.984798         4
         9        10        16        15     9        0.000000        0.162093         1
         9        10        16        15     9      180.000000       17.408671         2
         9        10        16        15     9        0.000000        0.303134         3
         9        10        16        15     9      180.000000       -0.718301         4
         9        10        16        25     9        0.000000        0.136361         1
         9        10        16        25     9      180.000000       13.172674         2
         9        10        16        25     9        0.000000       -0.091888         3
         9        10        16        25     9      180.000000        0.103766         4
        10         9         8        11     9        0.000000       -0.818157         1
        10         9         8        11     9      180.000000        9.908724         2
        10         9         8        11     9        0.000000       -0.167908         3
        10         9         8        11     9      180.000000       -0.169372         4
        10        12        13        14     9        0.000000        0.476446         1
        10        12        13        14     9      180.000000       19.589618         2
        10        12        13        14     9        0.000000        0.565011         3
        10        12        13        14     9      180.000000       -0.849501         4
        10        12        13        19     9        0.000000        1.407982         1
        10        12        13        19     9      180.000000       24.112847         2
        10        12        13        19     9        0.000000        1.396001         3
        10        12        13        19     9      180.000000       -1.069387         4
        10        16        15        14     9        0.000000       -0.221252         1
        10        16        15        14     9      180.000000       14.625500         2
        10        16        15        14     9        0.000000       -1.286572         3
        10        16        15        14     9      180.000000       -0.424418         4
        10        16        15        17     9        0.000000       -0.032765         1
        10        16        15        17     9      180.000000       15.756841         2
        10        16        15        17     9        0.000000       -0.068443         3
        10        16        15        17     9      180.000000       -0.595816         4
        11         8         7        26     9        0.000000        0.314738         1
        11         8         7        26     9      180.000000        0.099247         2
        11         8         7        26     9        0.000000        0.073443         3
        11         8         7        26     9      180.000000        0.099752         4
        11         8         7        27     9        0.000000        0.314738         1
        11         8         7        27     9      180.000000        0.099247         2
        11         8         7        27     9        0.000000        0.073443         3
        11         8         7        27     9      180.000000        0.099752         4
        11         8         9        28     9        0.000000       -0.050958         1
        11         8         9        28     9      180.000000       10.374389         2
        11         8         9        28     9        0.000000        0.189860         3
        11         8         9        28     9      180.000000        1.076819         4
        12        10         9        28     9        0.000000        3.775225         1
        12        10         9        28     9      180.000000        3.730190         2
        12        10         9        28     9        0.000000        0.217135         3
        12        10         9        28     9      180.000000       -0.319752         4
        12        10        16        15     9        0.000000       -0.276971         1
        12        10        16        15     9      180.000000       15.879808         2
        12        10        16        15     9        0.000000       -0.476804         3
        12        10        16        15     9      180.000000       -0.553410         4
        12        10        16        25     9        0.000000       -0.030188         1
        12        10        16        25     9      180.000000       12.754568         2
        12        10        16        25     9        0.000000       -0.019747         3
        12        10        16        25     9      180.000000       -0.135447         4
        12        13        14        15     9        0.000000       -0.464193         1
        12        13        14        15     9      180.000000       10.843665         2
        12        13        14        15     9        0.000000       -0.719716         3
        12        13        14        15     9      180.000000       -0.177181         4
        12        13        14        18     9        0.000000       -1.010597         1
        12        13        14        18     9      180.000000       11.454980         2
        12        13        14        18     9        0.000000       -0.525839         3
        12        13        14        18     9      180.000000       -0.460776         4
        12        13        19        20     9        0.000000        0.617461         1
        12        13        19        20     9      180.000000        8.076115         2
        12        13        19        20     9        0.000000        0.395627         3
        12        13        19        20     9      180.000000       -0.107526         4
        13        12        10        16     9        0.000000        0.391586         1
        13        12        10        16     9      180.000000       19.181884         2
        13        12        10        16     9        0.000000       -0.650401         3
        13        12        10        16     9      180.000000       -0.397317         4
        13        14        15        16     9        0.000000       -0.059177         1
        13        14        15        16     9      180.000000       12.441163         2
        13        14        15        16     9        0.000000       -0.883492         3
        13        14        15        16     9      180.000000       -0.108281         4
        13        14        15        17     9        0.000000        0.162817         1
        13        14        15        17     9      180.000000       14.573308         2
        13        14        15        17     9        0.000000        0.064552         3
        13        14        15        17     9      180.000000       -0.573788         4
        13        14        18        22     9        0.000000        0.000000         1
        13        14        18        22     9      180.000000        0.000000         2
        13        14        18        22     9        0.000000        0.000000         3
        13        14        18        22     9      180.000000        0.000000         4
        13        19        20        21     9        0.000000       -1.993606         1
        13        19        20        21     9      180.000000       -0.102255         2
        13        19        20        21     9        0.000000        0.383118         3
        13        19        20        21     9      180.000000       -0.003528         4
        13        19        20        31     9        0.000000        0.956755         1
        13        19        20        31     9      180.000000        0.061545         2
        13        19        20        31     9        0.000000        0.289292         3
        13        19        20        31     9      180.000000        0.003639         4
        13        19        20        32     9        0.000000        0.956755         1
        13        19        20        32     9      180.000000        0.061545         2
        13        19        20        32     9        0.000000        0.289292         3
        13        19        20        32     9      180.000000        0.003639         4
        14        13        19        20     9        0.000000       -1.415060         1
        14        13        19        20     9      180.000000        8.116562         2
        14        13        19        20     9        0.000000       -0.151470         3
        14        13        19        20     9      180.000000        0.222166         4
        14        15        16        25     9        0.000000       -0.272436         1
        14        15        16        25     9      180.000000       12.226124         2
        14        15        16        25     9        0.000000       -0.402097         3
        14        15        16        25     9      180.000000        0.036569         4
        14        15        17        29     9        0.000000        2.241294         1
        14        15        17        29     9      180.000000        6.242563         2
        14        15        17        29     9        0.000000        0.140057         3
        14        15        17        29     9      180.000000       -0.272719         4
        14        15        17        30     9        0.000000        2.241294         1
        14        15        17        30     9      180.000000        6.242563         2
        14        15        17        30     9        0.000000        0.140057         3
        14        15        17        30     9      180.000000       -0.272719         4
        15        14        13        19     9        0.000000        0.454309         1
        15        14        13        19     9      180.000000       13.016494         2
        15        14        13        19     9        0.000000        0.720589         3
        15        14        13        19     9      180.000000       -0.398476         4
        15        14        18        22     9        0.000000        0.000000         1
        15        14        18        22     9      180.000000        0.000000         2
        15        14        18        22     9        0.000000        0.000000         3
        15        14        18        22     9      180.000000        0.000000         4
        16        10         9        28     9        0.000000        1.444114         1
        16        10         9        28     9      180.000000        4.745283         2
        16        10         9        28     9        0.000000        0.907973         3
        16        10         9        28     9      180.000000       -0.000219         4
        16        15        14        18     9        0.000000       -0.081142         1
        16        15        14        18     9      180.000000       12.977246         2
        16        15        14        18     9        0.000000       -0.318499         3
        16        15        14        18     9      180.000000       -0.132217         4
        16        15        17        29     9        0.000000       -0.117483         1
        16        15        17        29     9      180.000000        6.276046         2
        16        15        17        29     9        0.000000        0.013310         3
        16        15        17        29     9      180.000000       -0.224693         4
        16        15        17        30     9        0.000000       -0.117483         1
        16        15        17        30     9      180.000000        6.276046         2
        16        15        17        30     9        0.000000        0.013310         3
        16        15        17        30     9      180.000000       -0.224693         4
        17        15        14        18     9        0.000000       -0.220864         1
        17        15        14        18     9      180.000000       15.158682         2
        17        15        14        18     9        0.000000       -0.153296         3
        17        15        14        18     9      180.000000       -0.573510         4
        17        15        16        25     9        0.000000       -0.174826         1
        17        15        16        25     9      180.000000       14.115709         2
        17        15        16        25     9        0.000000       -0.275957         3
        17        15        16        25     9      180.000000        0.045247         4
        18        14        13        19     9        0.000000       -0.306668         1
        18        14        13        19     9      180.000000       13.260946         2
        18        14        13        19     9        0.000000       -0.112285         3
        18        14        13        19     9      180.000000       -0.440224         4
        19        20        21        33     9        0.000000        0.188760         1
        19        20        21        33     9      180.000000        0.030055         2
        19        20        21        33     9        0.000000        0.544573         3
        19        20        21        33     9      180.000000        0.044186         4
        19        20        21        34     9        0.000000        0.188760         1
        19        20        21        34     9      180.000000        0.030055         2
        19        20        21        34     9        0.000000        0.544573         3
        19        20        21        34     9      180.000000        0.044186         4
        19        20        21        35     9        0.000000        0.188760         1
        19        20        21        35     9      180.000000        0.030055         2
        19        20        21        35     9        0.000000        0.544573         3
        19        20        21        35     9      180.000000        0.044186         4
        23         1         2        40     9        0.000000       -0.157831         1
        23         1         2        40     9      180.000000       13.564706         2
        23         1         2        40     9        0.000000       -0.499187         3
        23         1         2        40     9      180.000000        0.228981         4
        23         1         6        44     9        0.000000       -0.319545         1
        23         1         6        44     9      180.000000       10.750850         2
        23         1         6        44     9        0.000000       -0.529615         3
        23         1         6        44     9      180.000000        0.257862         4
        24         4         5        36     9        0.000000       -0.160729         1
        24         4         5        36     9      180.000000       12.953252         2
        24         4         5        36     9        0.000000       -0.433067         3
        24         4         5        36     9      180.000000        0.280445         4
        31        20        21        33     9        0.000000       -0.031410         1
        31        20        21        33     9      180.000000        0.011477         2
        31        20        21        33     9        0.000000        0.612781         3
        31        20        21        33     9      180.000000        0.005092         4
        31        20        21        34     9        0.000000       -0.031410         1
        31        20        21        34     9      180.000000        0.011475         2
        31        20        21        34     9        0.000000        0.612781         3
        31        20        21        34     9      180.000000        0.005092         4
        31        20        21        35     9        0.000000       -0.031410         1
        31        20        21        35     9      180.000000        0.011475         2
        31        20        21        35     9        0.000000        0.612781         3
        31        20        21        35     9      180.000000        0.005092         4
        32        20        21        33     9        0.000000       -0.031410         1
        32        20        21        33     9      180.000000        0.011477         2
        32        20        21        33     9        0.000000        0.612781         3
        32        20        21        33     9      180.000000        0.005092         4
        32        20        21        34     9        0.000000       -0.031410         1
        32        20        21        34     9      180.000000        0.011475         2
        32        20        21        34     9        0.000000        0.612781         3
        32        20        21        34     9      180.000000        0.005092         4
        32        20        21        35     9        0.000000       -0.031410         1
        32        20        21        35     9      180.000000        0.011475         2
        32        20        21        35     9        0.000000        0.612781         3
        32        20        21        35     9      180.000000        0.005092         4
        36         5         6        44     9        0.000000       -0.190463         1
        36         5         6        44     9      180.000000       12.834998         2
        36         5         6        44     9        0.000000       -0.423792         3
        36         5         6        44     9      180.000000        0.264241         4

[ dihedrals ] ; impropers
;       ai        aj        ak        al funct           phase               k        pn
         1         2         6        23     4      180.000000        3.705968         2
         1         6        23         2     4      180.000000        3.705968         2
         1        23         2         6     4      180.000000        3.705968         2
         4         3         5        24     4      180.000000        1.683628         2
         4         5        24         3     4      180.000000        1.683628         2
         4        24         3         5     4      180.000000        1.683628         2
         6         1         5        44     4      180.000000        2.266785         2
         6         5        44         1     4      180.000000        2.266785         2
         6        44         1         5     4      180.000000        2.266785         2
         8         7         9        11     4      180.000000       17.613522         2
         8         9        11         7     4      180.000000       17.613522         2
         8        11         7         9     4      180.000000       17.613522         2
        10         9        12        16     4      180.000000        2.711848         2
        10        12        16         9     4      180.000000        2.711848         2
        10        16         9        12     4      180.000000        2.711848         2
        13        12        14        19     4      180.000000       13.844207         2
        13        14        19        12     4      180.000000       13.844207         2
        13        19        12        14     4      180.000000       13.844207         2

[ pairs ]
;       ai        aj funct
         1         4     1
         1         7     1
         1        36     1
         1        41     1
         1        42     1
         1        43     1
         2         5     1
         2         8     1
         2        24     1
         2        26     1
         2        27     1
         2        44     1
         3         6     1
         3         9     1
         3        11     1
         3        23     1
         3        36     1
         3        41     1
         3        42     1
         3        43     1
         4         8     1
         4        26     1
         4        27     1
         4        37     1
         4        38     1
         4        39     1
         4        40     1
         4        44     1
         5         7     1
         5        23     1
         6        24     1
         6        37     1
         6        38     1
         6        39     1
         6        40     1
         7        10     1
         7        24     1
         7        28     1
         7        40     1
         8        12     1
         8        16     1
         9        13     1
         9        15     1
         9        25     1
         9        26     1
         9        27     1
        10        11     1
        10        14     1
        10        17     1
        10        19     1
        11        26     1
        11        27     1
        11        28     1
        12        15     1
        12        18     1
        12        20     1
        12        25     1
        12        28     1
        13        16     1
        13        17     1
        13        21     1
        13        22     1
        13        31     1
        13        32     1
        14        20     1
        14        25     1
        14        29     1
        14        30     1
        15        19     1
        15        22     1
        16        18     1
        16        28     1
        16        29     1
        16        30     1
        17        18     1
        17        25     1
        18        19     1
        19        33     1
        19        34     1
        19        35     1
        23        40     1
        23        44     1
        24        36     1
        31        33     1
        31        34     1
        31        35     1
        32        33     1
        32        34     1
        32        35     1
        36        44     1
