; ITP file created by ByteFF-ML, 2026-02-21 08:16:58.345881

[ atomtypes ]
;name           bonded.type        at.num        mass        charge   ptype           sigma         epsilon
 c0bf                                   6      0.0000       0.00000       A     3.31367e-01     4.14217e-01
 c1bf                                   6      0.0000       0.00000       A     3.31482e-01     4.14488e-01
 c2bf                                   6      0.0000       0.00000       A     3.31335e-01     4.14006e-01
 c3bf                                   6      0.0000       0.00000       A     3.31731e-01     4.15267e-01
 c4bf                                   6      0.0000       0.00000       A     3.31275e-01     4.16504e-01
 c5bf                                   6      0.0000       0.00000       A     3.31564e-01     4.15736e-01
 c6bf                                   6      0.0000       0.00000       A     3.39655e-01     4.49447e-01
 c7bf                                   6      0.0000       0.00000       A     3.31893e-01     4.11495e-01
 n8bf                                   7      0.0000       0.00000       A     3.27441e-01     4.84508e-01
 c9bf                                   6      0.0000       0.00000       A     3.31413e-01     4.13526e-01
 o10bf                                  8      0.0000       0.00000       A     3.04535e-01     6.09762e-01
 n11bf                                  7      0.0000       0.00000       A     3.38219e-01     3.92719e-01
 c12bf                                  6      0.0000       0.00000       A     3.31431e-01     4.14416e-01
 c13bf                                  6      0.0000       0.00000       A     3.31533e-01     4.12850e-01
 c14bf                                  6      0.0000       0.00000       A     3.31393e-01     4.14643e-01
 c15bf                                  6      0.0000       0.00000       A     3.31576e-01     4.11459e-01
 o16bf                                  8      0.0000       0.00000       A     3.15803e-01     3.07157e-01
 c17bf                                  6      0.0000       0.00000       A     3.39676e-01     4.49855e-01
 o18bf                                  8      0.0000       0.00000       A     3.15759e-01     3.03582e-01
 c19bf                                  6      0.0000       0.00000       A     3.39784e-01     4.50460e-01
 n20bf                                  7      0.0000       0.00000       A     3.36513e-01     4.72176e-01
 c21bf                                  6      0.0000       0.00000       A     3.48265e-01     6.71656e-01
 o22bf                                  8      0.0000       0.00000       A     3.15725e-01     3.01536e-01
 c23bf                                  6      0.0000       0.00000       A     3.39845e-01     4.51207e-01
 c24bf                                  6      0.0000       0.00000       A     3.39850e-01     4.51402e-01
 n25bf                                  7      0.0000       0.00000       A     3.27372e-01     4.59322e-01
 h26bf                                  1      0.0000       0.00000       A     2.62858e-01     6.83533e-02
 h27bf                                  1      0.0000       0.00000       A     2.62591e-01     6.76797e-02
 h28bf                                  1      0.0000       0.00000       A     2.62420e-01     6.84395e-02
 h29bf                                  1      0.0000       0.00000       A     2.59913e-01     8.79307e-02
 h30bf                                  1      0.0000       0.00000       A     2.59913e-01     8.79307e-02
 h31bf                                  1      0.0000       0.00000       A     1.10312e-01     4.02784e-02
 h32bf                                  1      0.0000       0.00000       A     2.42080e-01     8.75859e-02
 h33bf                                  1      0.0000       0.00000       A     2.42080e-01     8.75859e-02
 h34bf                                  1      0.0000       0.00000       A     2.42080e-01     8.75859e-02
 h35bf                                  1      0.0000       0.00000       A     2.42080e-01     8.75859e-02
 h36bf                                  1      0.0000       0.00000       A     2.42080e-01     8.75859e-02
 h37bf                                  1      0.0000       0.00000       A     2.42080e-01     8.75859e-02
 h38bf                                  1      0.0000       0.00000       A     1.10467e-01     4.08370e-02
 h39bf                                  1      0.0000       0.00000       A     1.10467e-01     4.08370e-02
 h40bf                                  1      0.0000       0.00000       A     2.42575e-01     8.69427e-02
 h41bf                                  1      0.0000       0.00000       A     2.59984e-01     8.79131e-02
 h42bf                                  1      0.0000       0.00000       A     2.59984e-01     8.79131e-02
 h43bf                                  1      0.0000       0.00000       A     2.59984e-01     8.79131e-02
 s44bf                                 16      0.0000       0.00000       A     4.05541e-01     2.60763e-01
 o45bf                                  8      0.0000       0.00000       A     3.05053e-01     6.11951e-01
 o46bf                                  8      0.0000       0.00000       A     3.05053e-01     6.11951e-01
 c47bf                                  6      0.0000       0.00000       A     3.39642e-01     4.49728e-01
 h48bf                                  1      0.0000       0.00000       A     2.42021e-01     8.71597e-02
 h49bf                                  1      0.0000       0.00000       A     2.42021e-01     8.71597e-02
 h50bf                                  1      0.0000       0.00000       A     2.42021e-01     8.71597e-02
 c51bf                                  6      0.0000       0.00000       A     3.39850e-01     4.51402e-01
 h52bf                                  1      0.0000       0.00000       A     2.59984e-01     8.79131e-02
 h53bf                                  1      0.0000       0.00000       A     2.59984e-01     8.79131e-02
 h54bf                                  1      0.0000       0.00000       A     2.59984e-01     8.79131e-02

[ moleculetype ]
;name             nrexcl
 18652-1               3

[ atoms ]
;       nr            type      resi   res      atom      cgnr      charge          mass ; qtot
         1            c0bf         1   UNL        c0         1    -0.04680       12.0110 ; qtot   -0.047
         2            c1bf         1   UNL        c1         2     0.11008       12.0110 ; qtot    0.063
         3            c2bf         1   UNL        c2         3    -0.07385       12.0110 ; qtot   -0.011
         4            c3bf         1   UNL        c3         4    -0.13945       12.0110 ; qtot   -0.150
         5            c4bf         1   UNL        c4         5     0.19896       12.0110 ; qtot    0.049
         6            c5bf         1   UNL        c5         6    -0.25498       12.0110 ; qtot   -0.206
         7            c6bf         1   UNL        c6         7    -0.10742       12.0110 ; qtot   -0.313
         8            c7bf         1   UNL        c7         8     0.61335       12.0110 ; qtot    0.300
         9            n8bf         1   UNL        n8         9    -0.33030       14.0070 ; qtot   -0.030
        10            c9bf         1   UNL        c9        10     0.55398       12.0110 ; qtot    0.524
        11           o10bf         1   UNL       o10        11    -0.56579       15.9990 ; qtot   -0.042
        12           n11bf         1   UNL       n11        12    -0.80485       14.0070 ; qtot   -0.847
        13           c12bf         1   UNL       c12        13     0.68976       12.0110 ; qtot   -0.157
        14           c13bf         1   UNL       c13        14    -0.21348       12.0110 ; qtot   -0.371
        15           c14bf         1   UNL       c14        15     0.41129       12.0110 ; qtot    0.041
        16           c15bf         1   UNL       c15        16    -0.27787       12.0110 ; qtot   -0.237
        17           o16bf         1   UNL       o16        17    -0.36428       15.9990 ; qtot   -0.602
        18           c17bf         1   UNL       c17        18     0.14656       12.0110 ; qtot   -0.455
        19           o18bf         1   UNL       o18        19    -0.35303       15.9990 ; qtot   -0.808
        20           c19bf         1   UNL       c19        20     0.14470       12.0110 ; qtot   -0.663
        21           n20bf         1   UNL       n20        21    -1.06403       14.0070 ; qtot   -1.727
        22           c21bf         1   UNL       c21        22     0.34556       12.0110 ; qtot   -1.382
        23           o22bf         1   UNL       o22        23    -0.46057       15.9990 ; qtot   -1.842
        24           c23bf         1   UNL       c23        24     0.17945       12.0110 ; qtot   -1.663
        25           c24bf         1   UNL       c24        25    -0.10689       12.0110 ; qtot   -1.770
        26           n25bf         1   UNL       n25        26    -0.46684       14.0070 ; qtot   -2.237
        27           h26bf         1   UNL       h26        27     0.15433        1.0080 ; qtot   -2.082
        28           h27bf         1   UNL       h27        28     0.13640        1.0080 ; qtot   -1.946
        29           h28bf         1   UNL       h28        29     0.14532        1.0080 ; qtot   -1.801
        30           h29bf         1   UNL       h29        30     0.07947        1.0080 ; qtot   -1.721
        31           h30bf         1   UNL       h30        31     0.07947        1.0080 ; qtot   -1.642
        32           h31bf         1   UNL       h31        32     0.18700        1.0080 ; qtot   -1.455
        33           h32bf         1   UNL       h32        33     0.04913        1.0080 ; qtot   -1.406
        34           h33bf         1   UNL       h33        34     0.04913        1.0080 ; qtot   -1.356
        35           h34bf         1   UNL       h34        35     0.04913        1.0080 ; qtot   -1.307
        36           h35bf         1   UNL       h35        36     0.04237        1.0080 ; qtot   -1.265
        37           h36bf         1   UNL       h36        37     0.04237        1.0080 ; qtot   -1.223
        38           h37bf         1   UNL       h37        38     0.04237        1.0080 ; qtot   -1.180
        39           h38bf         1   UNL       h38        39     0.47013        1.0080 ; qtot   -0.710
        40           h39bf         1   UNL       h39        40     0.47013        1.0080 ; qtot   -0.240
        41           h40bf         1   UNL       h40        41     0.06115        1.0080 ; qtot   -0.179
        42           h41bf         1   UNL       h41        42     0.04757        1.0080 ; qtot   -0.131
        43           h42bf         1   UNL       h42        43     0.04757        1.0080 ; qtot   -0.084
        44           h43bf         1   UNL       h43        44     0.04757        1.0080 ; qtot   -0.036
        45           s44bf         1   UNL       s44        45     1.00639       32.0670 ; qtot    0.970
        46           o45bf         1   UNL       o45        46    -0.51118       15.9990 ; qtot    0.459
        47           o46bf         1   UNL       o46        47    -0.51118       15.9990 ; qtot   -0.052
        48           c47bf         1   UNL       c47        48    -0.30004       12.0110 ; qtot   -0.352
        49           h48bf         1   UNL       h48        49     0.10545        1.0080 ; qtot   -0.247
        50           h49bf         1   UNL       h49        50     0.10545        1.0080 ; qtot   -0.141
        51           h50bf         1   UNL       h50        51     0.10545        1.0080 ; qtot   -0.036
        52           c51bf         1   UNL       c51        52    -0.10689       12.0110 ; qtot   -0.143
        53           h52bf         1   UNL       h52        53     0.04757        1.0080 ; qtot   -0.095
        54           h53bf         1   UNL       h53        54     0.04757        1.0080 ; qtot   -0.048
        55           h54bf         1   UNL       h54        55     0.04754        1.0080 ; qtot   -0.000

[ bonds ]
;       ai        aj funct               r               k
         1         2     1        0.139585   297989.720215
         1         6     1        0.139415   310851.613037
         1        27     1        0.108312   327769.411719
         2         3     1        0.140829   265837.171582
         2        19     1        0.137295   261467.670020
         3         4     1        0.139793   306526.418359
         3         7     1        0.151202   194591.854102
         4         5     1        0.140125   285027.543164
         4        28     1        0.108412   322584.663477
         5         6     1        0.140410   276421.154248
         5        17     1        0.136562   271743.572998
         6        45     1        0.180885   120724.769287
         7         8     1        0.153592   153621.967261
         7        30     1        0.109241   302571.256396
         7        31     1        0.109241   302571.256396
         8         9     1        0.137766   254542.108105
         8        11     1        0.122617   621123.227246
         9        10     1        0.140262   244903.560303
         9        32     1        0.101492   411234.644629
        10        12     1        0.134318   290764.608008
        10        16     1        0.139793   287882.362158
        12        13     1        0.132778   319970.940332
        13        14     1        0.141624   254542.874219
        13        23     1        0.134112   293089.072314
        14        15     1        0.141729   266089.273926
        14        22     1        0.142493   274058.001221
        15        16     1        0.140563   289985.802783
        15        21     1        0.137314   326219.002734
        16        29     1        0.108281   327746.760303
        17        18     1        0.143637   194832.043384
        18        33     1        0.109303   302031.350830
        18        34     1        0.109303   302031.350830
        18        35     1        0.109303   302031.350830
        19        20     1        0.142608   206836.655444
        20        36     1        0.109437   297369.372754
        20        37     1        0.109437   297369.372754
        20        38     1        0.109437   297369.372754
        21        39     1        0.101134   424950.626074
        21        40     1        0.101134   424950.626074
        22        26     1        0.116699  1087197.077734
        23        24     1        0.146587   136760.133154
        24        25     1        0.152457   194811.703076
        24        41     1        0.109245   303844.255762
        24        52     1        0.152457   194811.703076
        25        42     1        0.109331   303337.395215
        25        43     1        0.109331   303337.395215
        25        44     1        0.109331   303337.395215
        45        46     1        0.147234   503152.813965
        45        47     1        0.147234   503152.813965
        45        48     1        0.180692   140291.136499
        48        49     1        0.109022   319481.700391
        48        50     1        0.109022   319481.700391
        48        51     1        0.109022   319481.700391
        52        53     1        0.109331   303337.395215
        52        54     1        0.109331   303337.395215
        52        55     1        0.109331   303337.395215

[ angles ]
;       ai        aj        ak funct           theta             cth
         1         2         3     1      120.228928      656.355934
         1         2        19     1      123.560974      515.558806
         1         6         5     1      120.907974      657.175229
         1         6        45     1      117.593750      492.768595
         2         1         6     1      119.732376      674.894088
         2         1        27     1      121.909935      397.342100
         2         3         4     1      119.031288      697.718327
         2         3         7     1      120.356308      459.893972
         2        19        20     1      117.807632      542.822032
         3         2        19     1      116.082932      507.502039
         3         4         5     1      121.516342      722.437802
         3         4        28     1      119.044861      383.509860
         3         7         8     1      112.823059      600.329815
         3         7        30     1      110.208664      489.419276
         3         7        31     1      110.208664      489.419276
         4         3         7     1      120.666306      461.548107
         4         5         6     1      118.454124      578.798265
         4         5        17     1      123.308517      494.301588
         5         4        28     1      119.417198      423.755228
         5         6        45     1      121.087257      757.108258
         5        17        18     1      117.357468      519.304365
         6         1        27     1      118.803406      357.964228
         6         5        17     1      118.196732      512.241216
         6        45        46     1      107.790611      634.477527
         6        45        47     1      107.790611      634.477527
         6        45        48     1      103.621216      651.582410
         7         8         9     1      113.833664      491.700282
         7         8        11     1      121.328224      493.112325
         8         7        30     1      107.046463      537.365773
         8         7        31     1      107.046463      537.365773
         8         9        10     1      129.069580      534.688143
         8         9        32     1      116.701096      438.836519
         9         8        11     1      124.602150      646.961023
         9        10        12     1      113.803688      582.581268
         9        10        16     1      121.951126      485.345213
        10         9        32     1      113.534424      449.375907
        10        12        13     1      118.366165      778.291099
        10        16        15     1      118.613724      856.851419
        10        16        29     1      120.376305      450.317237
        12        10        16     1      123.802162      557.426705
        12        13        14     1      123.508987      557.344539
        12        13        23     1      119.817184      559.453841
        13        14        15     1      117.974243      836.221840
        13        14        22     1      121.591415      572.444313
        13        23        24     1      119.752403      514.585012
        14        13        23     1      116.604630      480.190356
        14        15        16     1      117.791626      641.058440
        14        15        21     1      121.187119      571.944807
        14        22        26     1      176.844513      167.360000
        15        14        22     1      119.558762      527.882695
        15        16        29     1      120.382774      424.889235
        15        21        39     1      117.595009      461.050995
        15        21        40     1      117.595009      461.050995
        16        15        21     1      121.074852      515.527140
        17        18        33     1      108.993736      453.785815
        17        18        34     1      108.993736      453.785815
        17        18        35     1      108.993736      453.785815
        19        20        36     1      109.507607      451.365248
        19        20        37     1      109.507607      451.365248
        19        20        38     1      109.507607      451.365248
        23        24        25     1      108.083817      638.657377
        23        24        41     1      106.677757      452.551702
        23        24        52     1      108.083824      638.657313
        24        25        42     1      110.348511      487.896594
        24        25        43     1      110.348511      487.896594
        24        25        44     1      110.348511      487.896594
        24        52        53     1      110.348511      487.896594
        24        52        54     1      110.348511      487.896594
        24        52        55     1      110.348511      487.896594
        25        24        41     1      109.839439      482.987531
        25        24        52     1      113.447960      614.112129
        30         7        31     1      107.749405      355.690404
        33        18        34     1      109.838577      343.881246
        33        18        35     1      109.838577      343.881246
        34        18        35     1      109.838577      343.881246
        36        20        37     1      109.504967      343.329390
        36        20        38     1      109.504967      343.329390
        37        20        38     1      109.504967      343.329390
        39        21        40     1      114.641884      341.475906
        41        24        52     1      109.839439      482.987531
        42        25        43     1      108.530251      361.050867
        42        25        44     1      108.530251      361.050867
        43        25        44     1      108.530251      361.050867
        45        48        49     1      107.681351      569.365240
        45        48        50     1      107.681351      569.365240
        45        48        51     1      107.681351      569.365240
        46        45        47     1      120.198120      742.493307
        46        45        48     1      107.657494      727.288831
        47        45        48     1      107.657494      727.288831
        49        48        50     1      111.219238      344.289329
        49        48        51     1      111.219238      344.289329
        50        48        51     1      111.219238      344.289329
        53        52        54     1      108.530251      361.050867
        53        52        55     1      108.530251      361.050867
        54        52        55     1      108.530251      361.050867

[ dihedrals ] ; propers for gromacs 4.5 or higher, use funct 9
;       ai        aj        ak        al funct           phase               k        pn
         1         2         3         4     9        0.000000       -0.097311         1
         1         2         3         4     9      180.000000       15.996934         2
         1         2         3         4     9        0.000000       -0.948054         3
         1         2         3         4     9      180.000000       -0.227824         4
         1         2         3         7     9        0.000000        0.198569         1
         1         2         3         7     9      180.000000       13.171734         2
         1         2         3         7     9        0.000000       -0.125217         3
         1         2         3         7     9      180.000000       -0.127000         4
         1         2        19        20     9        0.000000        0.186619         1
         1         2        19        20     9      180.000000        4.899460         2
         1         2        19        20     9        0.000000       -0.235108         3
         1         2        19        20     9      180.000000        0.395061         4
         1         6         5         4     9        0.000000       -0.203013         1
         1         6         5         4     9      180.000000       15.239225         2
         1         6         5         4     9        0.000000       -1.066359         3
         1         6         5         4     9      180.000000       -0.328671         4
         1         6         5        17     9        0.000000        0.649855         1
         1         6         5        17     9      180.000000       17.699812         2
         1         6         5        17     9        0.000000        0.270831         3
         1         6         5        17     9      180.000000       -0.386184         4
         1         6        45        46     9        0.000000       -0.812584         1
         1         6        45        46     9      180.000000        0.698941         2
         1         6        45        46     9        0.000000       -0.458796         3
         1         6        45        46     9      180.000000        0.074627         4
         1         6        45        47     9        0.000000       -0.812584         1
         1         6        45        47     9      180.000000        0.698941         2
         1         6        45        47     9        0.000000       -0.458796         3
         1         6        45        47     9      180.000000        0.074627         4
         1         6        45        48     9        0.000000        1.485377         1
         1         6        45        48     9      180.000000       -0.668691         2
         1         6        45        48     9        0.000000       -0.570256         3
         1         6        45        48     9      180.000000        0.416243         4
         2         1         6         5     9        0.000000       -0.318926         1
         2         1         6         5     9      180.000000       19.005631         2
         2         1         6         5     9        0.000000       -2.056936         3
         2         1         6         5     9      180.000000       -0.486285         4
         2         1         6        45     9        0.000000        0.062440         1
         2         1         6        45     9      180.000000       13.196941         2
         2         1         6        45     9        0.000000        0.214379         3
         2         1         6        45     9      180.000000       -0.379466         4
         2         3         4         5     9        0.000000       -0.100733         1
         2         3         4         5     9      180.000000       19.140293         2
         2         3         4         5     9        0.000000       -1.486315         3
         2         3         4         5     9      180.000000       -0.463945         4
         2         3         4        28     9        0.000000        0.152169         1
         2         3         4        28     9      180.000000       14.821515         2
         2         3         4        28     9        0.000000       -0.337276         3
         2         3         4        28     9      180.000000        0.039763         4
         2         3         7         8     9        0.000000       -0.982133         1
         2         3         7         8     9      180.000000        0.271804         2
         2         3         7         8     9        0.000000        0.080914         3
         2         3         7         8     9      180.000000       -0.030433         4
         2         3         7        30     9        0.000000        0.005430         1
         2         3         7        30     9      180.000000       -0.049952         2
         2         3         7        30     9        0.000000        0.016097         3
         2         3         7        30     9      180.000000        0.115979         4
         2         3         7        31     9        0.000000        0.005430         1
         2         3         7        31     9      180.000000       -0.049952         2
         2         3         7        31     9        0.000000        0.016097         3
         2         3         7        31     9      180.000000        0.115979         4
         2        19        20        36     9        0.000000       -0.072236         1
         2        19        20        36     9      180.000000        0.058921         2
         2        19        20        36     9        0.000000        0.659883         3
         2        19        20        36     9      180.000000       -0.024109         4
         2        19        20        37     9        0.000000       -0.072236         1
         2        19        20        37     9      180.000000        0.058921         2
         2        19        20        37     9        0.000000        0.659883         3
         2        19        20        37     9      180.000000       -0.024109         4
         2        19        20        38     9        0.000000       -0.072236         1
         2        19        20        38     9      180.000000        0.058921         2
         2        19        20        38     9        0.000000        0.659883         3
         2        19        20        38     9      180.000000       -0.024109         4
         3         2         1         6     9        0.000000       -0.377442         1
         3         2         1         6     9      180.000000       16.075480         2
         3         2         1         6     9        0.000000       -1.507298         3
         3         2         1         6     9      180.000000       -0.289383         4
         3         2         1        27     9        0.000000        0.197369         1
         3         2         1        27     9      180.000000       12.302885         2
         3         2         1        27     9        0.000000       -0.382445         3
         3         2         1        27     9      180.000000        0.081461         4
         3         2        19        20     9        0.000000       -1.913128         1
         3         2        19        20     9      180.000000        5.510244         2
         3         2        19        20     9        0.000000       -0.332250         3
         3         2        19        20     9      180.000000        0.340956         4
         3         4         5         6     9        0.000000       -0.371338         1
         3         4         5         6     9      180.000000       16.340125         2
         3         4         5         6     9        0.000000       -1.529722         3
         3         4         5         6     9      180.000000       -0.453597         4
         3         4         5        17     9        0.000000        0.564641         1
         3         4         5        17     9      180.000000       18.622989         2
         3         4         5        17     9        0.000000        0.250987         3
         3         4         5        17     9      180.000000       -0.472046         4
         3         7         8         9     9        0.000000        0.612951         1
         3         7         8         9     9      180.000000        1.163964         2
         3         7         8         9     9        0.000000        0.083585         3
         3         7         8         9     9      180.000000        0.009500         4
         3         7         8        11     9        0.000000       -2.853590         1
         3         7         8        11     9      180.000000        0.787879         2
         3         7         8        11     9        0.000000        0.004181         3
         3         7         8        11     9      180.000000        0.016076         4
         4         3         2        19     9        0.000000        0.175770         1
         4         3         2        19     9      180.000000       18.290238         2
         4         3         2        19     9        0.000000        0.141970         3
         4         3         2        19     9      180.000000       -0.375706         4
         4         3         7         8     9        0.000000       -0.506654         1
         4         3         7         8     9      180.000000        0.270228         2
         4         3         7         8     9        0.000000       -0.038141         3
         4         3         7         8     9      180.000000        0.026244         4
         4         3         7        30     9        0.000000        0.071574         1
         4         3         7        30     9      180.000000       -0.003409         2
         4         3         7        30     9        0.000000        0.061782         3
         4         3         7        30     9      180.000000        0.038023         4
         4         3         7        31     9        0.000000        0.071574         1
         4         3         7        31     9      180.000000       -0.003409         2
         4         3         7        31     9        0.000000        0.061782         3
         4         3         7        31     9      180.000000        0.038023         4
         4         5         6        45     9        0.000000       -0.112026         1
         4         5         6        45     9      180.000000       11.313995         2
         4         5         6        45     9        0.000000        0.254756         3
         4         5         6        45     9      180.000000       -0.383427         4
         4         5        17        18     9        0.000000        1.985060         1
         4         5        17        18     9      180.000000        5.550161         2
         4         5        17        18     9        0.000000       -0.122252         3
         4         5        17        18     9      180.000000        0.486008         4
         5         4         3         7     9        0.000000        0.268121         1
         5         4         3         7     9      180.000000       17.360865         2
         5         4         3         7     9        0.000000       -0.068070         3
         5         4         3         7     9      180.000000       -0.512281         4
         5         6         1        27     9        0.000000        0.256418         1
         5         6         1        27     9      180.000000       14.630507         2
         5         6         1        27     9        0.000000       -0.488495         3
         5         6         1        27     9      180.000000        0.033478         4
         5         6        45        46     9        0.000000        0.047553         1
         5         6        45        46     9      180.000000        0.454778         2
         5         6        45        46     9        0.000000        0.680226         3
         5         6        45        46     9      180.000000       -0.173149         4
         5         6        45        47     9        0.000000        0.047553         1
         5         6        45        47     9      180.000000        0.454778         2
         5         6        45        47     9        0.000000        0.680226         3
         5         6        45        47     9      180.000000       -0.173149         4
         5         6        45        48     9        0.000000        1.552031         1
         5         6        45        48     9      180.000000       -1.501371         2
         5         6        45        48     9        0.000000        0.634917         3
         5         6        45        48     9      180.000000        0.223552         4
         5        17        18        33     9        0.000000        0.043385         1
         5        17        18        33     9      180.000000        0.003902         2
         5        17        18        33     9        0.000000        0.480044         3
         5        17        18        33     9      180.000000       -0.027253         4
         5        17        18        34     9        0.000000        0.043385         1
         5        17        18        34     9      180.000000        0.003902         2
         5        17        18        34     9        0.000000        0.480044         3
         5        17        18        34     9      180.000000       -0.027253         4
         5        17        18        35     9        0.000000        0.043385         1
         5        17        18        35     9      180.000000        0.003902         2
         5        17        18        35     9        0.000000        0.480044         3
         5        17        18        35     9      180.000000       -0.027253         4
         6         1         2        19     9        0.000000        0.060723         1
         6         1         2        19     9      180.000000       18.718953         2
         6         1         2        19     9        0.000000       -0.168130         3
         6         1         2        19     9      180.000000       -0.485101         4
         6         5         4        28     9        0.000000        0.092946         1
         6         5         4        28     9      180.000000       12.230075         2
         6         5         4        28     9        0.000000       -0.491906         3
         6         5         4        28     9      180.000000        0.101113         4
         6         5        17        18     9        0.000000       -3.373668         1
         6         5        17        18     9      180.000000        6.592942         2
         6         5        17        18     9        0.000000       -0.669638         3
         6         5        17        18     9      180.000000        0.680382         4
         6        45        48        49     9        0.000000        0.047570         1
         6        45        48        49     9      180.000000       -0.191486         2
         6        45        48        49     9        0.000000        0.269901         3
         6        45        48        49     9      180.000000       -0.023558         4
         6        45        48        50     9        0.000000        0.047570         1
         6        45        48        50     9      180.000000       -0.191486         2
         6        45        48        50     9        0.000000        0.269901         3
         6        45        48        50     9      180.000000       -0.023558         4
         6        45        48        51     9        0.000000        0.047570         1
         6        45        48        51     9      180.000000       -0.191486         2
         6        45        48        51     9        0.000000        0.269901         3
         6        45        48        51     9      180.000000       -0.023558         4
         7         3         2        19     9        0.000000        0.071901         1
         7         3         2        19     9      180.000000       16.938591         2
         7         3         2        19     9        0.000000       -0.028881         3
         7         3         2        19     9      180.000000       -0.532136         4
         7         3         4        28     9        0.000000       -0.031817         1
         7         3         4        28     9      180.000000       13.329583         2
         7         3         4        28     9        0.000000       -0.411754         3
         7         3         4        28     9      180.000000        0.116459         4
         7         8         9        10     9        0.000000        0.953036         1
         7         8         9        10     9      180.000000        9.389414         2
         7         8         9        10     9        0.000000        0.383550         3
         7         8         9        10     9      180.000000       -0.691061         4
         7         8         9        32     9        0.000000        1.586875         1
         7         8         9        32     9      180.000000        9.627105         2
         7         8         9        32     9        0.000000        0.246001         3
         7         8         9        32     9      180.000000        0.510298         4
         8         9        10        12     9        0.000000       -2.727018         1
         8         9        10        12     9      180.000000        5.067868         2
         8         9        10        12     9        0.000000        0.430892         3
         8         9        10        12     9      180.000000       -0.230222         4
         8         9        10        16     9        0.000000        0.367824         1
         8         9        10        16     9      180.000000        3.339939         2
         8         9        10        16     9        0.000000       -0.088259         3
         8         9        10        16     9      180.000000        0.087734         4
         9         8         7        30     9        0.000000       -0.102699         1
         9         8         7        30     9      180.000000       -0.300971         2
         9         8         7        30     9        0.000000       -0.124593         3
         9         8         7        30     9      180.000000        0.138565         4
         9         8         7        31     9        0.000000       -0.102699         1
         9         8         7        31     9      180.000000       -0.300971         2
         9         8         7        31     9        0.000000       -0.124593         3
         9         8         7        31     9      180.000000        0.138565         4
         9        10        12        13     9        0.000000        0.791077         1
         9        10        12        13     9      180.000000       24.901473         2
         9        10        12        13     9        0.000000        0.691197         3
         9        10        12        13     9      180.000000       -1.001780         4
         9        10        16        15     9        0.000000        0.162093         1
         9        10        16        15     9      180.000000       17.408671         2
         9        10        16        15     9        0.000000        0.303134         3
         9        10        16        15     9      180.000000       -0.718301         4
         9        10        16        29     9        0.000000        0.136361         1
         9        10        16        29     9      180.000000       13.172674         2
         9        10        16        29     9        0.000000       -0.091888         3
         9        10        16        29     9      180.000000        0.103766         4
        10         9         8        11     9        0.000000       -0.840616         1
        10         9         8        11     9      180.000000       10.078041         2
        10         9         8        11     9        0.000000       -0.175423         3
        10         9         8        11     9      180.000000       -0.208874         4
        10        12        13        14     9        0.000000        0.538334         1
        10        12        13        14     9      180.000000       20.102820         2
        10        12        13        14     9        0.000000        0.623266         3
        10        12        13        14     9      180.000000       -0.876899         4
        10        12        13        23     9        0.000000        1.412101         1
        10        12        13        23     9      180.000000       24.290224         2
        10        12        13        23     9        0.000000        1.307098         3
        10        12        13        23     9      180.000000       -1.016911         4
        10        16        15        14     9        0.000000       -0.215213         1
        10        16        15        14     9      180.000000       14.684830         2
        10        16        15        14     9        0.000000       -1.277352         3
        10        16        15        14     9      180.000000       -0.430875         4
        10        16        15        21     9        0.000000       -0.032765         1
        10        16        15        21     9      180.000000       15.756841         2
        10        16        15        21     9        0.000000       -0.068443         3
        10        16        15        21     9      180.000000       -0.595816         4
        11         8         7        30     9        0.000000        0.254810         1
        11         8         7        30     9      180.000000        0.012136         2
        11         8         7        30     9        0.000000        0.062568         3
        11         8         7        30     9      180.000000        0.093519         4
        11         8         7        31     9        0.000000        0.254810         1
        11         8         7        31     9      180.000000        0.012136         2
        11         8         7        31     9        0.000000        0.062568         3
        11         8         7        31     9      180.000000        0.093519         4
        11         8         9        32     9        0.000000        0.002604         1
        11         8         9        32     9      180.000000       10.503663         2
        11         8         9        32     9        0.000000        0.191503         3
        11         8         9        32     9      180.000000        1.053032         4
        12        10         9        32     9        0.000000        3.734428         1
        12        10         9        32     9      180.000000        3.711311         2
        12        10         9        32     9        0.000000        0.197704         3
        12        10         9        32     9      180.000000       -0.308574         4
        12        10        16        15     9        0.000000       -0.272861         1
        12        10        16        15     9      180.000000       15.880736         2
        12        10        16        15     9        0.000000       -0.473409         3
        12        10        16        15     9      180.000000       -0.547434         4
        12        10        16        29     9        0.000000       -0.043353         1
        12        10        16        29     9      180.000000       12.741853         2
        12        10        16        29     9        0.000000       -0.015221         3
        12        10        16        29     9      180.000000       -0.143255         4
        12        13        14        15     9        0.000000       -0.459710         1
        12        13        14        15     9      180.000000       10.917851         2
        12        13        14        15     9        0.000000       -0.712640         3
        12        13        14        15     9      180.000000       -0.193678         4
        12        13        14        22     9        0.000000       -1.056382         1
        12        13        14        22     9      180.000000       11.559869         2
        12        13        14        22     9        0.000000       -0.561696         3
        12        13        14        22     9      180.000000       -0.460350         4
        12        13        23        24     9        0.000000        0.002635         1
        12        13        23        24     9      180.000000        7.806480         2
        12        13        23        24     9        0.000000        0.446283         3
        12        13        23        24     9      180.000000       -0.111504         4
        13        12        10        16     9        0.000000        0.387022         1
        13        12        10        16     9      180.000000       18.883681         2
        13        12        10        16     9        0.000000       -0.654633         3
        13        12        10        16     9      180.000000       -0.397849         4
        13        14        15        16     9        0.000000       -0.120879         1
        13        14        15        16     9      180.000000       12.332092         2
        13        14        15        16     9        0.000000       -0.908689         3
        13        14        15        16     9      180.000000       -0.097684         4
        13        14        15        21     9        0.000000        0.148956         1
        13        14        15        21     9      180.000000       14.518782         2
        13        14        15        21     9        0.000000        0.063449         3
        13        14        15        21     9      180.000000       -0.581970         4
        13        14        22        26     9        0.000000        0.000000         1
        13        14        22        26     9      180.000000        0.000000         2
        13        14        22        26     9        0.000000        0.000000         3
        13        14        22        26     9      180.000000        0.000000         4
        13        23        24        25     9        0.000000       -0.907137         1
        13        23        24        25     9      180.000000        0.092946         2
        13        23        24        25     9        0.000000        0.445630         3
        13        23        24        25     9      180.000000        0.016615         4
        13        23        24        41     9        0.000000        0.721557         1
        13        23        24        41     9      180.000000       -0.637575         2
        13        23        24        41     9        0.000000        0.280541         3
        13        23        24        41     9      180.000000       -0.072149         4
        13        23        24        52     9        0.000000       -0.907136         1
        13        23        24        52     9      180.000000        0.092947         2
        13        23        24        52     9        0.000000        0.445630         3
        13        23        24        52     9      180.000000        0.016615         4
        14        13        23        24     9        0.000000       -1.241466         1
        14        13        23        24     9      180.000000        7.719417         2
        14        13        23        24     9        0.000000       -0.129034         3
        14        13        23        24     9      180.000000        0.184602         4
        14        15        16        29     9        0.000000       -0.278078         1
        14        15        16        29     9      180.000000       12.233704         2
        14        15        16        29     9        0.000000       -0.404899         3
        14        15        16        29     9      180.000000        0.035198         4
        14        15        21        39     9        0.000000        2.171796         1
        14        15        21        39     9      180.000000        6.254840         2
        14        15        21        39     9        0.000000        0.135062         3
        14        15        21        39     9      180.000000       -0.276853         4
        14        15        21        40     9        0.000000        2.171796         1
        14        15        21        40     9      180.000000        6.254840         2
        14        15        21        40     9        0.000000        0.135062         3
        14        15        21        40     9      180.000000       -0.276853         4
        15        14        13        23     9        0.000000        0.437748         1
        15        14        13        23     9      180.000000       13.165334         2
        15        14        13        23     9        0.000000        0.713311         3
        15        14        13        23     9      180.000000       -0.357742         4
        15        14        22        26     9        0.000000        0.000000         1
        15        14        22        26     9      180.000000        0.000000         2
        15        14        22        26     9        0.000000        0.000000         3
        15        14        22        26     9      180.000000        0.000000         4
        16        10         9        32     9        0.000000        1.444114         1
        16        10         9        32     9      180.000000        4.745283         2
        16        10         9        32     9        0.000000        0.907973         3
        16        10         9        32     9      180.000000       -0.000219         4
        16        15        14        22     9        0.000000       -0.091609         1
        16        15        14        22     9      180.000000       12.968680         2
        16        15        14        22     9        0.000000       -0.338702         3
        16        15        14        22     9      180.000000       -0.133568         4
        16        15        21        39     9        0.000000       -0.117483         1
        16        15        21        39     9      180.000000        6.276046         2
        16        15        21        39     9        0.000000        0.013310         3
        16        15        21        39     9      180.000000       -0.224693         4
        16        15        21        40     9        0.000000       -0.117483         1
        16        15        21        40     9      180.000000        6.276046         2
        16        15        21        40     9        0.000000        0.013310         3
        16        15        21        40     9      180.000000       -0.224693         4
        17         5         4        28     9        0.000000        0.186426         1
        17         5         4        28     9      180.000000       14.331543         2
        17         5         4        28     9        0.000000        0.087071         3
        17         5         4        28     9      180.000000        0.192811         4
        17         5         6        45     9        0.000000       -0.051188         1
        17         5         6        45     9      180.000000       12.970301         2
        17         5         6        45     9        0.000000        0.344896         3
        17         5         6        45     9      180.000000       -0.532894         4
        19         2         1        27     9        0.000000        0.027916         1
        19         2         1        27     9      180.000000       13.923153         2
        19         2         1        27     9        0.000000       -0.081693         3
        19         2         1        27     9      180.000000        0.120934         4
        21        15        14        22     9        0.000000       -0.229545         1
        21        15        14        22     9      180.000000       15.161543         2
        21        15        14        22     9        0.000000       -0.170478         3
        21        15        14        22     9      180.000000       -0.569680         4
        21        15        16        29     9        0.000000       -0.174826         1
        21        15        16        29     9      180.000000       14.115709         2
        21        15        16        29     9        0.000000       -0.275957         3
        21        15        16        29     9      180.000000        0.045247         4
        22        14        13        23     9        0.000000       -0.315780         1
        22        14        13        23     9      180.000000       13.570598         2
        22        14        13        23     9        0.000000       -0.101836         3
        22        14        13        23     9      180.000000       -0.437829         4
        23        24        25        42     9        0.000000        0.118780         1
        23        24        25        42     9      180.000000        0.043913         2
        23        24        25        42     9        0.000000        0.498177         3
        23        24        25        42     9      180.000000        0.030698         4
        23        24        25        43     9        0.000000        0.118778         1
        23        24        25        43     9      180.000000        0.043913         2
        23        24        25        43     9        0.000000        0.498177         3
        23        24        25        43     9      180.000000        0.030698         4
        23        24        25        44     9        0.000000        0.118778         1
        23        24        25        44     9      180.000000        0.043913         2
        23        24        25        44     9        0.000000        0.498177         3
        23        24        25        44     9      180.000000        0.030698         4
        23        24        52        53     9        0.000000        0.118779         1
        23        24        52        53     9      180.000000        0.043913         2
        23        24        52        53     9        0.000000        0.498177         3
        23        24        52        53     9      180.000000        0.030697         4
        23        24        52        54     9        0.000000        0.118779         1
        23        24        52        54     9      180.000000        0.043913         2
        23        24        52        54     9        0.000000        0.498177         3
        23        24        52        54     9      180.000000        0.030697         4
        23        24        52        55     9        0.000000        0.118779         1
        23        24        52        55     9      180.000000        0.043913         2
        23        24        52        55     9        0.000000        0.498177         3
        23        24        52        55     9      180.000000        0.030697         4
        25        24        52        53     9        0.000000       -0.066034         1
        25        24        52        53     9      180.000000        0.030494         2
        25        24        52        53     9        0.000000        0.552643         3
        25        24        52        53     9      180.000000        0.052665         4
        25        24        52        54     9        0.000000       -0.066034         1
        25        24        52        54     9      180.000000        0.030494         2
        25        24        52        54     9        0.000000        0.552643         3
        25        24        52        54     9      180.000000        0.052665         4
        25        24        52        55     9        0.000000       -0.066034         1
        25        24        52        55     9      180.000000        0.030494         2
        25        24        52        55     9        0.000000        0.552643         3
        25        24        52        55     9      180.000000        0.052665         4
        27         1         6        45     9        0.000000        0.155052         1
        27         1         6        45     9      180.000000       11.376806         2
        27         1         6        45     9        0.000000       -0.262043         3
        27         1         6        45     9      180.000000       -0.039118         4
        41        24        25        42     9        0.000000       -0.022890         1
        41        24        25        42     9      180.000000        0.055190         2
        41        24        25        42     9        0.000000        0.599168         3
        41        24        25        42     9      180.000000       -0.011163         4
        41        24        25        43     9        0.000000       -0.022889         1
        41        24        25        43     9      180.000000        0.055190         2
        41        24        25        43     9        0.000000        0.599168         3
        41        24        25        43     9      180.000000       -0.011163         4
        41        24        25        44     9        0.000000       -0.022889         1
        41        24        25        44     9      180.000000        0.055190         2
        41        24        25        44     9        0.000000        0.599168         3
        41        24        25        44     9      180.000000       -0.011163         4
        41        24        52        53     9        0.000000       -0.022890         1
        41        24        52        53     9      180.000000        0.055190         2
        41        24        52        53     9        0.000000        0.599168         3
        41        24        52        53     9      180.000000       -0.011163         4
        41        24        52        54     9        0.000000       -0.022890         1
        41        24        52        54     9      180.000000        0.055190         2
        41        24        52        54     9        0.000000        0.599168         3
        41        24        52        54     9      180.000000       -0.011163         4
        41        24        52        55     9        0.000000       -0.022890         1
        41        24        52        55     9      180.000000        0.055190         2
        41        24        52        55     9        0.000000        0.599168         3
        41        24        52        55     9      180.000000       -0.011163         4
        42        25        24        52     9        0.000000       -0.066034         1
        42        25        24        52     9      180.000000        0.030494         2
        42        25        24        52     9        0.000000        0.552643         3
        42        25        24        52     9      180.000000        0.052666         4
        43        25        24        52     9        0.000000       -0.066033         1
        43        25        24        52     9      180.000000        0.030494         2
        43        25        24        52     9        0.000000        0.552643         3
        43        25        24        52     9      180.000000        0.052665         4
        44        25        24        52     9        0.000000       -0.066033         1
        44        25        24        52     9      180.000000        0.030494         2
        44        25        24        52     9        0.000000        0.552643         3
        44        25        24        52     9      180.000000        0.052665         4
        46        45        48        49     9        0.000000       -0.024062         1
        46        45        48        49     9      180.000000       -0.031087         2
        46        45        48        49     9        0.000000        0.339578         3
        46        45        48        49     9      180.000000       -0.008797         4
        46        45        48        50     9        0.000000       -0.024062         1
        46        45        48        50     9      180.000000       -0.031087         2
        46        45        48        50     9        0.000000        0.339578         3
        46        45        48        50     9      180.000000       -0.008797         4
        46        45        48        51     9        0.000000       -0.024062         1
        46        45        48        51     9      180.000000       -0.031087         2
        46        45        48        51     9        0.000000        0.339578         3
        46        45        48        51     9      180.000000       -0.008797         4
        47        45        48        49     9        0.000000       -0.024062         1
        47        45        48        49     9      180.000000       -0.031087         2
        47        45        48        49     9        0.000000        0.339578         3
        47        45        48        49     9      180.000000       -0.008797         4
        47        45        48        50     9        0.000000       -0.024062         1
        47        45        48        50     9      180.000000       -0.031087         2
        47        45        48        50     9        0.000000        0.339578         3
        47        45        48        50     9      180.000000       -0.008797         4
        47        45        48        51     9        0.000000       -0.024062         1
        47        45        48        51     9      180.000000       -0.031087         2
        47        45        48        51     9        0.000000        0.339578         3
        47        45        48        51     9      180.000000       -0.008797         4

[ dihedrals ] ; impropers
;       ai        aj        ak        al funct           phase               k        pn
         1         2         6        27     4      180.000000        0.514070         2
         1         6        27         2     4      180.000000        0.514070         2
         1        27         2         6     4      180.000000        0.514070         2
         8         7         9        11     4      180.000000       19.599544         2
         8         9        11         7     4      180.000000       19.599544         2
         8        11         7         9     4      180.000000       19.599544         2
        10         9        12        16     4      180.000000        2.747358         2
        10        12        16         9     4      180.000000        2.747358         2
        10        16         9        12     4      180.000000        2.747358         2
        13        12        14        23     4      180.000000       12.470902         2
        13        14        23        12     4      180.000000       12.470902         2
        13        23        12        14     4      180.000000       12.470902         2

[ pairs ]
;       ai        aj funct
         1         4     1
         1         7     1
         1        17     1
         1        20     1
         1        46     1
         1        47     1
         1        48     1
         2         5     1
         2         8     1
         2        28     1
         2        30     1
         2        31     1
         2        36     1
         2        37     1
         2        38     1
         2        45     1
         3         6     1
         3         9     1
         3        11     1
         3        17     1
         3        20     1
         3        27     1
         4         8     1
         4        18     1
         4        19     1
         4        30     1
         4        31     1
         4        45     1
         5         7     1
         5        27     1
         5        33     1
         5        34     1
         5        35     1
         5        46     1
         5        47     1
         5        48     1
         6        18     1
         6        19     1
         6        28     1
         6        49     1
         6        50     1
         6        51     1
         7        10     1
         7        19     1
         7        28     1
         7        32     1
         8        12     1
         8        16     1
         9        13     1
         9        15     1
         9        29     1
         9        30     1
         9        31     1
        10        11     1
        10        14     1
        10        21     1
        10        23     1
        11        30     1
        11        31     1
        11        32     1
        12        15     1
        12        22     1
        12        24     1
        12        29     1
        12        32     1
        13        16     1
        13        21     1
        13        25     1
        13        26     1
        13        41     1
        13        52     1
        14        24     1
        14        29     1
        14        39     1
        14        40     1
        15        23     1
        15        26     1
        16        22     1
        16        32     1
        16        39     1
        16        40     1
        17        28     1
        17        45     1
        19        27     1
        21        22     1
        21        29     1
        22        23     1
        23        42     1
        23        43     1
        23        44     1
        23        53     1
        23        54     1
        23        55     1
        25        53     1
        25        54     1
        25        55     1
        27        45     1
        41        42     1
        41        43     1
        41        44     1
        41        53     1
        41        54     1
        41        55     1
        42        52     1
        43        52     1
        44        52     1
        46        49     1
        46        50     1
        46        51     1
        47        49     1
        47        50     1
        47        51     1
