; ITP file created by ByteFF-ML, 2026-02-21 08:17:11.441463

[ atomtypes ]
;name           bonded.type        at.num        mass        charge   ptype           sigma         epsilon
 c0bf                                   6      0.0000       0.00000       A     3.31435e-01     4.12469e-01
 c1bf                                   6      0.0000       0.00000       A     3.31309e-01     4.13444e-01
 c2bf                                   6      0.0000       0.00000       A     3.31361e-01     4.13926e-01
 c3bf                                   6      0.0000       0.00000       A     3.31569e-01     4.15312e-01
 c4bf                                   6      0.0000       0.00000       A     3.31354e-01     4.13492e-01
 c5bf                                   6      0.0000       0.00000       A     3.31523e-01     4.11831e-01
 c6bf                                   6      0.0000       0.00000       A     3.39655e-01     4.49447e-01
 c7bf                                   6      0.0000       0.00000       A     3.31893e-01     4.11495e-01
 n8bf                                   7      0.0000       0.00000       A     3.27441e-01     4.84508e-01
 c9bf                                   6      0.0000       0.00000       A     3.31413e-01     4.13526e-01
 o10bf                                  8      0.0000       0.00000       A     3.04535e-01     6.09762e-01
 n11bf                                  7      0.0000       0.00000       A     3.38247e-01     3.93466e-01
 c12bf                                  6      0.0000       0.00000       A     3.31425e-01     4.14293e-01
 c13bf                                  6      0.0000       0.00000       A     3.31540e-01     4.13015e-01
 c14bf                                  6      0.0000       0.00000       A     3.31393e-01     4.14643e-01
 c15bf                                  6      0.0000       0.00000       A     3.31576e-01     4.11459e-01
 o16bf                                  8      0.0000       0.00000       A     3.15882e-01     3.04056e-01
 c17bf                                  6      0.0000       0.00000       A     3.39778e-01     4.49916e-01
 o18bf                                  8      0.0000       0.00000       A     3.15751e-01     3.04050e-01
 c19bf                                  6      0.0000       0.00000       A     3.39784e-01     4.50460e-01
 n20bf                                  7      0.0000       0.00000       A     3.36513e-01     4.72176e-01
 c21bf                                  6      0.0000       0.00000       A     3.48265e-01     6.71656e-01
 o22bf                                  8      0.0000       0.00000       A     3.15833e-01     3.03081e-01
 c23bf                                  6      0.0000       0.00000       A     3.39752e-01     4.51587e-01
 c24bf                                  6      0.0000       0.00000       A     3.39652e-01     4.51764e-01
 n25bf                                  7      0.0000       0.00000       A     3.27372e-01     4.59322e-01
 h26bf                                  1      0.0000       0.00000       A     2.62528e-01     6.70684e-02
 h27bf                                  1      0.0000       0.00000       A     2.62500e-01     6.76366e-02
 h28bf                                  1      0.0000       0.00000       A     2.62420e-01     6.84395e-02
 h29bf                                  1      0.0000       0.00000       A     2.59913e-01     8.79307e-02
 h30bf                                  1      0.0000       0.00000       A     2.59913e-01     8.79307e-02
 h31bf                                  1      0.0000       0.00000       A     1.10312e-01     4.02784e-02
 h32bf                                  1      0.0000       0.00000       A     2.42080e-01     8.75859e-02
 h33bf                                  1      0.0000       0.00000       A     2.42080e-01     8.75859e-02
 h34bf                                  1      0.0000       0.00000       A     2.42080e-01     8.75859e-02
 h35bf                                  1      0.0000       0.00000       A     2.42080e-01     8.75859e-02
 h36bf                                  1      0.0000       0.00000       A     2.42080e-01     8.75859e-02
 h37bf                                  1      0.0000       0.00000       A     2.42080e-01     8.75859e-02
 h38bf                                  1      0.0000       0.00000       A     1.10467e-01     4.08370e-02
 h39bf                                  1      0.0000       0.00000       A     1.10467e-01     4.08370e-02
 h40bf                                  1      0.0000       0.00000       A     2.42063e-01     8.80823e-02
 h41bf                                  1      0.0000       0.00000       A     2.42063e-01     8.80823e-02
 h42bf                                  1      0.0000       0.00000       A     2.42501e-01     8.73018e-02
 h43bf                                  1      0.0000       0.00000       A     2.42501e-01     8.73018e-02
 h44bf                                  1      0.0000       0.00000       A     2.62468e-01     6.69663e-02
 s45bf                                 16      0.0000       0.00000       A     4.05868e-01     2.59754e-01
 o46bf                                  8      0.0000       0.00000       A     3.05052e-01     6.09954e-01
 o47bf                                  8      0.0000       0.00000       A     3.05052e-01     6.09954e-01
 c48bf                                  6      0.0000       0.00000       A     3.39598e-01     4.50245e-01
 h49bf                                  1      0.0000       0.00000       A     2.42069e-01     8.76705e-02
 h50bf                                  1      0.0000       0.00000       A     2.42069e-01     8.76705e-02
 h51bf                                  1      0.0000       0.00000       A     2.42069e-01     8.76705e-02

[ moleculetype ]
;name             nrexcl
 18660-1_flip          3

[ atoms ]
;       nr            type      resi   res      atom      cgnr      charge          mass ; qtot
         1            c0bf         1   UNL        c0         1    -0.14638       12.0110 ; qtot   -0.146
         2            c1bf         1   UNL        c1         2     0.11298       12.0110 ; qtot   -0.033
         3            c2bf         1   UNL        c2         3    -0.08928       12.0110 ; qtot   -0.123
         4            c3bf         1   UNL        c3         4    -0.12057       12.0110 ; qtot   -0.243
         5            c4bf         1   UNL        c4         5     0.10632       12.0110 ; qtot   -0.137
         6            c5bf         1   UNL        c5         6    -0.13779       12.0110 ; qtot   -0.275
         7            c6bf         1   UNL        c6         7    -0.10789       12.0110 ; qtot   -0.383
         8            c7bf         1   UNL        c7         8     0.61335       12.0110 ; qtot    0.231
         9            n8bf         1   UNL        n8         9    -0.33030       14.0070 ; qtot   -0.100
        10            c9bf         1   UNL        c9        10     0.55391       12.0110 ; qtot    0.454
        11           o10bf         1   UNL       o10        11    -0.56579       15.9990 ; qtot   -0.111
        12           n11bf         1   UNL       n11        12    -0.80450       14.0070 ; qtot   -0.916
        13           c12bf         1   UNL       c12        13     0.68105       12.0110 ; qtot   -0.235
        14           c13bf         1   UNL       c13        14    -0.21124       12.0110 ; qtot   -0.446
        15           c14bf         1   UNL       c14        15     0.41091       12.0110 ; qtot   -0.035
        16           c15bf         1   UNL       c15        16    -0.27787       12.0110 ; qtot   -0.313
        17           o16bf         1   UNL       o16        17    -0.34809       15.9990 ; qtot   -0.661
        18           c17bf         1   UNL       c17        18     0.14294       12.0110 ; qtot   -0.518
        19           o18bf         1   UNL       o18        19    -0.35734       15.9990 ; qtot   -0.876
        20           c19bf         1   UNL       c19        20     0.14382       12.0110 ; qtot   -0.732
        21           n20bf         1   UNL       n20        21    -1.06403       14.0070 ; qtot   -1.796
        22           c21bf         1   UNL       c21        22     0.34585       12.0110 ; qtot   -1.450
        23           o22bf         1   UNL       o22        23    -0.43887       15.9990 ; qtot   -1.889
        24           c23bf         1   UNL       c23        24     0.20700       12.0110 ; qtot   -1.682
        25           c24bf         1   UNL       c24        25    -0.29654       12.0110 ; qtot   -1.978
        26           n25bf         1   UNL       n25        26    -0.46684       14.0070 ; qtot   -2.445
        27           h26bf         1   UNL       h26        27     0.12185        1.0080 ; qtot   -2.323
        28           h27bf         1   UNL       h27        28     0.12728        1.0080 ; qtot   -2.196
        29           h28bf         1   UNL       h28        29     0.14532        1.0080 ; qtot   -2.051
        30           h29bf         1   UNL       h29        30     0.07947        1.0080 ; qtot   -1.971
        31           h30bf         1   UNL       h30        31     0.07947        1.0080 ; qtot   -1.892
        32           h31bf         1   UNL       h31        32     0.18700        1.0080 ; qtot   -1.705
        33           h32bf         1   UNL       h32        33     0.04277        1.0080 ; qtot   -1.662
        34           h33bf         1   UNL       h33        34     0.04277        1.0080 ; qtot   -1.619
        35           h34bf         1   UNL       h34        35     0.04277        1.0080 ; qtot   -1.576
        36           h35bf         1   UNL       h35        36     0.04237        1.0080 ; qtot   -1.534
        37           h36bf         1   UNL       h36        37     0.04237        1.0080 ; qtot   -1.492
        38           h37bf         1   UNL       h37        38     0.04237        1.0080 ; qtot   -1.449
        39           h38bf         1   UNL       h38        39     0.47013        1.0080 ; qtot   -0.979
        40           h39bf         1   UNL       h39        40     0.47013        1.0080 ; qtot   -0.509
        41           h40bf         1   UNL       h40        41     0.07325        1.0080 ; qtot   -0.436
        42           h41bf         1   UNL       h41        42     0.07325        1.0080 ; qtot   -0.363
        43           h42bf         1   UNL       h42        43     0.10983        1.0080 ; qtot   -0.253
        44           h43bf         1   UNL       h43        44     0.10983        1.0080 ; qtot   -0.143
        45           h44bf         1   UNL       h44        45     0.12278        1.0080 ; qtot   -0.020
        46           s45bf         1   UNL       s45        46     1.01253       32.0670 ; qtot    0.992
        47           o46bf         1   UNL       o46        47    -0.50371       15.9990 ; qtot    0.489
        48           o47bf         1   UNL       o47        48    -0.50371       15.9990 ; qtot   -0.015
        49           c48bf         1   UNL       c48        49    -0.30239       12.0110 ; qtot   -0.317
        50           h49bf         1   UNL       h49        50     0.10582        1.0080 ; qtot   -0.212
        51           h50bf         1   UNL       h50        51     0.10582        1.0080 ; qtot   -0.106
        52           h51bf         1   UNL       h51        52     0.10582        1.0080 ; qtot   -0.000

[ bonds ]
;       ai        aj funct               r               k
         1         2     1        0.139819   294837.725879
         1         6     1        0.140084   314222.153955
         1        27     1        0.108407   322899.510498
         2         3     1        0.140902   264809.762598
         2        19     1        0.137586   257251.493262
         3         4     1        0.139597   312166.799707
         3         7     1        0.151264   193899.223853
         4         5     1        0.140303   285516.604346
         4        28     1        0.108498   319886.744482
         5         6     1        0.139901   293730.692188
         5        17     1        0.137183   265062.503369
         6        45     1        0.108436   322954.594043
         7         8     1        0.153592   153621.967261
         7        30     1        0.109241   302571.256396
         7        31     1        0.109241   302571.256396
         8         9     1        0.137766   254542.108105
         8        11     1        0.122617   621123.227246
         9        10     1        0.140262   244903.560303
         9        32     1        0.101492   411234.644629
        10        12     1        0.134337   290399.835938
        10        16     1        0.139793   287882.362158
        12        13     1        0.132721   321671.430908
        13        14     1        0.141567   255983.524707
        13        23     1        0.134516   288586.777783
        14        15     1        0.141738   266111.669971
        14        22     1        0.142491   274099.447949
        15        16     1        0.140563   289985.802783
        15        21     1        0.137314   326218.977197
        16        29     1        0.108281   327746.760303
        17        18     1        0.142435   209009.799609
        18        33     1        0.109438   297412.683691
        18        34     1        0.109438   297412.683691
        18        35     1        0.109438   297412.683691
        19        20     1        0.142479   208294.045508
        20        36     1        0.109437   297369.372754
        20        37     1        0.109437   297369.372754
        20        38     1        0.109437   297369.372754
        21        39     1        0.101134   424950.626074
        21        40     1        0.101134   424950.626074
        22        26     1        0.116699  1087197.077734
        23        24     1        0.144521   171465.715991
        24        25     1        0.152658   185182.923218
        24        41     1        0.109178   305603.941357
        24        42     1        0.109178   305603.941357
        25        43     1        0.109182   313291.351855
        25        44     1        0.109182   313291.351855
        25        46     1        0.182444   125106.222217
        46        47     1        0.147376   503017.058691
        46        48     1        0.147376   503017.058691
        46        49     1        0.180968   138445.020557
        49        50     1        0.109025   319618.017480
        49        51     1        0.109025   319618.017480
        49        52     1        0.109025   319618.017480

[ angles ]
;       ai        aj        ak funct           theta             cth
         1         2         3     1      120.094742      607.684119
         1         2        19     1      123.871826      534.224645
         1         6         5     1      119.938698      728.448216
         1         6        45     1      119.632370      424.384558
         2         1         6     1      120.418236      726.595498
         2         1        27     1      120.843727      411.541945
         2         3         4     1      118.988541      687.262157
         2         3         7     1      120.258179      461.240799
         2        19        20     1      117.726273      545.121393
         3         2        19     1      115.901161      509.062101
         3         4         5     1      121.287552      716.890120
         3         4        28     1      119.276108      380.293685
         3         7         8     1      112.949295      599.413288
         3         7        30     1      110.202927      489.548110
         3         7        31     1      110.202927      489.548110
         4         3         7     1      120.758408      459.816435
         4         5         6     1      119.277245      578.078501
         4         5        17     1      119.461304      552.863862
         5         4        28     1      119.811424      419.584315
         5         6        45     1      120.521240      428.238235
         5        17        18     1      117.731750      566.712892
         6         1        27     1      118.875626      428.264985
         6         5        17     1      121.434532      567.520694
         7         8         9     1      113.833664      491.700282
         7         8        11     1      121.328224      493.112325
         8         7        30     1      107.046463      537.365773
         8         7        31     1      107.046463      537.365773
         8         9        10     1      129.069580      534.688143
         8         9        32     1      116.701096      438.836519
         9         8        11     1      124.602150      646.961023
         9        10        12     1      113.758102      582.256947
         9        10        16     1      121.951126      485.345213
        10         9        32     1      113.534424      449.375907
        10        12        13     1      118.270973      776.383285
        10        16        15     1      118.613724      856.851419
        10        16        29     1      120.376305      450.317237
        12        10        16     1      123.825233      554.462868
        12        13        14     1      123.647751      555.394462
        12        13        23     1      119.671860      553.830824
        13        14        15     1      117.900352      835.944890
        13        14        22     1      121.643105      569.149834
        13        23        24     1      117.861877      522.444919
        14        13        23     1      116.649048      484.469418
        14        15        16     1      117.811523      640.006247
        14        15        21     1      121.165833      573.180356
        14        22        26     1      176.858093      167.360000
        15        14        22     1      119.587379      527.335786
        15        16        29     1      120.382774      424.889235
        15        21        39     1      117.595009      461.050995
        15        21        40     1      117.595009      461.050995
        16        15        21     1      121.074852      515.527140
        17        18        33     1      109.556740      448.841160
        17        18        34     1      109.556740      448.841160
        17        18        35     1      109.556740      448.841160
        19        20        36     1      109.549965      451.222591
        19        20        37     1      109.549965      451.222591
        19        20        38     1      109.549965      451.222591
        23        24        25     1      108.522018      592.673725
        23        24        41     1      108.515663      460.859786
        23        24        42     1      108.515663      460.859786
        24        25        43     1      111.197815      486.539967
        24        25        44     1      111.197815      486.539967
        24        25        46     1      111.473351      771.851725
        25        24        41     1      110.577980      465.539269
        25        24        42     1      110.577965      465.539269
        25        46        47     1      107.532303      662.149155
        25        46        48     1      107.532303      662.149155
        25        46        49     1      103.573715      789.630405
        30         7        31     1      107.749405      355.690404
        33        18        34     1      109.477646      342.882139
        33        18        35     1      109.477646      342.882139
        34        18        35     1      109.477646      342.882139
        36        20        37     1      109.504967      343.329390
        36        20        38     1      109.504967      343.329390
        37        20        38     1      109.504967      343.329390
        39        21        40     1      114.641884      341.475906
        41        24        42     1      108.980209      339.750587
        43        25        44     1      109.663696      340.637363
        43        25        46     1      106.172241      577.617110
        44        25        46     1      106.172241      577.617110
        46        49        50     1      107.965355      566.196021
        46        49        51     1      107.965355      566.196021
        46        49        52     1      107.965355      566.196021
        47        46        48     1      120.308083      724.834459
        47        46        49     1      107.701828      701.663938
        48        46        49     1      107.701828      701.663938
        50        49        51     1      111.067612      345.879238
        50        49        52     1      111.067612      345.879238
        51        49        52     1      111.067612      345.879238

[ dihedrals ] ; propers for gromacs 4.5 or higher, use funct 9
;       ai        aj        ak        al funct           phase               k        pn
         1         2         3         4     9        0.000000       -0.104777         1
         1         2         3         4     9      180.000000       15.773778         2
         1         2         3         4     9        0.000000       -0.965360         3
         1         2         3         4     9      180.000000       -0.246387         4
         1         2         3         7     9        0.000000        0.185091         1
         1         2         3         7     9      180.000000       12.627113         2
         1         2         3         7     9        0.000000       -0.030228         3
         1         2         3         7     9      180.000000       -0.097883         4
         1         2        19        20     9        0.000000        1.850723         1
         1         2        19        20     9      180.000000        4.370553         2
         1         2        19        20     9        0.000000        0.139698         3
         1         2        19        20     9      180.000000        0.288909         4
         1         6         5         4     9        0.000000        0.013071         1
         1         6         5         4     9      180.000000       16.578947         2
         1         6         5         4     9        0.000000       -1.067475         3
         1         6         5         4     9      180.000000       -0.263122         4
         1         6         5        17     9        0.000000        0.441550         1
         1         6         5        17     9      180.000000       18.074192         2
         1         6         5        17     9        0.000000        0.352049         3
         1         6         5        17     9      180.000000       -0.444602         4
         2         1         6         5     9        0.000000       -0.190207         1
         2         1         6         5     9      180.000000       18.267089         2
         2         1         6         5     9        0.000000       -1.550998         3
         2         1         6         5     9      180.000000       -0.514102         4
         2         1         6        45     9        0.000000        0.193326         1
         2         1         6        45     9      180.000000       14.003000         2
         2         1         6        45     9        0.000000       -0.364827         3
         2         1         6        45     9      180.000000        0.014310         4
         2         3         4         5     9        0.000000       -0.031427         1
         2         3         4         5     9      180.000000       19.615884         2
         2         3         4         5     9        0.000000       -1.422053         3
         2         3         4         5     9      180.000000       -0.548935         4
         2         3         4        28     9        0.000000        0.150127         1
         2         3         4        28     9      180.000000       15.299075         2
         2         3         4        28     9        0.000000       -0.272853         3
         2         3         4        28     9      180.000000       -0.033723         4
         2         3         7         8     9        0.000000       -0.414553         1
         2         3         7         8     9      180.000000        0.084992         2
         2         3         7         8     9        0.000000        0.061415         3
         2         3         7         8     9      180.000000       -0.026088         4
         2         3         7        30     9        0.000000        0.014126         1
         2         3         7        30     9      180.000000       -0.047557         2
         2         3         7        30     9        0.000000        0.002740         3
         2         3         7        30     9      180.000000        0.119619         4
         2         3         7        31     9        0.000000        0.014126         1
         2         3         7        31     9      180.000000       -0.047557         2
         2         3         7        31     9        0.000000        0.002740         3
         2         3         7        31     9      180.000000        0.119619         4
         2        19        20        36     9        0.000000       -0.070219         1
         2        19        20        36     9      180.000000        0.061837         2
         2        19        20        36     9        0.000000        0.670940         3
         2        19        20        36     9      180.000000       -0.023453         4
         2        19        20        37     9        0.000000       -0.070219         1
         2        19        20        37     9      180.000000        0.061837         2
         2        19        20        37     9        0.000000        0.670940         3
         2        19        20        37     9      180.000000       -0.023453         4
         2        19        20        38     9        0.000000       -0.070219         1
         2        19        20        38     9      180.000000        0.061837         2
         2        19        20        38     9        0.000000        0.670940         3
         2        19        20        38     9      180.000000       -0.023453         4
         3         2         1         6     9        0.000000        0.024187         1
         3         2         1         6     9      180.000000       16.498551         2
         3         2         1         6     9        0.000000       -1.128473         3
         3         2         1         6     9      180.000000       -0.293334         4
         3         2         1        27     9        0.000000        0.256753         1
         3         2         1        27     9      180.000000       12.371483         2
         3         2         1        27     9        0.000000       -0.399019         3
         3         2         1        27     9      180.000000        0.105273         4
         3         2        19        20     9        0.000000       -2.149106         1
         3         2        19        20     9      180.000000        5.271254         2
         3         2        19        20     9        0.000000       -0.242937         3
         3         2        19        20     9      180.000000        0.321086         4
         3         4         5         6     9        0.000000       -0.047228         1
         3         4         5         6     9      180.000000       16.368063         2
         3         4         5         6     9        0.000000       -1.187290         3
         3         4         5         6     9      180.000000       -0.323439         4
         3         4         5        17     9        0.000000        0.204306         1
         3         4         5        17     9      180.000000       17.506353         2
         3         4         5        17     9        0.000000        0.039302         3
         3         4         5        17     9      180.000000       -0.424919         4
         3         7         8         9     9        0.000000        0.498254         1
         3         7         8         9     9      180.000000        1.150987         2
         3         7         8         9     9        0.000000        0.092740         3
         3         7         8         9     9      180.000000        0.010920         4
         3         7         8        11     9        0.000000       -3.376857         1
         3         7         8        11     9      180.000000        0.740043         2
         3         7         8        11     9        0.000000        0.007155         3
         3         7         8        11     9      180.000000        0.021552         4
         4         3         2        19     9        0.000000        0.192935         1
         4         3         2        19     9      180.000000       17.950605         2
         4         3         2        19     9        0.000000        0.238538         3
         4         3         2        19     9      180.000000       -0.333445         4
         4         3         7         8     9        0.000000       -0.620653         1
         4         3         7         8     9      180.000000        0.000251         2
         4         3         7         8     9        0.000000       -0.082351         3
         4         3         7         8     9      180.000000       -0.023489         4
         4         3         7        30     9        0.000000        0.103916         1
         4         3         7        30     9      180.000000       -0.050209         2
         4         3         7        30     9        0.000000       -0.035431         3
         4         3         7        30     9      180.000000        0.022458         4
         4         3         7        31     9        0.000000        0.103916         1
         4         3         7        31     9      180.000000       -0.050209         2
         4         3         7        31     9        0.000000       -0.035431         3
         4         3         7        31     9      180.000000        0.022458         4
         4         5         6        45     9        0.000000       -0.019108         1
         4         5         6        45     9      180.000000       13.086992         2
         4         5         6        45     9        0.000000       -0.499305         3
         4         5         6        45     9      180.000000        0.153390         4
         4         5        17        18     9        0.000000       -0.108505         1
         4         5        17        18     9      180.000000        5.272393         2
         4         5        17        18     9        0.000000       -0.134825         3
         4         5        17        18     9      180.000000        0.678597         4
         5         4         3         7     9        0.000000        0.275707         1
         5         4         3         7     9      180.000000       17.193280         2
         5         4         3         7     9        0.000000       -0.104932         3
         5         4         3         7     9      180.000000       -0.461012         4
         5         6         1        27     9        0.000000        0.166421         1
         5         6         1        27     9      180.000000       13.987742         2
         5         6         1        27     9        0.000000       -0.429917         3
         5         6         1        27     9      180.000000        0.034813         4
         5        17        18        33     9        0.000000       -0.088641         1
         5        17        18        33     9      180.000000        0.025568         2
         5        17        18        33     9        0.000000        0.680790         3
         5        17        18        33     9      180.000000       -0.032072         4
         5        17        18        34     9        0.000000       -0.088641         1
         5        17        18        34     9      180.000000        0.025568         2
         5        17        18        34     9        0.000000        0.680790         3
         5        17        18        34     9      180.000000       -0.032072         4
         5        17        18        35     9        0.000000       -0.088641         1
         5        17        18        35     9      180.000000        0.025568         2
         5        17        18        35     9        0.000000        0.680790         3
         5        17        18        35     9      180.000000       -0.032072         4
         6         1         2        19     9        0.000000        0.641214         1
         6         1         2        19     9      180.000000       18.493621         2
         6         1         2        19     9        0.000000        0.405020         3
         6         1         2        19     9      180.000000       -0.385284         4
         6         5         4        28     9        0.000000        0.256081         1
         6         5         4        28     9      180.000000       12.320239         2
         6         5         4        28     9        0.000000       -0.511030         3
         6         5         4        28     9      180.000000        0.173977         4
         6         5        17        18     9        0.000000        0.438810         1
         6         5        17        18     9      180.000000        4.992364         2
         6         5        17        18     9        0.000000       -0.138409         3
         6         5        17        18     9      180.000000        0.710296         4
         7         3         2        19     9        0.000000        0.052102         1
         7         3         2        19     9      180.000000       16.589212         2
         7         3         2        19     9        0.000000       -0.066122         3
         7         3         2        19     9      180.000000       -0.506027         4
         7         3         4        28     9        0.000000       -0.095232         1
         7         3         4        28     9      180.000000       13.561798         2
         7         3         4        28     9        0.000000       -0.412469         3
         7         3         4        28     9      180.000000        0.061941         4
         7         8         9        10     9        0.000000        0.953036         1
         7         8         9        10     9      180.000000        9.389414         2
         7         8         9        10     9        0.000000        0.383550         3
         7         8         9        10     9      180.000000       -0.691061         4
         7         8         9        32     9        0.000000        1.586875         1
         7         8         9        32     9      180.000000        9.627105         2
         7         8         9        32     9        0.000000        0.246001         3
         7         8         9        32     9      180.000000        0.510298         4
         8         9        10        12     9        0.000000       -2.686227         1
         8         9        10        12     9      180.000000        5.066668         2
         8         9        10        12     9        0.000000        0.433294         3
         8         9        10        12     9      180.000000       -0.226781         4
         8         9        10        16     9        0.000000        0.367824         1
         8         9        10        16     9      180.000000        3.339939         2
         8         9        10        16     9        0.000000       -0.088259         3
         8         9        10        16     9      180.000000        0.087734         4
         9         8         7        30     9        0.000000       -0.102699         1
         9         8         7        30     9      180.000000       -0.300971         2
         9         8         7        30     9        0.000000       -0.124593         3
         9         8         7        30     9      180.000000        0.138565         4
         9         8         7        31     9        0.000000       -0.102699         1
         9         8         7        31     9      180.000000       -0.300971         2
         9         8         7        31     9        0.000000       -0.124593         3
         9         8         7        31     9      180.000000        0.138565         4
         9        10        12        13     9        0.000000        0.709601         1
         9        10        12        13     9      180.000000       25.173696         2
         9        10        12        13     9        0.000000        0.688535         3
         9        10        12        13     9      180.000000       -0.990152         4
         9        10        16        15     9        0.000000        0.162093         1
         9        10        16        15     9      180.000000       17.408671         2
         9        10        16        15     9        0.000000        0.303134         3
         9        10        16        15     9      180.000000       -0.718301         4
         9        10        16        29     9        0.000000        0.136361         1
         9        10        16        29     9      180.000000       13.172674         2
         9        10        16        29     9        0.000000       -0.091888         3
         9        10        16        29     9      180.000000        0.103766         4
        10         9         8        11     9        0.000000       -0.840616         1
        10         9         8        11     9      180.000000       10.078041         2
        10         9         8        11     9        0.000000       -0.175423         3
        10         9         8        11     9      180.000000       -0.208874         4
        10        12        13        14     9        0.000000        0.454329         1
        10        12        13        14     9      180.000000       19.839848         2
        10        12        13        14     9        0.000000        0.563495         3
        10        12        13        14     9      180.000000       -0.846691         4
        10        12        13        23     9        0.000000        1.480768         1
        10        12        13        23     9      180.000000       24.692446         2
        10        12        13        23     9        0.000000        1.410509         3
        10        12        13        23     9      180.000000       -1.081095         4
        10        16        15        14     9        0.000000       -0.221252         1
        10        16        15        14     9      180.000000       14.625500         2
        10        16        15        14     9        0.000000       -1.286572         3
        10        16        15        14     9      180.000000       -0.424418         4
        10        16        15        21     9        0.000000       -0.032765         1
        10        16        15        21     9      180.000000       15.756841         2
        10        16        15        21     9        0.000000       -0.068443         3
        10        16        15        21     9      180.000000       -0.595816         4
        11         8         7        30     9        0.000000        0.254810         1
        11         8         7        30     9      180.000000        0.012136         2
        11         8         7        30     9        0.000000        0.062568         3
        11         8         7        30     9      180.000000        0.093519         4
        11         8         7        31     9        0.000000        0.254810         1
        11         8         7        31     9      180.000000        0.012136         2
        11         8         7        31     9        0.000000        0.062568         3
        11         8         7        31     9      180.000000        0.093519         4
        11         8         9        32     9        0.000000        0.002604         1
        11         8         9        32     9      180.000000       10.503663         2
        11         8         9        32     9        0.000000        0.191503         3
        11         8         9        32     9      180.000000        1.053032         4
        12        10         9        32     9        0.000000        3.775225         1
        12        10         9        32     9      180.000000        3.730190         2
        12        10         9        32     9        0.000000        0.217135         3
        12        10         9        32     9      180.000000       -0.319752         4
        12        10        16        15     9        0.000000       -0.276971         1
        12        10        16        15     9      180.000000       15.879808         2
        12        10        16        15     9        0.000000       -0.476804         3
        12        10        16        15     9      180.000000       -0.553410         4
        12        10        16        29     9        0.000000       -0.030188         1
        12        10        16        29     9      180.000000       12.754568         2
        12        10        16        29     9        0.000000       -0.019747         3
        12        10        16        29     9      180.000000       -0.135447         4
        12        13        14        15     9        0.000000       -0.457490         1
        12        13        14        15     9      180.000000       11.010103         2
        12        13        14        15     9        0.000000       -0.727624         3
        12        13        14        15     9      180.000000       -0.162331         4
        12        13        14        22     9        0.000000       -0.984336         1
        12        13        14        22     9      180.000000       11.578439         2
        12        13        14        22     9        0.000000       -0.514696         3
        12        13        14        22     9      180.000000       -0.452786         4
        12        13        23        24     9        0.000000        1.190674         1
        12        13        23        24     9      180.000000        7.955863         2
        12        13        23        24     9        0.000000        0.463585         3
        12        13        23        24     9      180.000000       -0.082773         4
        13        12        10        16     9        0.000000        0.403532         1
        13        12        10        16     9      180.000000       19.233248         2
        13        12        10        16     9        0.000000       -0.618019         3
        13        12        10        16     9      180.000000       -0.398857         4
        13        14        15        16     9        0.000000       -0.056265         1
        13        14        15        16     9      180.000000       12.431818         2
        13        14        15        16     9        0.000000       -0.868662         3
        13        14        15        16     9      180.000000       -0.111535         4
        13        14        15        21     9        0.000000        0.167646         1
        13        14        15        21     9      180.000000       14.554048         2
        13        14        15        21     9        0.000000        0.073307         3
        13        14        15        21     9      180.000000       -0.575187         4
        13        14        22        26     9        0.000000        0.000000         1
        13        14        22        26     9      180.000000        0.000000         2
        13        14        22        26     9        0.000000        0.000000         3
        13        14        22        26     9      180.000000        0.000000         4
        13        23        24        25     9        0.000000       -6.796700         1
        13        23        24        25     9      180.000000        0.413588         2
        13        23        24        25     9        0.000000        0.078771         3
        13        23        24        25     9      180.000000        0.069136         4
        13        23        24        41     9        0.000000        1.039265         1
        13        23        24        41     9      180.000000        0.079938         2
        13        23        24        41     9        0.000000        0.145243         3
        13        23        24        41     9      180.000000        0.035299         4
        13        23        24        42     9        0.000000        1.039265         1
        13        23        24        42     9      180.000000        0.079938         2
        13        23        24        42     9        0.000000        0.145243         3
        13        23        24        42     9      180.000000        0.035299         4
        14        13        23        24     9        0.000000       -1.465080         1
        14        13        23        24     9      180.000000        8.154415         2
        14        13        23        24     9        0.000000       -0.126903         3
        14        13        23        24     9      180.000000        0.184039         4
        14        15        16        29     9        0.000000       -0.272436         1
        14        15        16        29     9      180.000000       12.226124         2
        14        15        16        29     9        0.000000       -0.402097         3
        14        15        16        29     9      180.000000        0.036569         4
        14        15        21        39     9        0.000000        2.241294         1
        14        15        21        39     9      180.000000        6.242563         2
        14        15        21        39     9        0.000000        0.140057         3
        14        15        21        39     9      180.000000       -0.272719         4
        14        15        21        40     9        0.000000        2.241293         1
        14        15        21        40     9      180.000000        6.242563         2
        14        15        21        40     9        0.000000        0.140057         3
        14        15        21        40     9      180.000000       -0.272719         4
        15        14        13        23     9        0.000000        0.427604         1
        15        14        13        23     9      180.000000       13.275484         2
        15        14        13        23     9        0.000000        0.720763         3
        15        14        13        23     9      180.000000       -0.403142         4
        15        14        22        26     9        0.000000        0.000000         1
        15        14        22        26     9      180.000000        0.000000         2
        15        14        22        26     9        0.000000        0.000000         3
        15        14        22        26     9      180.000000        0.000000         4
        16        10         9        32     9        0.000000        1.444114         1
        16        10         9        32     9      180.000000        4.745283         2
        16        10         9        32     9        0.000000        0.907973         3
        16        10         9        32     9      180.000000       -0.000219         4
        16        15        14        22     9        0.000000       -0.081142         1
        16        15        14        22     9      180.000000       12.977246         2
        16        15        14        22     9        0.000000       -0.318499         3
        16        15        14        22     9      180.000000       -0.132217         4
        16        15        21        39     9        0.000000       -0.117483         1
        16        15        21        39     9      180.000000        6.276046         2
        16        15        21        39     9        0.000000        0.013310         3
        16        15        21        39     9      180.000000       -0.224693         4
        16        15        21        40     9        0.000000       -0.117483         1
        16        15        21        40     9      180.000000        6.276046         2
        16        15        21        40     9        0.000000        0.013310         3
        16        15        21        40     9      180.000000       -0.224693         4
        17         5         4        28     9        0.000000        0.106769         1
        17         5         4        28     9      180.000000       13.035064         2
        17         5         4        28     9        0.000000       -0.110498         3
        17         5         4        28     9      180.000000        0.218157         4
        17         5         6        45     9        0.000000        0.098252         1
        17         5         6        45     9      180.000000       12.974837         2
        17         5         6        45     9        0.000000       -0.063617         3
        17         5         6        45     9      180.000000        0.263173         4
        19         2         1        27     9        0.000000        0.226665         1
        19         2         1        27     9      180.000000       13.800826         2
        19         2         1        27     9        0.000000        0.008919         3
        19         2         1        27     9      180.000000        0.218408         4
        21        15        14        22     9        0.000000       -0.220864         1
        21        15        14        22     9      180.000000       15.158682         2
        21        15        14        22     9        0.000000       -0.153296         3
        21        15        14        22     9      180.000000       -0.573510         4
        21        15        16        29     9        0.000000       -0.174826         1
        21        15        16        29     9      180.000000       14.115709         2
        21        15        16        29     9        0.000000       -0.275957         3
        21        15        16        29     9      180.000000        0.045247         4
        22        14        13        23     9        0.000000       -0.289666         1
        22        14        13        23     9      180.000000       13.470971         2
        22        14        13        23     9        0.000000       -0.073563         3
        22        14        13        23     9      180.000000       -0.458468         4
        23        24        25        43     9        0.000000        0.203788         1
        23        24        25        43     9      180.000000        0.012089         2
        23        24        25        43     9        0.000000        0.488151         3
        23        24        25        43     9      180.000000        0.039883         4
        23        24        25        44     9        0.000000        0.203788         1
        23        24        25        44     9      180.000000        0.012089         2
        23        24        25        44     9        0.000000        0.488151         3
        23        24        25        44     9      180.000000        0.039883         4
        23        24        25        46     9        0.000000       -5.508610         1
        23        24        25        46     9      180.000000       -1.061873         2
        23        24        25        46     9        0.000000       -0.014718         3
        23        24        25        46     9      180.000000        0.043390         4
        24        25        46        47     9        0.000000        0.453497         1
        24        25        46        47     9      180.000000        0.708060         2
        24        25        46        47     9        0.000000        0.242487         3
        24        25        46        47     9      180.000000        0.020702         4
        24        25        46        48     9        0.000000        0.453497         1
        24        25        46        48     9      180.000000        0.708060         2
        24        25        46        48     9        0.000000        0.242487         3
        24        25        46        48     9      180.000000        0.020702         4
        24        25        46        49     9        0.000000        0.361793         1
        24        25        46        49     9      180.000000       -0.771586         2
        24        25        46        49     9        0.000000        0.231798         3
        24        25        46        49     9      180.000000       -0.026896         4
        25        46        49        50     9        0.000000        0.052412         1
        25        46        49        50     9      180.000000        0.001781         2
        25        46        49        50     9        0.000000        0.196162         3
        25        46        49        50     9      180.000000       -0.034762         4
        25        46        49        51     9        0.000000        0.052412         1
        25        46        49        51     9      180.000000        0.001781         2
        25        46        49        51     9        0.000000        0.196162         3
        25        46        49        51     9      180.000000       -0.034762         4
        25        46        49        52     9        0.000000        0.052412         1
        25        46        49        52     9      180.000000        0.001781         2
        25        46        49        52     9        0.000000        0.196162         3
        25        46        49        52     9      180.000000       -0.034762         4
        27         1         6        45     9        0.000000       -0.111834         1
        27         1         6        45     9      180.000000       11.440052         2
        27         1         6        45     9        0.000000       -0.704336         3
        27         1         6        45     9      180.000000        0.249920         4
        41        24        25        43     9        0.000000       -0.140656         1
        41        24        25        43     9      180.000000        0.046746         2
        41        24        25        43     9        0.000000        0.663724         3
        41        24        25        43     9      180.000000        0.015359         4
        41        24        25        44     9        0.000000       -0.140656         1
        41        24        25        44     9      180.000000        0.046746         2
        41        24        25        44     9        0.000000        0.663724         3
        41        24        25        44     9      180.000000        0.015359         4
        41        24        25        46     9        0.000000        1.425113         1
        41        24        25        46     9      180.000000       -0.023267         2
        41        24        25        46     9        0.000000        0.236124         3
        41        24        25        46     9      180.000000        0.098529         4
        42        24        25        43     9        0.000000       -0.140656         1
        42        24        25        43     9      180.000000        0.046746         2
        42        24        25        43     9        0.000000        0.663724         3
        42        24        25        43     9      180.000000        0.015359         4
        42        24        25        44     9        0.000000       -0.140656         1
        42        24        25        44     9      180.000000        0.046746         2
        42        24        25        44     9        0.000000        0.663724         3
        42        24        25        44     9      180.000000        0.015359         4
        42        24        25        46     9        0.000000        1.425113         1
        42        24        25        46     9      180.000000       -0.023267         2
        42        24        25        46     9        0.000000        0.236124         3
        42        24        25        46     9      180.000000        0.098529         4
        43        25        46        47     9        0.000000        0.050627         1
        43        25        46        47     9      180.000000       -0.046529         2
        43        25        46        47     9        0.000000        0.385812         3
        43        25        46        47     9      180.000000        0.021756         4
        43        25        46        48     9        0.000000        0.050627         1
        43        25        46        48     9      180.000000       -0.046529         2
        43        25        46        48     9        0.000000        0.385812         3
        43        25        46        48     9      180.000000        0.021756         4
        43        25        46        49     9        0.000000        0.018334         1
        43        25        46        49     9      180.000000        0.154414         2
        43        25        46        49     9        0.000000        0.306507         3
        43        25        46        49     9      180.000000       -0.003557         4
        44        25        46        47     9        0.000000        0.050627         1
        44        25        46        47     9      180.000000       -0.046529         2
        44        25        46        47     9        0.000000        0.385812         3
        44        25        46        47     9      180.000000        0.021756         4
        44        25        46        48     9        0.000000        0.050627         1
        44        25        46        48     9      180.000000       -0.046529         2
        44        25        46        48     9        0.000000        0.385812         3
        44        25        46        48     9      180.000000        0.021756         4
        44        25        46        49     9        0.000000        0.018334         1
        44        25        46        49     9      180.000000        0.154414         2
        44        25        46        49     9        0.000000        0.306507         3
        44        25        46        49     9      180.000000       -0.003557         4
        47        46        49        50     9        0.000000        0.046582         1
        47        46        49        50     9      180.000000       -0.040207         2
        47        46        49        50     9        0.000000        0.322227         3
        47        46        49        50     9      180.000000       -0.001927         4
        47        46        49        51     9        0.000000        0.046582         1
        47        46        49        51     9      180.000000       -0.040207         2
        47        46        49        51     9        0.000000        0.322227         3
        47        46        49        51     9      180.000000       -0.001927         4
        47        46        49        52     9        0.000000        0.046582         1
        47        46        49        52     9      180.000000       -0.040207         2
        47        46        49        52     9        0.000000        0.322227         3
        47        46        49        52     9      180.000000       -0.001927         4
        48        46        49        50     9        0.000000        0.046582         1
        48        46        49        50     9      180.000000       -0.040207         2
        48        46        49        50     9        0.000000        0.322227         3
        48        46        49        50     9      180.000000       -0.001927         4
        48        46        49        51     9        0.000000        0.046582         1
        48        46        49        51     9      180.000000       -0.040207         2
        48        46        49        51     9        0.000000        0.322227         3
        48        46        49        51     9      180.000000       -0.001927         4
        48        46        49        52     9        0.000000        0.046582         1
        48        46        49        52     9      180.000000       -0.040207         2
        48        46        49        52     9        0.000000        0.322227         3
        48        46        49        52     9      180.000000       -0.001927         4

[ dihedrals ] ; impropers
;       ai        aj        ak        al funct           phase               k        pn
         1         2         6        27     4      180.000000        0.188267         2
         1         6        27         2     4      180.000000        0.188267         2
         1        27         2         6     4      180.000000        0.188267         2
         6         1         5        45     4      180.000000        0.254734         2
         6         5        45         1     4      180.000000        0.254734         2
         6        45         1         5     4      180.000000        0.254734         2
         8         7         9        11     4      180.000000       19.599544         2
         8         9        11         7     4      180.000000       19.599544         2
         8        11         7         9     4      180.000000       19.599544         2
        10         9        12        16     4      180.000000        2.711848         2
        10        12        16         9     4      180.000000        2.711848         2
        10        16         9        12     4      180.000000        2.711848         2
        13        12        14        23     4      180.000000       13.305757         2
        13        14        23        12     4      180.000000       13.305757         2
        13        23        12        14     4      180.000000       13.305757         2

[ pairs ]
;       ai        aj funct
         1         4     1
         1         7     1
         1        17     1
         1        20     1
         2         5     1
         2         8     1
         2        28     1
         2        30     1
         2        31     1
         2        36     1
         2        37     1
         2        38     1
         2        45     1
         3         6     1
         3         9     1
         3        11     1
         3        17     1
         3        20     1
         3        27     1
         4         8     1
         4        18     1
         4        19     1
         4        30     1
         4        31     1
         4        45     1
         5         7     1
         5        27     1
         5        33     1
         5        34     1
         5        35     1
         6        18     1
         6        19     1
         6        28     1
         7        10     1
         7        19     1
         7        28     1
         7        32     1
         8        12     1
         8        16     1
         9        13     1
         9        15     1
         9        29     1
         9        30     1
         9        31     1
        10        11     1
        10        14     1
        10        21     1
        10        23     1
        11        30     1
        11        31     1
        11        32     1
        12        15     1
        12        22     1
        12        24     1
        12        29     1
        12        32     1
        13        16     1
        13        21     1
        13        25     1
        13        26     1
        13        41     1
        13        42     1
        14        24     1
        14        29     1
        14        39     1
        14        40     1
        15        23     1
        15        26     1
        16        22     1
        16        32     1
        16        39     1
        16        40     1
        17        28     1
        17        45     1
        19        27     1
        21        22     1
        21        29     1
        22        23     1
        23        43     1
        23        44     1
        23        46     1
        24        47     1
        24        48     1
        24        49     1
        25        50     1
        25        51     1
        25        52     1
        27        45     1
        41        43     1
        41        44     1
        41        46     1
        42        43     1
        42        44     1
        42        46     1
        43        47     1
        43        48     1
        43        49     1
        44        47     1
        44        48     1
        44        49     1
        47        50     1
        47        51     1
        47        52     1
        48        50     1
        48        51     1
        48        52     1
