; ITP file created by ByteFF-joint-25, 2025-07-14 11:37:26.033028

[ atomtypes ]
;name           bonded.type        at.num        mass        charge   ptype           sigma         epsilon
 cl0bf                                 17      0.0000       0.00000       A     3.46619e-01     1.10433e+00    ;  uncertainty sigma = 0.000017, epsilon = 0.000825
 c1bf                                   6      0.0000       0.00000       A     3.31531e-01     4.13095e-01    ;  uncertainty sigma = 0.000004, epsilon = 0.000600
 c2bf                                   6      0.0000       0.00000       A     3.31520e-01     4.13499e-01    ;  uncertainty sigma = 0.000008, epsilon = 0.000713
 c3bf                                   6      0.0000       0.00000       A     3.31531e-01     4.13050e-01    ;  uncertainty sigma = 0.000010, epsilon = 0.000544
 c4bf                                   6      0.0000       0.00000       A     3.31529e-01     4.13106e-01    ;  uncertainty sigma = 0.000012, epsilon = 0.001129
 s5bf                                  16      0.0000       0.00000       A     3.53314e-01     1.18056e+00    ;  uncertainty sigma = 0.000016, epsilon = 0.004427
 c6bf                                   6      0.0000       0.00000       A     3.31525e-01     4.13351e-01    ;  uncertainty sigma = 0.000002, epsilon = 0.000607
 c7bf                                   6      0.0000       0.00000       A     3.31523e-01     4.13491e-01    ;  uncertainty sigma = 0.000006, epsilon = 0.000436
 c8bf                                   6      0.0000       0.00000       A     3.31488e-01     4.12223e-01    ;  uncertainty sigma = 0.000027, epsilon = 0.001057
 s9bf                                  16      0.0000       0.00000       A     4.05903e-01     2.57579e-01    ;  uncertainty sigma = 0.000020, epsilon = 0.002733
 o10bf                                  8      0.0000       0.00000       A     3.04844e-01     6.12080e-01    ;  uncertainty sigma = 0.000030, epsilon = 0.001157
 o11bf                                  8      0.0000       0.00000       A     3.04844e-01     6.12080e-01    ;  uncertainty sigma = 0.000030, epsilon = 0.001157
 n12bf                                  7      0.0000       0.00000       A     3.50737e-01     2.17907e-01    ;  uncertainty sigma = 0.000090, epsilon = 0.003822
 c13bf                                  6      0.0000       0.00000       A     3.39784e-01     4.51033e-01    ;  uncertainty sigma = 0.000012, epsilon = 0.001003
 c14bf                                  6      0.0000       0.00000       A     3.39783e-01     4.50616e-01    ;  uncertainty sigma = 0.000012, epsilon = 0.000870
 c15bf                                  6      0.0000       0.00000       A     3.39778e-01     4.51121e-01    ;  uncertainty sigma = 0.000011, epsilon = 0.000952
 c16bf                                  6      0.0000       0.00000       A     3.31503e-01     4.14103e-01    ;  uncertainty sigma = 0.000019, epsilon = 0.001327
 o17bf                                  8      0.0000       0.00000       A     3.04856e-01     6.12000e-01    ;  uncertainty sigma = 0.000014, epsilon = 0.001679
 n18bf                                  7      0.0000       0.00000       A     3.18104e-01     6.84089e-01    ;  uncertainty sigma = 0.000026, epsilon = 0.002216
 c19bf                                  6      0.0000       0.00000       A     3.39765e-01     4.50085e-01    ;  uncertainty sigma = 0.000013, epsilon = 0.000893
 c20bf                                  6      0.0000       0.00000       A     3.39757e-01     4.50850e-01    ;  uncertainty sigma = 0.000009, epsilon = 0.000447
 c21bf                                  6      0.0000       0.00000       A     3.31517e-01     4.12537e-01    ;  uncertainty sigma = 0.000018, epsilon = 0.001350
 o22bf                                  8      0.0000       0.00000       A     3.04822e-01     6.12836e-01    ;  uncertainty sigma = 0.000014, epsilon = 0.000674
 n23bf                                  7      0.0000       0.00000       A     3.18074e-01     6.83799e-01    ;  uncertainty sigma = 0.000019, epsilon = 0.001496
 c24bf                                  6      0.0000       0.00000       A     3.39785e-01     4.50976e-01    ;  uncertainty sigma = 0.000006, epsilon = 0.000726
 c25bf                                  6      0.0000       0.00000       A     3.39786e-01     4.50778e-01    ;  uncertainty sigma = 0.000006, epsilon = 0.000813
 o26bf                                  8      0.0000       0.00000       A     3.15603e-01     3.03473e-01    ;  uncertainty sigma = 0.000014, epsilon = 0.001064
 c27bf                                  6      0.0000       0.00000       A     3.39786e-01     4.50778e-01    ;  uncertainty sigma = 0.000006, epsilon = 0.000813
 c28bf                                  6      0.0000       0.00000       A     3.39785e-01     4.50976e-01    ;  uncertainty sigma = 0.000006, epsilon = 0.000726
 c29bf                                  6      0.0000       0.00000       A     3.31586e-01     4.12998e-01    ;  uncertainty sigma = 0.000029, epsilon = 0.000270
 h30bf                                  1      0.0000       0.00000       A     2.62562e-01     6.70507e-02    ;  uncertainty sigma = 0.000011, epsilon = 0.000546
 h31bf                                  1      0.0000       0.00000       A     2.62575e-01     6.69536e-02    ;  uncertainty sigma = 0.000016, epsilon = 0.000625
 h32bf                                  1      0.0000       0.00000       A     2.62557e-01     6.70701e-02    ;  uncertainty sigma = 0.000009, epsilon = 0.000710
 h33bf                                  1      0.0000       0.00000       A     1.10633e-01     4.09567e-02    ;  uncertainty sigma = 0.000099, epsilon = 0.002184
 h34bf                                  1      0.0000       0.00000       A     2.42030e-01     8.68574e-02    ;  uncertainty sigma = 0.000019, epsilon = 0.001232
 h35bf                                  1      0.0000       0.00000       A     2.60025e-01     8.63275e-02    ;  uncertainty sigma = 0.000013, epsilon = 0.000679
 h36bf                                  1      0.0000       0.00000       A     2.60025e-01     8.63275e-02    ;  uncertainty sigma = 0.000013, epsilon = 0.000679
 h37bf                                  1      0.0000       0.00000       A     2.42200e-01     8.64335e-02    ;  uncertainty sigma = 0.000011, epsilon = 0.000932
 h38bf                                  1      0.0000       0.00000       A     2.42200e-01     8.64335e-02    ;  uncertainty sigma = 0.000011, epsilon = 0.000932
 h39bf                                  1      0.0000       0.00000       A     2.42203e-01     8.69613e-02    ;  uncertainty sigma = 0.000061, epsilon = 0.001014
 h40bf                                  1      0.0000       0.00000       A     2.60028e-01     8.67689e-02    ;  uncertainty sigma = 0.000014, epsilon = 0.000406
 h41bf                                  1      0.0000       0.00000       A     2.60028e-01     8.67689e-02    ;  uncertainty sigma = 0.000014, epsilon = 0.000406
 h42bf                                  1      0.0000       0.00000       A     2.60028e-01     8.67689e-02    ;  uncertainty sigma = 0.000014, epsilon = 0.000406
 h43bf                                  1      0.0000       0.00000       A     2.42216e-01     8.67300e-02    ;  uncertainty sigma = 0.000014, epsilon = 0.000623
 h44bf                                  1      0.0000       0.00000       A     2.42216e-01     8.67300e-02    ;  uncertainty sigma = 0.000014, epsilon = 0.000623
 h45bf                                  1      0.0000       0.00000       A     2.42211e-01     8.67300e-02    ;  uncertainty sigma = 0.000015, epsilon = 0.000752
 h46bf                                  1      0.0000       0.00000       A     2.42211e-01     8.67300e-02    ;  uncertainty sigma = 0.000015, epsilon = 0.000752
 h47bf                                  1      0.0000       0.00000       A     2.42211e-01     8.67300e-02    ;  uncertainty sigma = 0.000015, epsilon = 0.000752
 h48bf                                  1      0.0000       0.00000       A     2.42211e-01     8.67300e-02    ;  uncertainty sigma = 0.000015, epsilon = 0.000752
 h49bf                                  1      0.0000       0.00000       A     2.42216e-01     8.67300e-02    ;  uncertainty sigma = 0.000014, epsilon = 0.000623
 h50bf                                  1      0.0000       0.00000       A     2.42216e-01     8.67300e-02    ;  uncertainty sigma = 0.000014, epsilon = 0.000623
 h51bf                                  1      0.0000       0.00000       A     2.62621e-01     6.69560e-02    ;  uncertainty sigma = 0.000022, epsilon = 0.000640

[ moleculetype ]
;name             nrexcl
 MOL                   3

[ atoms ]
;       nr            type      resi   res      atom      cgnr      charge          mass ; qtot
         1           cl0bf         1   UNL       cl0         1    -0.11644       35.4530 ; qtot   -0.116
         2            c1bf         1   UNL        c1         2     0.03076       12.0110 ; qtot   -0.086
         3            c2bf         1   UNL        c2         3    -0.06823       12.0110 ; qtot   -0.154
         4            c3bf         1   UNL        c3         4    -0.09765       12.0110 ; qtot   -0.252
         5            c4bf         1   UNL        c4         5    -0.00673       12.0110 ; qtot   -0.258
         6            s5bf         1   UNL        s5         6     0.02425       32.0670 ; qtot   -0.234
         7            c6bf         1   UNL        c6         7    -0.08975       12.0110 ; qtot   -0.324
         8            c7bf         1   UNL        c7         8    -0.11119       12.0110 ; qtot   -0.435
         9            c8bf         1   UNL        c8         9    -0.24768       12.0110 ; qtot   -0.683
        10            s9bf         1   UNL        s9        10     1.25722       32.0670 ; qtot    0.575
        11           o10bf         1   UNL       o10        11    -0.59140       15.9990 ; qtot   -0.017
        12           o11bf         1   UNL       o11        12    -0.59140       15.9990 ; qtot   -0.608
        13           n12bf         1   UNL       n12        13    -0.76822       14.0070 ; qtot   -1.376
        14           c13bf         1   UNL       c13        14     0.12770       12.0110 ; qtot   -1.249
        15           c14bf         1   UNL       c14        15    -0.09711       12.0110 ; qtot   -1.346
        16           c15bf         1   UNL       c15        16     0.09835       12.0110 ; qtot   -1.248
        17           c16bf         1   UNL       c16        17     0.69359       12.0110 ; qtot   -0.554
        18           o17bf         1   UNL       o17        18    -0.62440       15.9990 ; qtot   -1.178
        19           n18bf         1   UNL       n18        19    -0.46819       14.0070 ; qtot   -1.647
        20           c19bf         1   UNL       c19        20     0.05357       12.0110 ; qtot   -1.593
        21           c20bf         1   UNL       c20        21    -0.09682       12.0110 ; qtot   -1.690
        22           c21bf         1   UNL       c21        22     0.65569       12.0110 ; qtot   -1.034
        23           o22bf         1   UNL       o22        23    -0.59852       15.9990 ; qtot   -1.633
        24           n23bf         1   UNL       n23        24    -0.48329       14.0070 ; qtot   -2.116
        25           c24bf         1   UNL       c24        25     0.06631       12.0110 ; qtot   -2.050
        26           c25bf         1   UNL       c25        26     0.11525       12.0110 ; qtot   -1.934
        27           o26bf         1   UNL       o26        27    -0.41112       15.9990 ; qtot   -2.345
        28           c27bf         1   UNL       c27        28     0.11525       12.0110 ; qtot   -2.230
        29           c28bf         1   UNL       c28        29     0.06631       12.0110 ; qtot   -2.164
        30           c29bf         1   UNL       c29        30     0.02834       12.0110 ; qtot   -2.136
        31           h30bf         1   UNL       h30        31     0.15693        1.0080 ; qtot   -1.979
        32           h31bf         1   UNL       h31        32     0.14618        1.0080 ; qtot   -1.832
        33           h32bf         1   UNL       h32        33     0.15109        1.0080 ; qtot   -1.681
        34           h33bf         1   UNL       h33        34     0.43318        1.0080 ; qtot   -1.248
        35           h34bf         1   UNL       h34        35     0.09162        1.0080 ; qtot   -1.157
        36           h35bf         1   UNL       h35        36     0.07326        1.0080 ; qtot   -1.083
        37           h36bf         1   UNL       h36        37     0.07326        1.0080 ; qtot   -1.010
        38           h37bf         1   UNL       h37        38     0.05597        1.0080 ; qtot   -0.954
        39           h38bf         1   UNL       h38        39     0.05597        1.0080 ; qtot   -0.898
        40           h39bf         1   UNL       h39        40     0.08023        1.0080 ; qtot   -0.818
        41           h40bf         1   UNL       h40        41     0.05231        1.0080 ; qtot   -0.766
        42           h41bf         1   UNL       h41        42     0.05231        1.0080 ; qtot   -0.713
        43           h42bf         1   UNL       h42        43     0.05231        1.0080 ; qtot   -0.661
        44           h43bf         1   UNL       h43        44     0.06503        1.0080 ; qtot   -0.596
        45           h44bf         1   UNL       h44        45     0.06503        1.0080 ; qtot   -0.531
        46           h45bf         1   UNL       h45        46     0.05533        1.0080 ; qtot   -0.476
        47           h46bf         1   UNL       h46        47     0.05533        1.0080 ; qtot   -0.420
        48           h47bf         1   UNL       h47        48     0.05533        1.0080 ; qtot   -0.365
        49           h48bf         1   UNL       h48        49     0.05533        1.0080 ; qtot   -0.310
        50           h49bf         1   UNL       h49        50     0.06503        1.0080 ; qtot   -0.245
        51           h50bf         1   UNL       h50        51     0.06503        1.0080 ; qtot   -0.179
        52           h51bf         1   UNL       h51        52     0.17949        1.0080 ; qtot    0.000

[ bonds ]
;       ai        aj funct               r               k
         1         2     1        0.175820   196030.167944    ;  uncertainty r = 0.000054, k = 3.606868
         2         3     1        0.138661   357008.916748    ;  uncertainty r = 0.000058, k = 3.539223
         2         8     1        0.140842   344873.478076    ;  uncertainty r = 0.000041, k = 2.394591
         3         4     1        0.140538   360771.171387    ;  uncertainty r = 0.000064, k = 6.929150
         3        31     1        0.108715   335292.414307    ;  uncertainty r = 0.000019, k = 1.460536
         4         5     1        0.141876   356155.645312    ;  uncertainty r = 0.000091, k = 12.070775
         4        30     1        0.144036   252828.312695    ;  uncertainty r = 0.000085, k = 12.610255
         5         6     1        0.175424   175784.219946    ;  uncertainty r = 0.000076, k = 16.222485
         5         7     1        0.139865   361274.175830    ;  uncertainty r = 0.000041, k = 2.657579
         6         9     1        0.175420   180992.590015    ;  uncertainty r = 0.000159, k = 9.689714
         7         8     1        0.138967   375674.526270    ;  uncertainty r = 0.000030, k = 3.657886
         7        32     1        0.108771   335997.825879    ;  uncertainty r = 0.000027, k = 1.085000
         8        33     1        0.108673   335746.872705    ;  uncertainty r = 0.000006, k = 1.209792
         9        10     1        0.177127   146867.350757    ;  uncertainty r = 0.000064, k = 4.335792
         9        30     1        0.136235   411807.493066    ;  uncertainty r = 0.000070, k = 4.904372
        10        11     1        0.146929   525258.604102    ;  uncertainty r = 0.000065, k = 8.171541
        10        12     1        0.146929   525258.604102    ;  uncertainty r = 0.000065, k = 8.171541
        10        13     1        0.170839   176070.363257    ;  uncertainty r = 0.000441, k = 38.993289
        13        14     1        0.145853   325967.487744    ;  uncertainty r = 0.000227, k = 23.567443
        13        34     1        0.102503   452537.088477    ;  uncertainty r = 0.000066, k = 4.496025
        14        15     1        0.153642   217518.917676    ;  uncertainty r = 0.000058, k = 11.337287
        14        17     1        0.152882   205251.324463    ;  uncertainty r = 0.000200, k = 16.619840
        14        35     1        0.109645   310616.620557    ;  uncertainty r = 0.000043, k = 2.401336
        15        16     1        0.154051   219214.019922    ;  uncertainty r = 0.000061, k = 4.273335
        15        36     1        0.109299   310844.386035    ;  uncertainty r = 0.000017, k = 1.748840
        15        37     1        0.109299   310844.386035    ;  uncertainty r = 0.000017, k = 1.748840
        16        19     1        0.146768   246650.400732    ;  uncertainty r = 0.000221, k = 12.930896
        16        38     1        0.109541   305996.165820    ;  uncertainty r = 0.000033, k = 2.444509
        16        39     1        0.109541   305996.165820    ;  uncertainty r = 0.000033, k = 2.444509
        17        18     1        0.123417   694917.965430    ;  uncertainty r = 0.000090, k = 12.430423
        17        19     1        0.136349   286304.756152    ;  uncertainty r = 0.000078, k = 23.105244
        19        20     1        0.145555   281517.671777    ;  uncertainty r = 0.000222, k = 19.681971
        20        21     1        0.153460   212444.030078    ;  uncertainty r = 0.000030, k = 6.319440
        20        22     1        0.154403   218642.780322    ;  uncertainty r = 0.000018, k = 16.462715
        20        40     1        0.109460   310823.190234    ;  uncertainty r = 0.000049, k = 2.513796
        21        41     1        0.109409   312861.000488    ;  uncertainty r = 0.000017, k = 1.141259
        21        42     1        0.109409   312861.000488    ;  uncertainty r = 0.000017, k = 1.141259
        21        43     1        0.109409   312861.000488    ;  uncertainty r = 0.000017, k = 1.141259
        22        23     1        0.123332   703381.882813    ;  uncertainty r = 0.000097, k = 9.602494
        22        24     1        0.136706   308486.621338    ;  uncertainty r = 0.000033, k = 12.395068
        24        25     1        0.146392   254501.759473    ;  uncertainty r = 0.000091, k = 8.526718
        24        29     1        0.146392   254501.759473    ;  uncertainty r = 0.000091, k = 8.526718
        25        26     1        0.152681   207263.227319    ;  uncertainty r = 0.000025, k = 4.718310
        25        44     1        0.109477   308256.276611    ;  uncertainty r = 0.000021, k = 2.245969
        25        45     1        0.109477   308256.276611    ;  uncertainty r = 0.000021, k = 2.245969
        26        27     1        0.142361   276005.563330    ;  uncertainty r = 0.000033, k = 2.914980
        26        46     1        0.109826   309629.075000    ;  uncertainty r = 0.000019, k = 1.877640
        26        47     1        0.109826   309629.075000    ;  uncertainty r = 0.000019, k = 1.877640
        27        28     1        0.142361   276005.563330    ;  uncertainty r = 0.000033, k = 2.914980
        28        29     1        0.152681   207263.227319    ;  uncertainty r = 0.000025, k = 4.718310
        28        48     1        0.109826   309629.075000    ;  uncertainty r = 0.000019, k = 1.877640
        28        49     1        0.109826   309629.075000    ;  uncertainty r = 0.000019, k = 1.877640
        29        50     1        0.109477   308256.251074    ;  uncertainty r = 0.000021, k = 2.245982
        29        51     1        0.109477   308256.276611    ;  uncertainty r = 0.000021, k = 2.245969
        30        52     1        0.108410   333218.673340    ;  uncertainty r = 0.000039, k = 1.519620

[ angles ]
;       ai        aj        ak funct           theta             cth
         1         2         3     1      120.380966      438.976334    ;  uncertainty theta = 0.001472, k = 0.073007
         1         2         8     1      119.580765      455.358518    ;  uncertainty theta = 0.001456, k = 0.093942
         2         3         4     1      117.712906      515.765241    ;  uncertainty theta = 0.003934, k = 0.079853
         2         3        31     1      121.408142      289.310582    ;  uncertainty theta = 0.002127, k = 0.131497
         2         8         7     1      120.338455      510.203163    ;  uncertainty theta = 0.002021, k = 0.076108
         2         8        33     1      120.444168      287.137789    ;  uncertainty theta = 0.001641, k = 0.049363
         3         2         8     1      122.731247      388.791254    ;  uncertainty theta = 0.002764, k = 0.089577
         3         4         5     1      118.340981      409.263652    ;  uncertainty theta = 0.003611, k = 0.140955
         3         4        30     1      127.698471      405.430660    ;  uncertainty theta = 0.002779, k = 0.168951
         4         3        31     1      121.280334      281.477074    ;  uncertainty theta = 0.002980, k = 0.084268
         4         5         6     1      111.435181      501.633707    ;  uncertainty theta = 0.002331, k = 0.181318
         4         5         7     1      119.698631      401.842760    ;  uncertainty theta = 0.003213, k = 0.196806
         4        30         9     1      112.124146      670.697320    ;  uncertainty theta = 0.003863, k = 0.205752
         4        30        52     1      123.545815      250.442352    ;  uncertainty theta = 0.002967, k = 0.081825
         5         4        30     1      112.067398      616.780246    ;  uncertainty theta = 0.003670, k = 0.170920
         5         6         9     1       89.242966     1163.817880    ;  uncertainty theta = 0.004723, k = 0.088010
         5         7         8     1      118.081802      510.983928    ;  uncertainty theta = 0.002950, k = 0.073208
         5         7        32     1      122.310440      294.263728    ;  uncertainty theta = 0.002714, k = 0.078268
         6         5         7     1      126.538635      378.419517    ;  uncertainty theta = 0.005594, k = 0.088769
         6         9        10     1      118.665367      338.100571    ;  uncertainty theta = 0.009457, k = 0.215460
         6         9        30     1      114.683449      442.926351    ;  uncertainty theta = 0.012395, k = 0.133867
         7         8        33     1      120.346024      281.422361    ;  uncertainty theta = 0.000784, k = 0.066296
         8         7        32     1      120.254662      280.365699    ;  uncertainty theta = 0.001785, k = 0.026236
         9        10        11     1      113.003113      611.824961    ;  uncertainty theta = 0.003138, k = 0.178814
         9        10        12     1      113.003113      611.824961    ;  uncertainty theta = 0.003138, k = 0.178814
         9        10        13     1      104.677773      654.322478    ;  uncertainty theta = 0.005286, k = 0.145831
         9        30        52     1      121.892067      246.897450    ;  uncertainty theta = 0.004509, k = 0.129452
        10         9        30     1      120.925743      300.844514    ;  uncertainty theta = 0.004484, k = 0.169366
        10        13        14     1      110.360374      419.458449    ;  uncertainty theta = 0.005374, k = 0.117380
        10        13        34     1      111.063065      440.467287    ;  uncertainty theta = 0.004331, k = 0.113081
        11        10        12     1      125.105019      796.067161    ;  uncertainty theta = 0.002258, k = 0.082987
        11        10        13     1      113.758240      814.968134    ;  uncertainty theta = 0.003756, k = 0.118979
        12        10        13     1      113.758240      814.968134    ;  uncertainty theta = 0.003756, k = 0.118979
        13        14        15     1      110.813522      582.281973    ;  uncertainty theta = 0.002117, k = 0.221116
        13        14        17     1      103.397507      504.632338    ;  uncertainty theta = 0.004719, k = 0.106833
        13        14        35     1      106.020554      411.108006    ;  uncertainty theta = 0.005220, k = 0.125690
        14        13        34     1      110.428833      398.947873    ;  uncertainty theta = 0.003145, k = 0.174898
        14        15        16     1      105.090866      704.961353    ;  uncertainty theta = 0.002584, k = 0.163493
        14        15        36     1      108.412819      386.708288    ;  uncertainty theta = 0.000541, k = 0.060988
        14        15        37     1      108.412819      386.708288    ;  uncertainty theta = 0.000541, k = 0.060988
        14        17        18     1      125.981590      461.544531    ;  uncertainty theta = 0.003053, k = 0.152205
        14        17        19     1      111.585571      487.843636    ;  uncertainty theta = 0.004459, k = 0.113759
        15        14        17     1      105.885330      714.826083    ;  uncertainty theta = 0.003343, k = 0.112684
        15        14        35     1      109.294922      381.983348    ;  uncertainty theta = 0.004210, k = 0.166194
        15        16        19     1      104.783669      782.725809    ;  uncertainty theta = 0.002755, k = 0.099545
        15        16        38     1      110.273422      402.520132    ;  uncertainty theta = 0.001363, k = 0.041871
        15        16        39     1      110.273422      402.520132    ;  uncertainty theta = 0.001363, k = 0.041871
        16        15        36     1      109.696510      408.338730    ;  uncertainty theta = 0.001401, k = 0.098939
        16        15        37     1      109.696510      408.338730    ;  uncertainty theta = 0.001401, k = 0.098939
        16        19        17     1      113.800400      558.185412    ;  uncertainty theta = 0.004051, k = 0.196713
        16        19        20     1      116.627670      418.914317    ;  uncertainty theta = 0.004736, k = 0.139254
        17        14        35     1      108.395241      373.986370    ;  uncertainty theta = 0.002018, k = 0.148960
        17        19        20     1      115.859238      394.898134    ;  uncertainty theta = 0.005834, k = 0.223208
        18        17        19     1      126.441208      689.779605    ;  uncertainty theta = 0.003327, k = 0.081511
        19        16        38     1      108.898422      451.460182    ;  uncertainty theta = 0.000848, k = 0.056988
        19        16        39     1      108.898422      451.460182    ;  uncertainty theta = 0.000848, k = 0.056988
        19        20        21     1      110.632401      680.881263    ;  uncertainty theta = 0.005659, k = 0.187610
        19        20        22     1      106.307907      510.576611    ;  uncertainty theta = 0.004206, k = 0.177546
        19        20        40     1      104.193527      439.162245    ;  uncertainty theta = 0.004577, k = 0.070621
        20        21        41     1      107.700577      390.638257    ;  uncertainty theta = 0.001974, k = 0.049172
        20        21        42     1      107.700577      390.638257    ;  uncertainty theta = 0.001974, k = 0.049172
        20        21        43     1      107.700577      390.638257    ;  uncertainty theta = 0.001974, k = 0.049172
        20        22        23     1      123.488663      491.647772    ;  uncertainty theta = 0.006202, k = 0.099047
        20        22        24     1      112.431114      386.828280    ;  uncertainty theta = 0.005821, k = 0.248360
        21        20        22     1      107.996933      498.807419    ;  uncertainty theta = 0.002482, k = 0.128252
        21        20        40     1      108.264465      418.620896    ;  uncertainty theta = 0.003532, k = 0.103854
        22        20        40     1      108.421043      367.404340    ;  uncertainty theta = 0.006220, k = 0.162230
        22        24        25     1      116.829430      363.497960    ;  uncertainty theta = 0.002063, k = 0.124181
        22        24        29     1      116.829430      363.497960    ;  uncertainty theta = 0.002063, k = 0.124181
        23        22        24     1      124.422546      748.757049    ;  uncertainty theta = 0.002982, k = 0.183298
        24        25        26     1      110.182350      714.010875    ;  uncertainty theta = 0.000722, k = 0.109108
        24        25        44     1      108.304482      458.396540    ;  uncertainty theta = 0.000957, k = 0.042005
        24        25        45     1      108.304482      458.396540    ;  uncertainty theta = 0.000957, k = 0.042005
        24        29        28     1      110.182350      714.010875    ;  uncertainty theta = 0.000722, k = 0.109108
        24        29        50     1      108.304482      458.396540    ;  uncertainty theta = 0.000957, k = 0.042005
        24        29        51     1      108.304482      458.396540    ;  uncertainty theta = 0.000957, k = 0.042005
        25        24        29     1      115.684769      415.199370    ;  uncertainty theta = 0.005388, k = 0.132019
        25        26        27     1      111.287369      644.552363    ;  uncertainty theta = 0.002689, k = 0.032587
        25        26        46     1      109.515793      404.665536    ;  uncertainty theta = 0.000894, k = 0.016388
        25        26        47     1      109.515793      404.665536    ;  uncertainty theta = 0.000894, k = 0.016388
        26        25        44     1      109.080734      409.167122    ;  uncertainty theta = 0.000740, k = 0.033495
        26        25        45     1      109.080734      409.167122    ;  uncertainty theta = 0.000740, k = 0.033495
        26        27        28     1      110.179764      541.020197    ;  uncertainty theta = 0.002124, k = 0.077936
        27        26        46     1      107.084984      465.302572    ;  uncertainty theta = 0.000967, k = 0.023146
        27        26        47     1      107.084984      465.302572    ;  uncertainty theta = 0.000967, k = 0.023146
        27        28        29     1      111.287369      644.552363    ;  uncertainty theta = 0.002689, k = 0.032587
        27        28        48     1      107.084984      465.302572    ;  uncertainty theta = 0.000967, k = 0.023146
        27        28        49     1      107.084984      465.302572    ;  uncertainty theta = 0.000967, k = 0.023146
        28        29        50     1      109.080734      409.167122    ;  uncertainty theta = 0.000740, k = 0.033495
        28        29        51     1      109.080734      409.167122    ;  uncertainty theta = 0.000740, k = 0.033495
        29        28        48     1      109.515793      404.665536    ;  uncertainty theta = 0.000894, k = 0.016388
        29        28        49     1      109.515793      404.665536    ;  uncertainty theta = 0.000894, k = 0.016388
        36        15        37     1      106.440086      304.816109    ;  uncertainty theta = 0.003856, k = 0.068106
        38        16        39     1      105.856216      304.101580    ;  uncertainty theta = 0.002097, k = 0.072369
        41        21        42     1      105.685402      315.694087    ;  uncertainty theta = 0.001842, k = 0.014287
        41        21        43     1      105.685402      315.694087    ;  uncertainty theta = 0.001842, k = 0.014287
        42        21        43     1      105.685410      315.694087    ;  uncertainty theta = 0.001842, k = 0.014287
        44        25        45     1      105.962692      319.495222    ;  uncertainty theta = 0.000795, k = 0.039018
        46        26        47     1      107.529320      317.902537    ;  uncertainty theta = 0.001237, k = 0.038568
        48        28        49     1      107.529320      317.902537    ;  uncertainty theta = 0.001237, k = 0.038568
        50        29        51     1      105.962692      319.495222    ;  uncertainty theta = 0.000795, k = 0.039019

[ dihedrals ] ; propers for gromacs 4.5 or higher, use funct 9
;       ai        aj        ak        al funct           phase               k        pn
         1         2         3         4     9        0.000000       -0.023102         1    ;  uncertainty k = 0.235155
         1         2         3         4     9      180.000000       12.320029         2    ;  uncertainty k = 0.523400
         1         2         3         4     9        0.000000        1.668694         3    ;  uncertainty k = 0.197814
         1         2         3         4     9      180.000000        1.497802         4    ;  uncertainty k = 0.357300
         1         2         3        31     9        0.000000       -0.294841         1    ;  uncertainty k = 0.408890
         1         2         3        31     9      180.000000        8.520280         2    ;  uncertainty k = 0.439286
         1         2         3        31     9        0.000000        0.748755         3    ;  uncertainty k = 0.239752
         1         2         3        31     9      180.000000        1.034263         4    ;  uncertainty k = 0.278877
         1         2         8         7     9        0.000000        0.192775         1    ;  uncertainty k = 0.062104
         1         2         8         7     9      180.000000        8.716232         2    ;  uncertainty k = 0.678064
         1         2         8         7     9        0.000000        1.480851         3    ;  uncertainty k = 0.473347
         1         2         8         7     9      180.000000        1.610878         4    ;  uncertainty k = 0.191010
         1         2         8        33     9        0.000000       -0.029107         1    ;  uncertainty k = 0.183341
         1         2         8        33     9      180.000000        7.187017         2    ;  uncertainty k = 0.282541
         1         2         8        33     9        0.000000        0.642044         3    ;  uncertainty k = 0.302625
         1         2         8        33     9      180.000000        0.904957         4    ;  uncertainty k = 0.150321
         2         3         4         5     9        0.000000        0.048289         1    ;  uncertainty k = 0.519969
         2         3         4         5     9      180.000000       13.991354         2    ;  uncertainty k = 0.284063
         2         3         4         5     9        0.000000       -1.459201         3    ;  uncertainty k = 0.496755
         2         3         4         5     9      180.000000        0.641716         4    ;  uncertainty k = 0.218200
         2         3         4        30     9        0.000000        0.387793         1    ;  uncertainty k = 0.829514
         2         3         4        30     9      180.000000        9.024636         2    ;  uncertainty k = 0.320201
         2         3         4        30     9        0.000000        0.823349         3    ;  uncertainty k = 0.175382
         2         3         4        30     9      180.000000        1.360854         4    ;  uncertainty k = 0.273404
         2         8         7         5     9        0.000000       -0.027870         1    ;  uncertainty k = 0.198124
         2         8         7         5     9      180.000000       16.011498         2    ;  uncertainty k = 0.397299
         2         8         7         5     9        0.000000       -0.581030         3    ;  uncertainty k = 0.685723
         2         8         7         5     9      180.000000        0.680589         4    ;  uncertainty k = 0.465269
         2         8         7        32     9        0.000000        0.047031         1    ;  uncertainty k = 0.178860
         2         8         7        32     9      180.000000        8.645471         2    ;  uncertainty k = 0.395524
         2         8         7        32     9        0.000000        1.591095         3    ;  uncertainty k = 0.287894
         2         8         7        32     9      180.000000        1.899089         4    ;  uncertainty k = 0.267666
         3         2         8         7     9        0.000000       -0.016158         1    ;  uncertainty k = 0.259484
         3         2         8         7     9      180.000000        8.722307         2    ;  uncertainty k = 0.531032
         3         2         8         7     9        0.000000       -0.089680         3    ;  uncertainty k = 0.490213
         3         2         8         7     9      180.000000        1.152324         4    ;  uncertainty k = 0.277743
         3         2         8        33     9        0.000000       -0.087472         1    ;  uncertainty k = 0.135890
         3         2         8        33     9      180.000000        5.577921         2    ;  uncertainty k = 0.594738
         3         2         8        33     9        0.000000        1.278305         3    ;  uncertainty k = 0.270007
         3         2         8        33     9      180.000000        1.404938         4    ;  uncertainty k = 0.142738
         3         4         5         6     9        0.000000        0.004392         1    ;  uncertainty k = 0.607970
         3         4         5         6     9      180.000000        8.228029         2    ;  uncertainty k = 0.202482
         3         4         5         6     9        0.000000        0.502376         3    ;  uncertainty k = 0.478204
         3         4         5         6     9      180.000000        1.175810         4    ;  uncertainty k = 0.217358
         3         4         5         7     9        0.000000       -0.294208         1    ;  uncertainty k = 0.507604
         3         4         5         7     9      180.000000        9.164345         2    ;  uncertainty k = 0.732944
         3         4         5         7     9        0.000000        0.118722         3    ;  uncertainty k = 0.292676
         3         4         5         7     9      180.000000        1.087904         4    ;  uncertainty k = 0.269467
         3         4        30         9     9        0.000000       -0.284352         1    ;  uncertainty k = 0.449850
         3         4        30         9     9      180.000000        7.314593         2    ;  uncertainty k = 0.365739
         3         4        30         9     9        0.000000        0.526433         3    ;  uncertainty k = 0.345942
         3         4        30         9     9      180.000000        0.478675         4    ;  uncertainty k = 0.297561
         3         4        30        52     9        0.000000        0.359009         1    ;  uncertainty k = 0.424808
         3         4        30        52     9      180.000000        5.385496         2    ;  uncertainty k = 0.567394
         3         4        30        52     9        0.000000        1.197263         3    ;  uncertainty k = 0.181594
         3         4        30        52     9      180.000000        0.151221         4    ;  uncertainty k = 0.084796
         4         3         2         8     9        0.000000        0.043200         1    ;  uncertainty k = 0.210251
         4         3         2         8     9      180.000000       11.583476         2    ;  uncertainty k = 0.506819
         4         3         2         8     9        0.000000        0.305919         3    ;  uncertainty k = 0.451961
         4         3         2         8     9      180.000000        1.123753         4    ;  uncertainty k = 0.450769
         4         5         6         9     9        0.000000       -0.624979         1    ;  uncertainty k = 0.767996
         4         5         6         9     9      180.000000       15.046714         2    ;  uncertainty k = 0.836655
         4         5         6         9     9        0.000000       -5.958164         3    ;  uncertainty k = 1.356822
         4         5         6         9     9      180.000000        0.483838         4    ;  uncertainty k = 0.863191
         4         5         7         8     9        0.000000        0.009334         1    ;  uncertainty k = 0.336261
         4         5         7         8     9      180.000000       12.563675         2    ;  uncertainty k = 0.368434
         4         5         7         8     9        0.000000       -1.099209         3    ;  uncertainty k = 0.279458
         4         5         7         8     9      180.000000        0.854980         4    ;  uncertainty k = 0.265312
         4         5         7        32     9        0.000000        0.017194         1    ;  uncertainty k = 0.318200
         4         5         7        32     9      180.000000        6.578529         2    ;  uncertainty k = 0.844726
         4         5         7        32     9        0.000000        1.538909         3    ;  uncertainty k = 0.187309
         4         5         7        32     9      180.000000        1.385789         4    ;  uncertainty k = 0.286129
         4        30         9         6     9        0.000000       -0.561775         1    ;  uncertainty k = 0.695793
         4        30         9         6     9      180.000000       19.562575         2    ;  uncertainty k = 0.275358
         4        30         9         6     9        0.000000       -1.354589         3    ;  uncertainty k = 0.666676
         4        30         9         6     9      180.000000        0.832077         4    ;  uncertainty k = 0.546015
         4        30         9        10     9        0.000000        0.736815         1    ;  uncertainty k = 0.835667
         4        30         9        10     9      180.000000       15.665989         2    ;  uncertainty k = 0.161812
         4        30         9        10     9        0.000000        2.201775         3    ;  uncertainty k = 0.413999
         4        30         9        10     9      180.000000        0.638687         4    ;  uncertainty k = 0.275465
         5         4         3        31     9        0.000000       -0.085029         1    ;  uncertainty k = 0.469878
         5         4         3        31     9      180.000000        7.183827         2    ;  uncertainty k = 0.588880
         5         4         3        31     9        0.000000        1.300859         3    ;  uncertainty k = 0.259713
         5         4         3        31     9      180.000000        1.364962         4    ;  uncertainty k = 0.262079
         5         4        30         9     9        0.000000       -0.512612         1    ;  uncertainty k = 0.229596
         5         4        30         9     9      180.000000       13.405005         2    ;  uncertainty k = 0.408069
         5         4        30         9     9        0.000000       -4.790465         3    ;  uncertainty k = 0.985005
         5         4        30         9     9      180.000000        1.148296         4    ;  uncertainty k = 0.520382
         5         4        30        52     9        0.000000       -0.296376         1    ;  uncertainty k = 0.721890
         5         4        30        52     9      180.000000        7.965499         2    ;  uncertainty k = 0.670027
         5         4        30        52     9        0.000000        0.858755         3    ;  uncertainty k = 0.554673
         5         4        30        52     9      180.000000        0.221775         4    ;  uncertainty k = 0.255621
         5         6         9        10     9        0.000000        1.497885         1    ;  uncertainty k = 1.463494
         5         6         9        10     9      180.000000        5.370190         2    ;  uncertainty k = 1.169157
         5         6         9        10     9        0.000000        1.488857         3    ;  uncertainty k = 0.238187
         5         6         9        10     9      180.000000        0.135537         4    ;  uncertainty k = 0.241316
         5         6         9        30     9        0.000000       -0.819623         1    ;  uncertainty k = 1.044732
         5         6         9        30     9      180.000000       13.027196         2    ;  uncertainty k = 0.142096
         5         6         9        30     9        0.000000       -6.012558         3    ;  uncertainty k = 0.884348
         5         6         9        30     9      180.000000        1.213642         4    ;  uncertainty k = 0.623618
         5         7         8        33     9        0.000000        0.098024         1    ;  uncertainty k = 0.159409
         5         7         8        33     9      180.000000       10.608911         2    ;  uncertainty k = 0.270478
         5         7         8        33     9        0.000000        1.322725         3    ;  uncertainty k = 0.364547
         5         7         8        33     9      180.000000        1.634308         4    ;  uncertainty k = 0.158615
         6         5         4        30     9        0.000000       -0.491805         1    ;  uncertainty k = 0.694076
         6         5         4        30     9      180.000000       11.091854         2    ;  uncertainty k = 0.728602
         6         5         4        30     9        0.000000       -0.502301         3    ;  uncertainty k = 0.892255
         6         5         4        30     9      180.000000        1.184806         4    ;  uncertainty k = 0.225394
         6         5         7         8     9        0.000000        0.169741         1    ;  uncertainty k = 0.534802
         6         5         7         8     9      180.000000        8.798329         2    ;  uncertainty k = 0.532004
         6         5         7         8     9        0.000000        1.184246         3    ;  uncertainty k = 0.234559
         6         5         7         8     9      180.000000        1.399047         4    ;  uncertainty k = 0.352380
         6         5         7        32     9        0.000000        0.004835         1    ;  uncertainty k = 0.503858
         6         5         7        32     9      180.000000        5.233151         2    ;  uncertainty k = 0.654983
         6         5         7        32     9        0.000000        0.851817         3    ;  uncertainty k = 0.181240
         6         5         7        32     9      180.000000        0.722345         4    ;  uncertainty k = 0.212471
         6         9        10        11     9        0.000000       -7.586834         1    ;  uncertainty k = 0.680847
         6         9        10        11     9      180.000000        1.094711         2    ;  uncertainty k = 0.720316
         6         9        10        11     9        0.000000        0.786468         3    ;  uncertainty k = 0.232498
         6         9        10        11     9      180.000000        0.022303         4    ;  uncertainty k = 0.145531
         6         9        10        12     9        0.000000       -7.586834         1    ;  uncertainty k = 0.680847
         6         9        10        12     9      180.000000        1.094711         2    ;  uncertainty k = 0.720316
         6         9        10        12     9        0.000000        0.786468         3    ;  uncertainty k = 0.232498
         6         9        10        12     9      180.000000        0.022303         4    ;  uncertainty k = 0.145531
         6         9        10        13     9        0.000000       -2.785387         1    ;  uncertainty k = 1.200642
         6         9        10        13     9      180.000000        0.697826         2    ;  uncertainty k = 1.031148
         6         9        10        13     9        0.000000        0.599305         3    ;  uncertainty k = 0.447410
         6         9        10        13     9      180.000000       -0.141732         4    ;  uncertainty k = 0.220402
         6         9        30        52     9        0.000000        0.122452         1    ;  uncertainty k = 0.529037
         6         9        30        52     9      180.000000       12.227427         2    ;  uncertainty k = 0.436951
         6         9        30        52     9        0.000000        1.870953         3    ;  uncertainty k = 0.216096
         6         9        30        52     9      180.000000        1.130721         4    ;  uncertainty k = 0.276872
         7         5         4        30     9        0.000000       -0.233688         1    ;  uncertainty k = 0.713375
         7         5         4        30     9      180.000000        8.856180         2    ;  uncertainty k = 0.637825
         7         5         4        30     9        0.000000        0.538060         3    ;  uncertainty k = 0.372121
         7         5         4        30     9      180.000000        1.259211         4    ;  uncertainty k = 0.237535
         7         5         6         9     9        0.000000       -0.272073         1    ;  uncertainty k = 2.107754
         7         5         6         9     9      180.000000        7.135178         2    ;  uncertainty k = 1.312789
         7         5         6         9     9        0.000000        0.831976         3    ;  uncertainty k = 0.289985
         7         5         6         9     9      180.000000        0.630173         4    ;  uncertainty k = 0.553348
         8         2         3        31     9        0.000000        0.071564         1    ;  uncertainty k = 0.261671
         8         2         3        31     9      180.000000        7.017613         2    ;  uncertainty k = 0.521004
         8         2         3        31     9        0.000000        1.534809         3    ;  uncertainty k = 0.296260
         8         2         3        31     9      180.000000        1.674188         4    ;  uncertainty k = 0.154676
         9        10        13        14     9        0.000000       -4.921689         1    ;  uncertainty k = 1.953738
         9        10        13        14     9      180.000000       -3.474365         2    ;  uncertainty k = 0.653518
         9        10        13        14     9        0.000000        2.364135         3    ;  uncertainty k = 0.679339
         9        10        13        14     9      180.000000        0.024595         4    ;  uncertainty k = 0.349945
         9        10        13        34     9        0.000000        1.181862         1    ;  uncertainty k = 1.209587
         9        10        13        34     9      180.000000       -5.199461         2    ;  uncertainty k = 0.662787
         9        10        13        34     9        0.000000       -0.642460         3    ;  uncertainty k = 0.599161
         9        10        13        34     9      180.000000       -0.105486         4    ;  uncertainty k = 0.206064
        10         9        30        52     9        0.000000       -0.124795         1    ;  uncertainty k = 0.475076
        10         9        30        52     9      180.000000        9.689726         2    ;  uncertainty k = 0.472528
        10         9        30        52     9        0.000000        1.531327         3    ;  uncertainty k = 0.246620
        10         9        30        52     9      180.000000        0.634117         4    ;  uncertainty k = 0.129107
        10        13        14        15     9        0.000000       -3.252772         1    ;  uncertainty k = 1.526757
        10        13        14        15     9      180.000000       -1.527380         2    ;  uncertainty k = 0.827013
        10        13        14        15     9        0.000000        0.558648         3    ;  uncertainty k = 0.218971
        10        13        14        15     9      180.000000        0.024758         4    ;  uncertainty k = 0.175357
        10        13        14        17     9        0.000000        2.992730         1    ;  uncertainty k = 1.327945
        10        13        14        17     9      180.000000       -3.506221         2    ;  uncertainty k = 0.989731
        10        13        14        17     9        0.000000       -0.042502         3    ;  uncertainty k = 0.110623
        10        13        14        17     9      180.000000        0.204024         4    ;  uncertainty k = 0.239600
        10        13        14        35     9        0.000000        2.591559         1    ;  uncertainty k = 1.678174
        10        13        14        35     9      180.000000       -3.072554         2    ;  uncertainty k = 1.193464
        10        13        14        35     9        0.000000        0.305685         3    ;  uncertainty k = 0.363075
        10        13        14        35     9      180.000000        0.053464         4    ;  uncertainty k = 0.067402
        11        10         9        30     9        0.000000        2.057054         1    ;  uncertainty k = 1.000458
        11        10         9        30     9      180.000000        1.211175         2    ;  uncertainty k = 0.460390
        11        10         9        30     9        0.000000        0.405833         3    ;  uncertainty k = 0.068338
        11        10         9        30     9      180.000000        0.096084         4    ;  uncertainty k = 0.168100
        11        10        13        14     9        0.000000        1.100186         1    ;  uncertainty k = 1.268963
        11        10        13        14     9      180.000000        2.360693         2    ;  uncertainty k = 0.431868
        11        10        13        14     9        0.000000        1.541661         3    ;  uncertainty k = 0.465193
        11        10        13        14     9      180.000000       -0.343152         4    ;  uncertainty k = 0.299345
        11        10        13        34     9        0.000000        7.536546         1    ;  uncertainty k = 0.712320
        11        10        13        34     9      180.000000        0.533844         2    ;  uncertainty k = 0.824366
        11        10        13        34     9        0.000000       -0.438024         3    ;  uncertainty k = 0.202382
        11        10        13        34     9      180.000000       -0.148568         4    ;  uncertainty k = 0.223517
        12        10         9        30     9        0.000000        2.057054         1    ;  uncertainty k = 1.000458
        12        10         9        30     9      180.000000        1.211175         2    ;  uncertainty k = 0.460390
        12        10         9        30     9        0.000000        0.405833         3    ;  uncertainty k = 0.068338
        12        10         9        30     9      180.000000        0.096084         4    ;  uncertainty k = 0.168100
        12        10        13        14     9        0.000000        1.100186         1    ;  uncertainty k = 1.268963
        12        10        13        14     9      180.000000        2.360693         2    ;  uncertainty k = 0.431868
        12        10        13        14     9        0.000000        1.541661         3    ;  uncertainty k = 0.465193
        12        10        13        14     9      180.000000       -0.343152         4    ;  uncertainty k = 0.299345
        12        10        13        34     9        0.000000        7.536546         1    ;  uncertainty k = 0.712320
        12        10        13        34     9      180.000000        0.533844         2    ;  uncertainty k = 0.824366
        12        10        13        34     9        0.000000       -0.438024         3    ;  uncertainty k = 0.202382
        12        10        13        34     9      180.000000       -0.148568         4    ;  uncertainty k = 0.223517
        13        10         9        30     9        0.000000        2.925147         1    ;  uncertainty k = 1.316829
        13        10         9        30     9      180.000000        1.578906         2    ;  uncertainty k = 0.411594
        13        10         9        30     9        0.000000       -0.130508         3    ;  uncertainty k = 0.314734
        13        10         9        30     9      180.000000       -0.048602         4    ;  uncertainty k = 0.223409
        13        14        15        16     9        0.000000       -2.673566         1    ;  uncertainty k = 1.999000
        13        14        15        16     9      180.000000        0.134999         2    ;  uncertainty k = 0.485529
        13        14        15        16     9        0.000000        1.179017         3    ;  uncertainty k = 0.356891
        13        14        15        16     9      180.000000       -0.068891         4    ;  uncertainty k = 0.110695
        13        14        15        36     9        0.000000       -0.076072         1    ;  uncertainty k = 0.384009
        13        14        15        36     9      180.000000       -0.088130         2    ;  uncertainty k = 0.266944
        13        14        15        36     9        0.000000        1.220285         3    ;  uncertainty k = 0.207977
        13        14        15        36     9      180.000000        0.034595         4    ;  uncertainty k = 0.165275
        13        14        15        37     9        0.000000       -0.076072         1    ;  uncertainty k = 0.384009
        13        14        15        37     9      180.000000       -0.088130         2    ;  uncertainty k = 0.266944
        13        14        15        37     9        0.000000        1.220285         3    ;  uncertainty k = 0.207977
        13        14        15        37     9      180.000000        0.034595         4    ;  uncertainty k = 0.165275
        13        14        17        18     9        0.000000        0.714822         1    ;  uncertainty k = 1.245970
        13        14        17        18     9      180.000000        5.295990         2    ;  uncertainty k = 0.735965
        13        14        17        18     9        0.000000        0.623755         3    ;  uncertainty k = 0.343413
        13        14        17        18     9      180.000000        0.226353         4    ;  uncertainty k = 0.192090
        13        14        17        19     9        0.000000       -1.053606         1    ;  uncertainty k = 1.117428
        13        14        17        19     9      180.000000        3.396734         2    ;  uncertainty k = 0.712359
        13        14        17        19     9        0.000000        1.140704         3    ;  uncertainty k = 0.287433
        13        14        17        19     9      180.000000        0.427143         4    ;  uncertainty k = 0.178761
        14        15        16        19     9        0.000000       -0.900393         1    ;  uncertainty k = 0.824844
        14        15        16        19     9      180.000000        2.790783         2    ;  uncertainty k = 1.038021
        14        15        16        19     9        0.000000        0.577165         3    ;  uncertainty k = 0.450166
        14        15        16        19     9      180.000000       -1.567199         4    ;  uncertainty k = 0.413907
        14        15        16        38     9        0.000000        0.508141         1    ;  uncertainty k = 0.387437
        14        15        16        38     9      180.000000       -1.457961         2    ;  uncertainty k = 0.267737
        14        15        16        38     9        0.000000       -0.250955         3    ;  uncertainty k = 0.202329
        14        15        16        38     9      180.000000        0.083898         4    ;  uncertainty k = 0.135319
        14        15        16        39     9        0.000000        0.508141         1    ;  uncertainty k = 0.387437
        14        15        16        39     9      180.000000       -1.457961         2    ;  uncertainty k = 0.267737
        14        15        16        39     9        0.000000       -0.250955         3    ;  uncertainty k = 0.202329
        14        15        16        39     9      180.000000        0.083898         4    ;  uncertainty k = 0.135319
        14        17        19        16     9        0.000000        2.446281         1    ;  uncertainty k = 3.352831
        14        17        19        16     9      180.000000        7.692926         2    ;  uncertainty k = 1.164162
        14        17        19        16     9        0.000000        0.576922         3    ;  uncertainty k = 0.591422
        14        17        19        16     9      180.000000        0.260320         4    ;  uncertainty k = 0.390503
        14        17        19        20     9        0.000000        6.268749         1    ;  uncertainty k = 0.714423
        14        17        19        20     9      180.000000        8.670159         2    ;  uncertainty k = 0.732612
        14        17        19        20     9        0.000000        1.742597         3    ;  uncertainty k = 0.552802
        14        17        19        20     9      180.000000       -0.110520         4    ;  uncertainty k = 0.365021
        15        14        13        34     9        0.000000        4.066420         1    ;  uncertainty k = 1.427581
        15        14        13        34     9      180.000000       -3.677248         2    ;  uncertainty k = 0.721727
        15        14        13        34     9        0.000000        0.420882         3    ;  uncertainty k = 0.255218
        15        14        13        34     9      180.000000       -0.031156         4    ;  uncertainty k = 0.097571
        15        14        17        18     9        0.000000       -2.063845         1    ;  uncertainty k = 1.005656
        15        14        17        18     9      180.000000        2.959955         2    ;  uncertainty k = 0.800500
        15        14        17        18     9        0.000000        0.798161         3    ;  uncertainty k = 0.336073
        15        14        17        18     9      180.000000        0.507020         4    ;  uncertainty k = 0.177528
        15        14        17        19     9        0.000000       -3.401880         1    ;  uncertainty k = 1.863087
        15        14        17        19     9      180.000000        5.247245         2    ;  uncertainty k = 1.537078
        15        14        17        19     9        0.000000        0.089655         3    ;  uncertainty k = 0.514961
        15        14        17        19     9      180.000000        0.658535         4    ;  uncertainty k = 0.269589
        15        16        19        17     9        0.000000       -1.271696         1    ;  uncertainty k = 1.646556
        15        16        19        17     9      180.000000        3.031980         2    ;  uncertainty k = 0.927563
        15        16        19        17     9        0.000000       -0.420830         3    ;  uncertainty k = 0.323621
        15        16        19        17     9      180.000000        0.331591         4    ;  uncertainty k = 0.299174
        15        16        19        20     9        0.000000       -0.500053         1    ;  uncertainty k = 1.100375
        15        16        19        20     9      180.000000        1.256366         2    ;  uncertainty k = 0.392406
        15        16        19        20     9        0.000000        1.672566         3    ;  uncertainty k = 0.563027
        15        16        19        20     9      180.000000       -0.085895         4    ;  uncertainty k = 0.253752
        16        15        14        17     9        0.000000       -0.494033         1    ;  uncertainty k = 0.527541
        16        15        14        17     9      180.000000        3.655257         2    ;  uncertainty k = 1.314088
        16        15        14        17     9        0.000000       -0.080141         3    ;  uncertainty k = 0.299413
        16        15        14        17     9      180.000000       -0.133206         4    ;  uncertainty k = 0.238508
        16        15        14        35     9        0.000000       -1.046147         1    ;  uncertainty k = 0.683850
        16        15        14        35     9      180.000000        0.201248         2    ;  uncertainty k = 0.505601
        16        15        14        35     9        0.000000        0.194718         3    ;  uncertainty k = 0.165680
        16        15        14        35     9      180.000000       -0.007863         4    ;  uncertainty k = 0.028810
        16        19        17        18     9        0.000000        1.706007         1    ;  uncertainty k = 1.828933
        16        19        17        18     9      180.000000       15.708326         2    ;  uncertainty k = 0.448233
        16        19        17        18     9        0.000000        1.023144         3    ;  uncertainty k = 0.259184
        16        19        17        18     9      180.000000       -0.722973         4    ;  uncertainty k = 0.243370
        16        19        20        21     9        0.000000       -0.688492         1    ;  uncertainty k = 0.671699
        16        19        20        21     9      180.000000        0.533676         2    ;  uncertainty k = 0.436027
        16        19        20        21     9        0.000000        1.107179         3    ;  uncertainty k = 0.173282
        16        19        20        21     9      180.000000        0.093772         4    ;  uncertainty k = 0.021274
        16        19        20        22     9        0.000000       -0.395089         1    ;  uncertainty k = 0.653414
        16        19        20        22     9      180.000000       -0.350453         2    ;  uncertainty k = 0.414882
        16        19        20        22     9        0.000000        1.165686         3    ;  uncertainty k = 0.166063
        16        19        20        22     9      180.000000        0.181576         4    ;  uncertainty k = 0.126992
        16        19        20        40     9        0.000000       -2.305625         1    ;  uncertainty k = 0.822179
        16        19        20        40     9      180.000000        0.234101         2    ;  uncertainty k = 0.379196
        16        19        20        40     9        0.000000        0.742947         3    ;  uncertainty k = 0.268478
        16        19        20        40     9      180.000000        0.126564         4    ;  uncertainty k = 0.061018
        17        14        13        34     9        0.000000        6.425863         1    ;  uncertainty k = 0.686841
        17        14        13        34     9      180.000000       -5.137737         2    ;  uncertainty k = 0.767069
        17        14        13        34     9        0.000000        0.278868         3    ;  uncertainty k = 0.238341
        17        14        13        34     9      180.000000       -0.026449         4    ;  uncertainty k = 0.181107
        17        14        15        36     9        0.000000       -0.431560         1    ;  uncertainty k = 0.661123
        17        14        15        36     9      180.000000       -0.496918         2    ;  uncertainty k = 0.345767
        17        14        15        36     9        0.000000        0.474416         3    ;  uncertainty k = 0.068956
        17        14        15        36     9      180.000000        0.036686         4    ;  uncertainty k = 0.080817
        17        14        15        37     9        0.000000       -0.431560         1    ;  uncertainty k = 0.661123
        17        14        15        37     9      180.000000       -0.496918         2    ;  uncertainty k = 0.345767
        17        14        15        37     9        0.000000        0.474416         3    ;  uncertainty k = 0.068956
        17        14        15        37     9      180.000000        0.036686         4    ;  uncertainty k = 0.080817
        17        19        16        38     9        0.000000       -0.126021         1    ;  uncertainty k = 0.747628
        17        19        16        38     9      180.000000        0.293972         2    ;  uncertainty k = 0.484269
        17        19        16        38     9        0.000000        0.164615         3    ;  uncertainty k = 0.183342
        17        19        16        38     9      180.000000        0.417669         4    ;  uncertainty k = 0.109232
        17        19        16        39     9        0.000000       -0.126021         1    ;  uncertainty k = 0.747628
        17        19        16        39     9      180.000000        0.293972         2    ;  uncertainty k = 0.484269
        17        19        16        39     9        0.000000        0.164615         3    ;  uncertainty k = 0.183342
        17        19        16        39     9      180.000000        0.417669         4    ;  uncertainty k = 0.109232
        17        19        20        21     9        0.000000        0.832869         1    ;  uncertainty k = 0.469341
        17        19        20        21     9      180.000000        0.390728         2    ;  uncertainty k = 0.304508
        17        19        20        21     9        0.000000        0.474399         3    ;  uncertainty k = 0.139969
        17        19        20        21     9      180.000000        0.242619         4    ;  uncertainty k = 0.127693
        17        19        20        22     9        0.000000        1.833407         1    ;  uncertainty k = 0.853465
        17        19        20        22     9      180.000000        0.209535         2    ;  uncertainty k = 0.537380
        17        19        20        22     9        0.000000       -0.592888         3    ;  uncertainty k = 0.163296
        17        19        20        22     9      180.000000        0.840729         4    ;  uncertainty k = 0.057254
        17        19        20        40     9        0.000000       -0.205144         1    ;  uncertainty k = 0.599169
        17        19        20        40     9      180.000000        0.004804         2    ;  uncertainty k = 0.153471
        17        19        20        40     9        0.000000       -0.044376         3    ;  uncertainty k = 0.129015
        17        19        20        40     9      180.000000        0.266747         4    ;  uncertainty k = 0.031692
        18        17        14        35     9        0.000000       -0.939633         1    ;  uncertainty k = 0.920694
        18        17        14        35     9      180.000000        3.313286         2    ;  uncertainty k = 0.484581
        18        17        14        35     9        0.000000        0.041973         3    ;  uncertainty k = 0.545681
        18        17        14        35     9      180.000000        0.120210         4    ;  uncertainty k = 0.273969
        18        17        19        20     9        0.000000        2.731142         1    ;  uncertainty k = 1.962138
        18        17        19        20     9      180.000000       14.178956         2    ;  uncertainty k = 0.588436
        18        17        19        20     9        0.000000        0.947456         3    ;  uncertainty k = 0.406074
        18        17        19        20     9      180.000000       -0.454871         4    ;  uncertainty k = 0.414263
        19        16        15        36     9        0.000000       -1.829510         1    ;  uncertainty k = 0.456616
        19        16        15        36     9      180.000000        0.325894         2    ;  uncertainty k = 0.435580
        19        16        15        36     9        0.000000        1.355353         3    ;  uncertainty k = 0.143785
        19        16        15        36     9      180.000000        0.074444         4    ;  uncertainty k = 0.249644
        19        16        15        37     9        0.000000       -1.829510         1    ;  uncertainty k = 0.456616
        19        16        15        37     9      180.000000        0.325894         2    ;  uncertainty k = 0.435580
        19        16        15        37     9        0.000000        1.355353         3    ;  uncertainty k = 0.143785
        19        16        15        37     9      180.000000        0.074444         4    ;  uncertainty k = 0.249644
        19        17        14        35     9        0.000000       -2.118537         1    ;  uncertainty k = 2.522995
        19        17        14        35     9      180.000000        2.390437         2    ;  uncertainty k = 0.667943
        19        17        14        35     9        0.000000        0.967683         3    ;  uncertainty k = 0.295837
        19        17        14        35     9      180.000000        0.482077         4    ;  uncertainty k = 0.134499
        19        20        21        41     9        0.000000       -0.041715         1    ;  uncertainty k = 0.086802
        19        20        21        41     9      180.000000       -2.055705         2    ;  uncertainty k = 0.151824
        19        20        21        41     9        0.000000        1.070157         3    ;  uncertainty k = 0.088658
        19        20        21        41     9      180.000000       -0.169755         4    ;  uncertainty k = 0.104081
        19        20        21        42     9        0.000000       -0.041715         1    ;  uncertainty k = 0.086802
        19        20        21        42     9      180.000000       -2.055705         2    ;  uncertainty k = 0.151824
        19        20        21        42     9        0.000000        1.070157         3    ;  uncertainty k = 0.088658
        19        20        21        42     9      180.000000       -0.169755         4    ;  uncertainty k = 0.104081
        19        20        21        43     9        0.000000       -0.041715         1    ;  uncertainty k = 0.086802
        19        20        21        43     9      180.000000       -2.055705         2    ;  uncertainty k = 0.151824
        19        20        21        43     9        0.000000        1.070157         3    ;  uncertainty k = 0.088658
        19        20        21        43     9      180.000000       -0.169755         4    ;  uncertainty k = 0.104081
        19        20        22        23     9        0.000000        0.499396         1    ;  uncertainty k = 0.966558
        19        20        22        23     9      180.000000        6.109033         2    ;  uncertainty k = 0.130985
        19        20        22        23     9        0.000000        1.318031         3    ;  uncertainty k = 0.293046
        19        20        22        23     9      180.000000        0.376941         4    ;  uncertainty k = 0.128880
        19        20        22        24     9        0.000000        1.298771         1    ;  uncertainty k = 0.762727
        19        20        22        24     9      180.000000        3.730132         2    ;  uncertainty k = 0.411538
        19        20        22        24     9        0.000000        0.531949         3    ;  uncertainty k = 0.139911
        19        20        22        24     9      180.000000        0.104606         4    ;  uncertainty k = 0.060875
        20        19        16        38     9        0.000000       -0.171023         1    ;  uncertainty k = 0.466144
        20        19        16        38     9      180.000000       -0.753502         2    ;  uncertainty k = 0.394766
        20        19        16        38     9        0.000000        0.990987         3    ;  uncertainty k = 0.142757
        20        19        16        38     9      180.000000        0.391063         4    ;  uncertainty k = 0.162132
        20        19        16        39     9        0.000000       -0.171023         1    ;  uncertainty k = 0.466144
        20        19        16        39     9      180.000000       -0.753502         2    ;  uncertainty k = 0.394766
        20        19        16        39     9        0.000000        0.990987         3    ;  uncertainty k = 0.142757
        20        19        16        39     9      180.000000        0.391063         4    ;  uncertainty k = 0.162132
        20        22        24        25     9        0.000000        8.299487         1    ;  uncertainty k = 0.269860
        20        22        24        25     9      180.000000        6.005714         2    ;  uncertainty k = 0.421476
        20        22        24        25     9        0.000000        1.159671         3    ;  uncertainty k = 0.227098
        20        22        24        25     9      180.000000        0.103306         4    ;  uncertainty k = 0.158474
        20        22        24        29     9        0.000000        8.299487         1    ;  uncertainty k = 0.269860
        20        22        24        29     9      180.000000        6.005714         2    ;  uncertainty k = 0.421476
        20        22        24        29     9        0.000000        1.159671         3    ;  uncertainty k = 0.227098
        20        22        24        29     9      180.000000        0.103306         4    ;  uncertainty k = 0.158474
        21        20        22        23     9        0.000000       -0.918609         1    ;  uncertainty k = 0.498844
        21        20        22        23     9      180.000000        5.582712         2    ;  uncertainty k = 0.540220
        21        20        22        23     9        0.000000        1.479882         3    ;  uncertainty k = 0.175097
        21        20        22        23     9      180.000000        0.507220         4    ;  uncertainty k = 0.051889
        21        20        22        24     9        0.000000       -2.003223         1    ;  uncertainty k = 0.395192
        21        20        22        24     9      180.000000        3.012685         2    ;  uncertainty k = 0.516173
        21        20        22        24     9        0.000000        0.475109         3    ;  uncertainty k = 0.119059
        21        20        22        24     9      180.000000        0.075564         4    ;  uncertainty k = 0.082587
        22        20        21        41     9        0.000000        1.150537         1    ;  uncertainty k = 0.677576
        22        20        21        41     9      180.000000       -0.924040         2    ;  uncertainty k = 0.241314
        22        20        21        41     9        0.000000        0.735120         3    ;  uncertainty k = 0.069732
        22        20        21        41     9      180.000000       -0.019774         4    ;  uncertainty k = 0.058125
        22        20        21        42     9        0.000000        1.150537         1    ;  uncertainty k = 0.677576
        22        20        21        42     9      180.000000       -0.924040         2    ;  uncertainty k = 0.241314
        22        20        21        42     9        0.000000        0.735120         3    ;  uncertainty k = 0.069732
        22        20        21        42     9      180.000000       -0.019774         4    ;  uncertainty k = 0.058125
        22        20        21        43     9        0.000000        1.150537         1    ;  uncertainty k = 0.677576
        22        20        21        43     9      180.000000       -0.924040         2    ;  uncertainty k = 0.241314
        22        20        21        43     9        0.000000        0.735120         3    ;  uncertainty k = 0.069732
        22        20        21        43     9      180.000000       -0.019774         4    ;  uncertainty k = 0.058125
        22        24        25        26     9        0.000000        0.224961         1    ;  uncertainty k = 0.687788
        22        24        25        26     9      180.000000        0.114129         2    ;  uncertainty k = 0.146198
        22        24        25        26     9        0.000000       -0.233453         3    ;  uncertainty k = 0.126504
        22        24        25        26     9      180.000000        0.299264         4    ;  uncertainty k = 0.131991
        22        24        25        44     9        0.000000        1.489642         1    ;  uncertainty k = 0.595508
        22        24        25        44     9      180.000000       -0.191425         2    ;  uncertainty k = 0.136241
        22        24        25        44     9        0.000000        0.111797         3    ;  uncertainty k = 0.096189
        22        24        25        44     9      180.000000        0.140722         4    ;  uncertainty k = 0.049493
        22        24        25        45     9        0.000000        1.489642         1    ;  uncertainty k = 0.595508
        22        24        25        45     9      180.000000       -0.191425         2    ;  uncertainty k = 0.136241
        22        24        25        45     9        0.000000        0.111797         3    ;  uncertainty k = 0.096189
        22        24        25        45     9      180.000000        0.140722         4    ;  uncertainty k = 0.049493
        22        24        29        28     9        0.000000        0.224961         1    ;  uncertainty k = 0.687788
        22        24        29        28     9      180.000000        0.114129         2    ;  uncertainty k = 0.146198
        22        24        29        28     9        0.000000       -0.233453         3    ;  uncertainty k = 0.126504
        22        24        29        28     9      180.000000        0.299264         4    ;  uncertainty k = 0.131991
        22        24        29        50     9        0.000000        1.489642         1    ;  uncertainty k = 0.595508
        22        24        29        50     9      180.000000       -0.191425         2    ;  uncertainty k = 0.136241
        22        24        29        50     9        0.000000        0.111797         3    ;  uncertainty k = 0.096189
        22        24        29        50     9      180.000000        0.140722         4    ;  uncertainty k = 0.049493
        22        24        29        51     9        0.000000        1.489642         1    ;  uncertainty k = 0.595508
        22        24        29        51     9      180.000000       -0.191425         2    ;  uncertainty k = 0.136241
        22        24        29        51     9        0.000000        0.111797         3    ;  uncertainty k = 0.096189
        22        24        29        51     9      180.000000        0.140722         4    ;  uncertainty k = 0.049493
        23        22        20        40     9        0.000000       -1.193527         1    ;  uncertainty k = 0.618000
        23        22        20        40     9      180.000000        2.843837         2    ;  uncertainty k = 0.359543
        23        22        20        40     9        0.000000        0.832219         3    ;  uncertainty k = 0.209632
        23        22        20        40     9      180.000000        0.162966         4    ;  uncertainty k = 0.077189
        23        22        24        25     9        0.000000        6.603517         1    ;  uncertainty k = 0.334857
        23        22        24        25     9      180.000000       20.577585         2    ;  uncertainty k = 0.086866
        23        22        24        25     9        0.000000        0.266672         3    ;  uncertainty k = 0.142095
        23        22        24        25     9      180.000000       -1.495398         4    ;  uncertainty k = 0.102425
        23        22        24        29     9        0.000000        6.603517         1    ;  uncertainty k = 0.334857
        23        22        24        29     9      180.000000       20.577585         2    ;  uncertainty k = 0.086866
        23        22        24        29     9        0.000000        0.266672         3    ;  uncertainty k = 0.142095
        23        22        24        29     9      180.000000       -1.495398         4    ;  uncertainty k = 0.102425
        24        22        20        40     9        0.000000       -0.546567         1    ;  uncertainty k = 0.607387
        24        22        20        40     9      180.000000        2.439825         2    ;  uncertainty k = 0.362200
        24        22        20        40     9        0.000000        0.108278         3    ;  uncertainty k = 0.047116
        24        22        20        40     9      180.000000        0.170383         4    ;  uncertainty k = 0.050292
        24        25        26        27     9        0.000000        5.353992         1    ;  uncertainty k = 0.675529
        24        25        26        27     9      180.000000       -8.857338         2    ;  uncertainty k = 0.692100
        24        25        26        27     9        0.000000        3.059860         3    ;  uncertainty k = 0.495205
        24        25        26        27     9      180.000000       -0.099186         4    ;  uncertainty k = 0.227903
        24        25        26        46     9        0.000000        4.810866         1    ;  uncertainty k = 0.569234
        24        25        26        46     9      180.000000       -4.025620         2    ;  uncertainty k = 0.699778
        24        25        26        46     9        0.000000        0.136668         3    ;  uncertainty k = 0.307514
        24        25        26        46     9      180.000000        0.448548         4    ;  uncertainty k = 0.208534
        24        25        26        47     9        0.000000        4.810866         1    ;  uncertainty k = 0.569234
        24        25        26        47     9      180.000000       -4.025620         2    ;  uncertainty k = 0.699778
        24        25        26        47     9        0.000000        0.136668         3    ;  uncertainty k = 0.307514
        24        25        26        47     9      180.000000        0.448548         4    ;  uncertainty k = 0.208534
        24        29        28        27     9        0.000000        5.353992         1    ;  uncertainty k = 0.675529
        24        29        28        27     9      180.000000       -8.857338         2    ;  uncertainty k = 0.692100
        24        29        28        27     9        0.000000        3.059860         3    ;  uncertainty k = 0.495205
        24        29        28        27     9      180.000000       -0.099186         4    ;  uncertainty k = 0.227903
        24        29        28        48     9        0.000000        4.810866         1    ;  uncertainty k = 0.569234
        24        29        28        48     9      180.000000       -4.025620         2    ;  uncertainty k = 0.699778
        24        29        28        48     9        0.000000        0.136668         3    ;  uncertainty k = 0.307514
        24        29        28        48     9      180.000000        0.448548         4    ;  uncertainty k = 0.208534
        24        29        28        49     9        0.000000        4.810866         1    ;  uncertainty k = 0.569234
        24        29        28        49     9      180.000000       -4.025620         2    ;  uncertainty k = 0.699778
        24        29        28        49     9        0.000000        0.136668         3    ;  uncertainty k = 0.307514
        24        29        28        49     9      180.000000        0.448548         4    ;  uncertainty k = 0.208534
        25        24        29        28     9        0.000000       -5.632507         1    ;  uncertainty k = 1.372901
        25        24        29        28     9      180.000000        0.820042         2    ;  uncertainty k = 0.457968
        25        24        29        28     9        0.000000        1.551394         3    ;  uncertainty k = 0.353572
        25        24        29        28     9      180.000000       -0.465199         4    ;  uncertainty k = 0.242804
        25        24        29        50     9        0.000000       -5.630831         1    ;  uncertainty k = 1.116973
        25        24        29        50     9      180.000000        1.096405         2    ;  uncertainty k = 0.268716
        25        24        29        50     9        0.000000        1.209015         3    ;  uncertainty k = 0.133163
        25        24        29        50     9      180.000000       -0.230019         4    ;  uncertainty k = 0.154441
        25        24        29        51     9        0.000000       -5.630831         1    ;  uncertainty k = 1.116973
        25        24        29        51     9      180.000000        1.096405         2    ;  uncertainty k = 0.268716
        25        24        29        51     9        0.000000        1.209015         3    ;  uncertainty k = 0.133163
        25        24        29        51     9      180.000000       -0.230019         4    ;  uncertainty k = 0.154441
        25        26        27        28     9        0.000000       -4.283460         1    ;  uncertainty k = 1.346568
        25        26        27        28     9      180.000000        0.019562         2    ;  uncertainty k = 1.048764
        25        26        27        28     9        0.000000        0.786756         3    ;  uncertainty k = 0.331644
        25        26        27        28     9      180.000000       -0.317148         4    ;  uncertainty k = 0.268089
        26        25        24        29     9        0.000000       -5.632507         1    ;  uncertainty k = 1.372901
        26        25        24        29     9      180.000000        0.820042         2    ;  uncertainty k = 0.457968
        26        25        24        29     9        0.000000        1.551394         3    ;  uncertainty k = 0.353572
        26        25        24        29     9      180.000000       -0.465199         4    ;  uncertainty k = 0.242804
        26        27        28        29     9        0.000000       -4.283460         1    ;  uncertainty k = 1.346568
        26        27        28        29     9      180.000000        0.019562         2    ;  uncertainty k = 1.048764
        26        27        28        29     9        0.000000        0.786756         3    ;  uncertainty k = 0.331644
        26        27        28        29     9      180.000000       -0.317148         4    ;  uncertainty k = 0.268089
        26        27        28        48     9        0.000000       -5.824736         1    ;  uncertainty k = 1.874994
        26        27        28        48     9      180.000000        0.612519         2    ;  uncertainty k = 0.237167
        26        27        28        48     9        0.000000        0.759446         3    ;  uncertainty k = 0.174537
        26        27        28        48     9      180.000000       -0.645283         4    ;  uncertainty k = 0.153493
        26        27        28        49     9        0.000000       -5.824736         1    ;  uncertainty k = 1.874994
        26        27        28        49     9      180.000000        0.612519         2    ;  uncertainty k = 0.237167
        26        27        28        49     9        0.000000        0.759446         3    ;  uncertainty k = 0.174537
        26        27        28        49     9      180.000000       -0.645283         4    ;  uncertainty k = 0.153493
        27        26        25        44     9        0.000000        0.912216         1    ;  uncertainty k = 0.334790
        27        26        25        44     9      180.000000       -0.812586         2    ;  uncertainty k = 0.665020
        27        26        25        44     9        0.000000        1.061498         3    ;  uncertainty k = 0.198448
        27        26        25        44     9      180.000000        0.211215         4    ;  uncertainty k = 0.255400
        27        26        25        45     9        0.000000        0.912216         1    ;  uncertainty k = 0.334790
        27        26        25        45     9      180.000000       -0.812586         2    ;  uncertainty k = 0.665020
        27        26        25        45     9        0.000000        1.061498         3    ;  uncertainty k = 0.198448
        27        26        25        45     9      180.000000        0.211215         4    ;  uncertainty k = 0.255400
        27        28        29        50     9        0.000000        0.912216         1    ;  uncertainty k = 0.334790
        27        28        29        50     9      180.000000       -0.812586         2    ;  uncertainty k = 0.665020
        27        28        29        50     9        0.000000        1.061498         3    ;  uncertainty k = 0.198448
        27        28        29        50     9      180.000000        0.211215         4    ;  uncertainty k = 0.255400
        27        28        29        51     9        0.000000        0.912216         1    ;  uncertainty k = 0.334790
        27        28        29        51     9      180.000000       -0.812586         2    ;  uncertainty k = 0.665020
        27        28        29        51     9        0.000000        1.061498         3    ;  uncertainty k = 0.198448
        27        28        29        51     9      180.000000        0.211215         4    ;  uncertainty k = 0.255400
        28        27        26        46     9        0.000000       -5.824736         1    ;  uncertainty k = 1.874994
        28        27        26        46     9      180.000000        0.612519         2    ;  uncertainty k = 0.237167
        28        27        26        46     9        0.000000        0.759446         3    ;  uncertainty k = 0.174537
        28        27        26        46     9      180.000000       -0.645283         4    ;  uncertainty k = 0.153493
        28        27        26        47     9        0.000000       -5.824736         1    ;  uncertainty k = 1.874994
        28        27        26        47     9      180.000000        0.612519         2    ;  uncertainty k = 0.237167
        28        27        26        47     9        0.000000        0.759446         3    ;  uncertainty k = 0.174537
        28        27        26        47     9      180.000000       -0.645283         4    ;  uncertainty k = 0.153493
        29        24        25        44     9        0.000000       -5.630831         1    ;  uncertainty k = 1.116973
        29        24        25        44     9      180.000000        1.096405         2    ;  uncertainty k = 0.268716
        29        24        25        44     9        0.000000        1.209015         3    ;  uncertainty k = 0.133163
        29        24        25        44     9      180.000000       -0.230019         4    ;  uncertainty k = 0.154441
        29        24        25        45     9        0.000000       -5.630831         1    ;  uncertainty k = 1.116973
        29        24        25        45     9      180.000000        1.096405         2    ;  uncertainty k = 0.268716
        29        24        25        45     9        0.000000        1.209015         3    ;  uncertainty k = 0.133163
        29        24        25        45     9      180.000000       -0.230019         4    ;  uncertainty k = 0.154441
        30         4         3        31     9        0.000000        0.340769         1    ;  uncertainty k = 0.354935
        30         4         3        31     9      180.000000        6.318643         2    ;  uncertainty k = 0.786872
        30         4         3        31     9        0.000000        1.106897         3    ;  uncertainty k = 0.234343
        30         4         3        31     9      180.000000        0.902235         4    ;  uncertainty k = 0.213928
        32         7         8        33     9        0.000000       -0.115117         1    ;  uncertainty k = 0.200266
        32         7         8        33     9      180.000000        7.847086         2    ;  uncertainty k = 0.399213
        32         7         8        33     9        0.000000       -0.293839         3    ;  uncertainty k = 0.212035
        32         7         8        33     9      180.000000        0.100015         4    ;  uncertainty k = 0.148938
        34        13        14        35     9        0.000000        4.345244         1    ;  uncertainty k = 1.216546
        34        13        14        35     9      180.000000       -2.461431         2    ;  uncertainty k = 0.501511
        34        13        14        35     9        0.000000        0.266842         3    ;  uncertainty k = 0.221333
        34        13        14        35     9      180.000000        0.136959         4    ;  uncertainty k = 0.122236
        35        14        15        36     9        0.000000        0.650807         1    ;  uncertainty k = 0.242049
        35        14        15        36     9      180.000000       -0.603199         2    ;  uncertainty k = 0.142605
        35        14        15        36     9        0.000000        0.567622         3    ;  uncertainty k = 0.099350
        35        14        15        36     9      180.000000        0.058597         4    ;  uncertainty k = 0.065547
        35        14        15        37     9        0.000000        0.650807         1    ;  uncertainty k = 0.242049
        35        14        15        37     9      180.000000       -0.603199         2    ;  uncertainty k = 0.142605
        35        14        15        37     9        0.000000        0.567622         3    ;  uncertainty k = 0.099350
        35        14        15        37     9      180.000000        0.058597         4    ;  uncertainty k = 0.065547
        36        15        16        38     9        0.000000        0.823414         1    ;  uncertainty k = 0.215557
        36        15        16        38     9      180.000000       -0.170976         2    ;  uncertainty k = 0.266678
        36        15        16        38     9        0.000000        0.469348         3    ;  uncertainty k = 0.038030
        36        15        16        38     9      180.000000        0.043270         4    ;  uncertainty k = 0.022809
        36        15        16        39     9        0.000000        0.823414         1    ;  uncertainty k = 0.215557
        36        15        16        39     9      180.000000       -0.170976         2    ;  uncertainty k = 0.266678
        36        15        16        39     9        0.000000        0.469348         3    ;  uncertainty k = 0.038030
        36        15        16        39     9      180.000000        0.043270         4    ;  uncertainty k = 0.022809
        37        15        16        38     9        0.000000        0.823414         1    ;  uncertainty k = 0.215557
        37        15        16        38     9      180.000000       -0.170976         2    ;  uncertainty k = 0.266678
        37        15        16        38     9        0.000000        0.469348         3    ;  uncertainty k = 0.038030
        37        15        16        38     9      180.000000        0.043270         4    ;  uncertainty k = 0.022809
        37        15        16        39     9        0.000000        0.823414         1    ;  uncertainty k = 0.215557
        37        15        16        39     9      180.000000       -0.170976         2    ;  uncertainty k = 0.266678
        37        15        16        39     9        0.000000        0.469348         3    ;  uncertainty k = 0.038030
        37        15        16        39     9      180.000000        0.043270         4    ;  uncertainty k = 0.022809
        40        20        21        41     9        0.000000        0.143668         1    ;  uncertainty k = 0.287689
        40        20        21        41     9      180.000000       -0.308389         2    ;  uncertainty k = 0.120561
        40        20        21        41     9        0.000000        0.423570         3    ;  uncertainty k = 0.126378
        40        20        21        41     9      180.000000       -0.021121         4    ;  uncertainty k = 0.092887
        40        20        21        42     9        0.000000        0.143668         1    ;  uncertainty k = 0.287689
        40        20        21        42     9      180.000000       -0.308389         2    ;  uncertainty k = 0.120561
        40        20        21        42     9        0.000000        0.423570         3    ;  uncertainty k = 0.126378
        40        20        21        42     9      180.000000       -0.021121         4    ;  uncertainty k = 0.092887
        40        20        21        43     9        0.000000        0.143668         1    ;  uncertainty k = 0.287689
        40        20        21        43     9      180.000000       -0.308389         2    ;  uncertainty k = 0.120561
        40        20        21        43     9        0.000000        0.423570         3    ;  uncertainty k = 0.126378
        40        20        21        43     9      180.000000       -0.021121         4    ;  uncertainty k = 0.092887
        44        25        26        46     9        0.000000       -2.278074         1    ;  uncertainty k = 1.043178
        44        25        26        46     9      180.000000        1.532748         2    ;  uncertainty k = 0.718723
        44        25        26        46     9        0.000000       -0.092826         3    ;  uncertainty k = 0.085920
        44        25        26        46     9      180.000000       -0.789690         4    ;  uncertainty k = 0.177408
        44        25        26        47     9        0.000000       -2.278074         1    ;  uncertainty k = 1.043178
        44        25        26        47     9      180.000000        1.532748         2    ;  uncertainty k = 0.718723
        44        25        26        47     9        0.000000       -0.092826         3    ;  uncertainty k = 0.085920
        44        25        26        47     9      180.000000       -0.789690         4    ;  uncertainty k = 0.177408
        45        25        26        46     9        0.000000       -2.278074         1    ;  uncertainty k = 1.043178
        45        25        26        46     9      180.000000        1.532748         2    ;  uncertainty k = 0.718723
        45        25        26        46     9        0.000000       -0.092826         3    ;  uncertainty k = 0.085920
        45        25        26        46     9      180.000000       -0.789690         4    ;  uncertainty k = 0.177408
        45        25        26        47     9        0.000000       -2.278074         1    ;  uncertainty k = 1.043178
        45        25        26        47     9      180.000000        1.532748         2    ;  uncertainty k = 0.718723
        45        25        26        47     9        0.000000       -0.092826         3    ;  uncertainty k = 0.085920
        45        25        26        47     9      180.000000       -0.789690         4    ;  uncertainty k = 0.177408
        48        28        29        50     9        0.000000       -2.278074         1    ;  uncertainty k = 1.043178
        48        28        29        50     9      180.000000        1.532748         2    ;  uncertainty k = 0.718723
        48        28        29        50     9        0.000000       -0.092826         3    ;  uncertainty k = 0.085920
        48        28        29        50     9      180.000000       -0.789690         4    ;  uncertainty k = 0.177408
        48        28        29        51     9        0.000000       -2.278074         1    ;  uncertainty k = 1.043178
        48        28        29        51     9      180.000000        1.532748         2    ;  uncertainty k = 0.718723
        48        28        29        51     9        0.000000       -0.092826         3    ;  uncertainty k = 0.085920
        48        28        29        51     9      180.000000       -0.789690         4    ;  uncertainty k = 0.177408
        49        28        29        50     9        0.000000       -2.278074         1    ;  uncertainty k = 1.043178
        49        28        29        50     9      180.000000        1.532748         2    ;  uncertainty k = 0.718723
        49        28        29        50     9        0.000000       -0.092826         3    ;  uncertainty k = 0.085920
        49        28        29        50     9      180.000000       -0.789690         4    ;  uncertainty k = 0.177408
        49        28        29        51     9        0.000000       -2.278074         1    ;  uncertainty k = 1.043178
        49        28        29        51     9      180.000000        1.532748         2    ;  uncertainty k = 0.718723
        49        28        29        51     9        0.000000       -0.092826         3    ;  uncertainty k = 0.085920
        49        28        29        51     9      180.000000       -0.789690         4    ;  uncertainty k = 0.177408

[ dihedrals ] ; impropers
;       ai        aj        ak        al funct           phase               k        pn
         2         1         3         8     4      180.000000       12.932037         2    ;  uncertainty k = 0.029191
         2         3         8         1     4      180.000000       12.932037         2    ;  uncertainty k = 0.029191
         2         8         1         3     4      180.000000       12.932037         2    ;  uncertainty k = 0.029191
         3         2         4        31     4      180.000000        4.085858         2    ;  uncertainty k = 0.188875
         3         4        31         2     4      180.000000        4.085858         2    ;  uncertainty k = 0.188875
         3        31         2         4     4      180.000000        4.085858         2    ;  uncertainty k = 0.188875
         4         3         5        30     4      180.000000        1.793473         2    ;  uncertainty k = 0.429809
         4         5        30         3     4      180.000000        1.793473         2    ;  uncertainty k = 0.429809
         4        30         3         5     4      180.000000        1.793473         2    ;  uncertainty k = 0.429809
         5         4         6         7     4      180.000000        1.005793         2    ;  uncertainty k = 0.695178
         5         6         7         4     4      180.000000        1.005793         2    ;  uncertainty k = 0.695178
         5         7         4         6     4      180.000000        1.005793         2    ;  uncertainty k = 0.695178
         7         5         8        32     4      180.000000        4.754071         2    ;  uncertainty k = 0.188181
         7         8        32         5     4      180.000000        4.754071         2    ;  uncertainty k = 0.188181
         7        32         5         8     4      180.000000        4.754071         2    ;  uncertainty k = 0.188181
         8         2         7        33     4      180.000000        3.397157         2    ;  uncertainty k = 0.146321
         8         7        33         2     4      180.000000        3.397157         2    ;  uncertainty k = 0.146321
         8        33         2         7     4      180.000000        3.397157         2    ;  uncertainty k = 0.146321
         9         6        10        30     4      180.000000        0.811913         2    ;  uncertainty k = 0.824689
         9        10        30         6     4      180.000000        0.811913         2    ;  uncertainty k = 0.824689
         9        30         6        10     4      180.000000        0.811913         2    ;  uncertainty k = 0.824689
        17        14        18        19     4      180.000000       48.908342         2    ;  uncertainty k = 0.034977
        17        18        19        14     4      180.000000       48.908342         2    ;  uncertainty k = 0.034977
        17        19        14        18     4      180.000000       48.908342         2    ;  uncertainty k = 0.034977
        22        20        23        24     4      180.000000       50.108480         2    ;  uncertainty k = 0.051863
        22        23        24        20     4      180.000000       50.108480         2    ;  uncertainty k = 0.051863
        22        24        20        23     4      180.000000       50.108480         2    ;  uncertainty k = 0.051863
        30         4         9        52     4      180.000000        3.229233         2    ;  uncertainty k = 0.305156
        30         9        52         4     4      180.000000        3.229233         2    ;  uncertainty k = 0.305156
        30        52         4         9     4      180.000000        3.229233         2    ;  uncertainty k = 0.305156

[ pairs ]
;       ai        aj funct
         1         4     1
         1         7     1
         1        31     1
         1        33     1
         2         5     1
         2        30     1
         2        32     1
         3         6     1
         3         7     1
         3         9     1
         3        33     1
         3        52     1
         4         8     1
         4        10     1
         4        32     1
         5        10     1
         5        31     1
         5        33     1
         5        52     1
         6         8     1
         6        11     1
         6        12     1
         6        13     1
         6        32     1
         6        52     1
         7         9     1
         7        30     1
         8        31     1
         9        14     1
         9        34     1
        10        15     1
        10        17     1
        10        35     1
        10        52     1
        11        14     1
        11        30     1
        11        34     1
        12        14     1
        12        30     1
        12        34     1
        13        16     1
        13        18     1
        13        19     1
        13        30     1
        13        36     1
        13        37     1
        14        20     1
        14        38     1
        14        39     1
        15        18     1
        15        20     1
        15        34     1
        16        18     1
        16        21     1
        16        22     1
        16        35     1
        16        40     1
        17        21     1
        17        22     1
        17        34     1
        17        36     1
        17        37     1
        17        38     1
        17        39     1
        17        40     1
        18        20     1
        18        35     1
        19        23     1
        19        24     1
        19        35     1
        19        36     1
        19        37     1
        19        41     1
        19        42     1
        19        43     1
        20        25     1
        20        29     1
        20        38     1
        20        39     1
        21        23     1
        21        24     1
        22        26     1
        22        28     1
        22        41     1
        22        42     1
        22        43     1
        22        44     1
        22        45     1
        22        50     1
        22        51     1
        23        25     1
        23        29     1
        23        40     1
        24        27     1
        24        40     1
        24        46     1
        24        47     1
        24        48     1
        24        49     1
        25        28     1
        25        50     1
        25        51     1
        26        29     1
        26        48     1
        26        49     1
        27        44     1
        27        45     1
        27        50     1
        27        51     1
        28        46     1
        28        47     1
        29        44     1
        29        45     1
        30        31     1
        32        33     1
        34        35     1
        35        36     1
        35        37     1
        36        38     1
        36        39     1
        37        38     1
        37        39     1
        40        41     1
        40        42     1
        40        43     1
        44        46     1
        44        47     1
        45        46     1
        45        47     1
        48        50     1
        48        51     1
        49        50     1
        49        51     1
