; ITP file created by ByteFF-joint-25, 2025-07-14 11:37:26.390680

[ atomtypes ]
;name           bonded.type        at.num        mass        charge   ptype           sigma         epsilon
 cl0bf                                 17      0.0000       0.00000       A     3.46618e-01     1.10426e+00    ;  uncertainty sigma = 0.000019, epsilon = 0.000716
 c1bf                                   6      0.0000       0.00000       A     3.31524e-01     4.13105e-01    ;  uncertainty sigma = 0.000007, epsilon = 0.000590
 c2bf                                   6      0.0000       0.00000       A     3.31534e-01     4.13436e-01    ;  uncertainty sigma = 0.000009, epsilon = 0.000501
 c3bf                                   6      0.0000       0.00000       A     3.31529e-01     4.13233e-01    ;  uncertainty sigma = 0.000008, epsilon = 0.001245
 c4bf                                   6      0.0000       0.00000       A     3.31537e-01     4.13267e-01    ;  uncertainty sigma = 0.000014, epsilon = 0.000507
 c5bf                                   6      0.0000       0.00000       A     3.31577e-01     4.12968e-01    ;  uncertainty sigma = 0.000028, epsilon = 0.000222
 c6bf                                   6      0.0000       0.00000       A     3.31517e-01     4.13118e-01    ;  uncertainty sigma = 0.000004, epsilon = 0.000417
 c7bf                                   6      0.0000       0.00000       A     3.31525e-01     4.13479e-01    ;  uncertainty sigma = 0.000006, epsilon = 0.000478
 c8bf                                   6      0.0000       0.00000       A     3.31488e-01     4.12223e-01    ;  uncertainty sigma = 0.000027, epsilon = 0.001058
 s9bf                                  16      0.0000       0.00000       A     4.05903e-01     2.57579e-01    ;  uncertainty sigma = 0.000020, epsilon = 0.002733
 o10bf                                  8      0.0000       0.00000       A     3.04844e-01     6.12080e-01    ;  uncertainty sigma = 0.000030, epsilon = 0.001157
 o11bf                                  8      0.0000       0.00000       A     3.04844e-01     6.12080e-01    ;  uncertainty sigma = 0.000030, epsilon = 0.001157
 n12bf                                  7      0.0000       0.00000       A     3.50737e-01     2.17907e-01    ;  uncertainty sigma = 0.000090, epsilon = 0.003822
 c13bf                                  6      0.0000       0.00000       A     3.39784e-01     4.51033e-01    ;  uncertainty sigma = 0.000012, epsilon = 0.001003
 c14bf                                  6      0.0000       0.00000       A     3.39783e-01     4.50616e-01    ;  uncertainty sigma = 0.000012, epsilon = 0.000870
 c15bf                                  6      0.0000       0.00000       A     3.39778e-01     4.51121e-01    ;  uncertainty sigma = 0.000011, epsilon = 0.000952
 c16bf                                  6      0.0000       0.00000       A     3.31503e-01     4.14103e-01    ;  uncertainty sigma = 0.000019, epsilon = 0.001327
 o17bf                                  8      0.0000       0.00000       A     3.04856e-01     6.12000e-01    ;  uncertainty sigma = 0.000014, epsilon = 0.001679
 n18bf                                  7      0.0000       0.00000       A     3.18104e-01     6.84089e-01    ;  uncertainty sigma = 0.000026, epsilon = 0.002216
 c19bf                                  6      0.0000       0.00000       A     3.39765e-01     4.50085e-01    ;  uncertainty sigma = 0.000013, epsilon = 0.000893
 c20bf                                  6      0.0000       0.00000       A     3.39757e-01     4.50850e-01    ;  uncertainty sigma = 0.000009, epsilon = 0.000447
 c21bf                                  6      0.0000       0.00000       A     3.31517e-01     4.12537e-01    ;  uncertainty sigma = 0.000018, epsilon = 0.001350
 o22bf                                  8      0.0000       0.00000       A     3.04822e-01     6.12836e-01    ;  uncertainty sigma = 0.000014, epsilon = 0.000674
 n23bf                                  7      0.0000       0.00000       A     3.18074e-01     6.83799e-01    ;  uncertainty sigma = 0.000019, epsilon = 0.001496
 c24bf                                  6      0.0000       0.00000       A     3.39785e-01     4.50976e-01    ;  uncertainty sigma = 0.000006, epsilon = 0.000726
 c25bf                                  6      0.0000       0.00000       A     3.39786e-01     4.50778e-01    ;  uncertainty sigma = 0.000006, epsilon = 0.000813
 o26bf                                  8      0.0000       0.00000       A     3.15603e-01     3.03473e-01    ;  uncertainty sigma = 0.000014, epsilon = 0.001064
 c27bf                                  6      0.0000       0.00000       A     3.39786e-01     4.50778e-01    ;  uncertainty sigma = 0.000006, epsilon = 0.000813
 c28bf                                  6      0.0000       0.00000       A     3.39785e-01     4.50976e-01    ;  uncertainty sigma = 0.000006, epsilon = 0.000726
 s29bf                                 16      0.0000       0.00000       A     3.53312e-01     1.18072e+00    ;  uncertainty sigma = 0.000018, epsilon = 0.004528
 h30bf                                  1      0.0000       0.00000       A     2.62581e-01     6.70427e-02    ;  uncertainty sigma = 0.000017, epsilon = 0.000555
 h31bf                                  1      0.0000       0.00000       A     2.62621e-01     6.69560e-02    ;  uncertainty sigma = 0.000022, epsilon = 0.000640
 h32bf                                  1      0.0000       0.00000       A     2.62569e-01     6.69950e-02    ;  uncertainty sigma = 0.000006, epsilon = 0.000453
 h33bf                                  1      0.0000       0.00000       A     2.62555e-01     6.70488e-02    ;  uncertainty sigma = 0.000009, epsilon = 0.000697
 h34bf                                  1      0.0000       0.00000       A     1.10633e-01     4.09566e-02    ;  uncertainty sigma = 0.000099, epsilon = 0.002184
 h35bf                                  1      0.0000       0.00000       A     2.42030e-01     8.68574e-02    ;  uncertainty sigma = 0.000019, epsilon = 0.001232
 h36bf                                  1      0.0000       0.00000       A     2.60025e-01     8.63275e-02    ;  uncertainty sigma = 0.000013, epsilon = 0.000679
 h37bf                                  1      0.0000       0.00000       A     2.60025e-01     8.63275e-02    ;  uncertainty sigma = 0.000013, epsilon = 0.000679
 h38bf                                  1      0.0000       0.00000       A     2.42200e-01     8.64335e-02    ;  uncertainty sigma = 0.000011, epsilon = 0.000932
 h39bf                                  1      0.0000       0.00000       A     2.42200e-01     8.64335e-02    ;  uncertainty sigma = 0.000011, epsilon = 0.000932
 h40bf                                  1      0.0000       0.00000       A     2.42203e-01     8.69613e-02    ;  uncertainty sigma = 0.000061, epsilon = 0.001014
 h41bf                                  1      0.0000       0.00000       A     2.60028e-01     8.67689e-02    ;  uncertainty sigma = 0.000014, epsilon = 0.000406
 h42bf                                  1      0.0000       0.00000       A     2.60028e-01     8.67689e-02    ;  uncertainty sigma = 0.000014, epsilon = 0.000406
 h43bf                                  1      0.0000       0.00000       A     2.60028e-01     8.67689e-02    ;  uncertainty sigma = 0.000014, epsilon = 0.000406
 h44bf                                  1      0.0000       0.00000       A     2.42216e-01     8.67300e-02    ;  uncertainty sigma = 0.000014, epsilon = 0.000623
 h45bf                                  1      0.0000       0.00000       A     2.42216e-01     8.67300e-02    ;  uncertainty sigma = 0.000014, epsilon = 0.000623
 h46bf                                  1      0.0000       0.00000       A     2.42211e-01     8.67300e-02    ;  uncertainty sigma = 0.000015, epsilon = 0.000752
 h47bf                                  1      0.0000       0.00000       A     2.42211e-01     8.67300e-02    ;  uncertainty sigma = 0.000015, epsilon = 0.000752
 h48bf                                  1      0.0000       0.00000       A     2.42211e-01     8.67300e-02    ;  uncertainty sigma = 0.000015, epsilon = 0.000752
 h49bf                                  1      0.0000       0.00000       A     2.42211e-01     8.67300e-02    ;  uncertainty sigma = 0.000015, epsilon = 0.000752
 h50bf                                  1      0.0000       0.00000       A     2.42216e-01     8.67300e-02    ;  uncertainty sigma = 0.000014, epsilon = 0.000623
 h51bf                                  1      0.0000       0.00000       A     2.42216e-01     8.67300e-02    ;  uncertainty sigma = 0.000014, epsilon = 0.000623

[ moleculetype ]
;name             nrexcl
 MOL                   3

[ atoms ]
;       nr            type      resi   res      atom      cgnr      charge          mass ; qtot
         1           cl0bf         1   UNL       cl0         1    -0.11837       35.4530 ; qtot   -0.118
         2            c1bf         1   UNL        c1         2     0.03882       12.0110 ; qtot   -0.080
         3            c2bf         1   UNL        c2         3    -0.08743       12.0110 ; qtot   -0.167
         4            c3bf         1   UNL        c3         4     0.00124       12.0110 ; qtot   -0.166
         5            c4bf         1   UNL        c4         5    -0.10475       12.0110 ; qtot   -0.270
         6            c5bf         1   UNL        c5         6     0.02952       12.0110 ; qtot   -0.241
         7            c6bf         1   UNL        c6         7    -0.06548       12.0110 ; qtot   -0.306
         8            c7bf         1   UNL        c7         8    -0.12072       12.0110 ; qtot   -0.427
         9            c8bf         1   UNL        c8         9    -0.25173       12.0110 ; qtot   -0.679
        10            s9bf         1   UNL        s9        10     1.25722       32.0670 ; qtot    0.578
        11           o10bf         1   UNL       o10        11    -0.59140       15.9990 ; qtot   -0.013
        12           o11bf         1   UNL       o11        12    -0.59140       15.9990 ; qtot   -0.604
        13           n12bf         1   UNL       n12        13    -0.76822       14.0070 ; qtot   -1.373
        14           c13bf         1   UNL       c13        14     0.12770       12.0110 ; qtot   -1.245
        15           c14bf         1   UNL       c14        15    -0.09711       12.0110 ; qtot   -1.342
        16           c15bf         1   UNL       c15        16     0.09835       12.0110 ; qtot   -1.244
        17           c16bf         1   UNL       c16        17     0.69359       12.0110 ; qtot   -0.550
        18           o17bf         1   UNL       o17        18    -0.62440       15.9990 ; qtot   -1.175
        19           n18bf         1   UNL       n18        19    -0.46819       14.0070 ; qtot   -1.643
        20           c19bf         1   UNL       c19        20     0.05357       12.0110 ; qtot   -1.589
        21           c20bf         1   UNL       c20        21    -0.09682       12.0110 ; qtot   -1.686
        22           c21bf         1   UNL       c21        22     0.65569       12.0110 ; qtot   -1.030
        23           o22bf         1   UNL       o22        23    -0.59852       15.9990 ; qtot   -1.629
        24           n23bf         1   UNL       n23        24    -0.48329       14.0070 ; qtot   -2.112
        25           c24bf         1   UNL       c24        25     0.06631       12.0110 ; qtot   -2.046
        26           c25bf         1   UNL       c25        26     0.11525       12.0110 ; qtot   -1.931
        27           o26bf         1   UNL       o26        27    -0.41112       15.9990 ; qtot   -2.342
        28           c27bf         1   UNL       c27        28     0.11525       12.0110 ; qtot   -2.226
        29           c28bf         1   UNL       c28        29     0.06631       12.0110 ; qtot   -2.160
        30           s29bf         1   UNL       s29        30     0.02754       32.0670 ; qtot   -2.133
        31           h30bf         1   UNL       h30        31     0.15691        1.0080 ; qtot   -1.976
        32           h31bf         1   UNL       h31        32     0.17741        1.0080 ; qtot   -1.798
        33           h32bf         1   UNL       h32        33     0.14507        1.0080 ; qtot   -1.653
        34           h33bf         1   UNL       h33        34     0.15137        1.0080 ; qtot   -1.502
        35           h34bf         1   UNL       h34        35     0.43318        1.0080 ; qtot   -1.069
        36           h35bf         1   UNL       h35        36     0.09162        1.0080 ; qtot   -0.977
        37           h36bf         1   UNL       h36        37     0.07326        1.0080 ; qtot   -0.904
        38           h37bf         1   UNL       h37        38     0.07326        1.0080 ; qtot   -0.831
        39           h38bf         1   UNL       h38        39     0.05597        1.0080 ; qtot   -0.775
        40           h39bf         1   UNL       h39        40     0.05597        1.0080 ; qtot   -0.719
        41           h40bf         1   UNL       h40        41     0.08023        1.0080 ; qtot   -0.638
        42           h41bf         1   UNL       h41        42     0.05231        1.0080 ; qtot   -0.586
        43           h42bf         1   UNL       h42        43     0.05231        1.0080 ; qtot   -0.534
        44           h43bf         1   UNL       h43        44     0.05231        1.0080 ; qtot   -0.481
        45           h44bf         1   UNL       h44        45     0.06503        1.0080 ; qtot   -0.416
        46           h45bf         1   UNL       h45        46     0.06503        1.0080 ; qtot   -0.351
        47           h46bf         1   UNL       h46        47     0.05533        1.0080 ; qtot   -0.296
        48           h47bf         1   UNL       h47        48     0.05533        1.0080 ; qtot   -0.241
        49           h48bf         1   UNL       h48        49     0.05533        1.0080 ; qtot   -0.185
        50           h49bf         1   UNL       h49        50     0.05533        1.0080 ; qtot   -0.130
        51           h50bf         1   UNL       h50        51     0.06503        1.0080 ; qtot   -0.065
        52           h51bf         1   UNL       h51        52     0.06500        1.0080 ; qtot    0.000

[ bonds ]
;       ai        aj funct               r               k
         1         2     1        0.175908   195809.182568    ;  uncertainty r = 0.000047, k = 2.927523
         2         3     1        0.138986   359842.922998    ;  uncertainty r = 0.000047, k = 3.943172
         2         8     1        0.140887   344825.085254    ;  uncertainty r = 0.000053, k = 4.817976
         3         4     1        0.139769   361084.358496    ;  uncertainty r = 0.000045, k = 5.255635
         3        31     1        0.108748   336686.204199    ;  uncertainty r = 0.000024, k = 0.551790
         4         5     1        0.141903   353960.730762    ;  uncertainty r = 0.000100, k = 13.709411
         4        30     1        0.175432   175284.024585    ;  uncertainty r = 0.000074, k = 14.596914
         5         6     1        0.143969   251670.255859    ;  uncertainty r = 0.000081, k = 16.026472
         5         7     1        0.140737   361821.870215    ;  uncertainty r = 0.000054, k = 3.367723
         6         9     1        0.136242   411867.403125    ;  uncertainty r = 0.000061, k = 5.668242
         6        32     1        0.108415   333257.081152    ;  uncertainty r = 0.000042, k = 1.750924
         7         8     1        0.138682   375582.362842    ;  uncertainty r = 0.000071, k = 3.181834
         7        33     1        0.108766   334738.105811    ;  uncertainty r = 0.000018, k = 1.253097
         8        34     1        0.108685   335757.317383    ;  uncertainty r = 0.000015, k = 0.903059
         9        10     1        0.177127   146867.363525    ;  uncertainty r = 0.000064, k = 4.335854
         9        30     1        0.175492   180447.896240    ;  uncertainty r = 0.000166, k = 10.819164
        10        11     1        0.146929   525258.604102    ;  uncertainty r = 0.000065, k = 8.171513
        10        12     1        0.146929   525258.604102    ;  uncertainty r = 0.000065, k = 8.171513
        10        13     1        0.170839   176070.337720    ;  uncertainty r = 0.000441, k = 38.993218
        13        14     1        0.145853   325967.513281    ;  uncertainty r = 0.000227, k = 23.567368
        13        35     1        0.102503   452537.088477    ;  uncertainty r = 0.000066, k = 4.496044
        14        15     1        0.153642   217518.943213    ;  uncertainty r = 0.000058, k = 11.337290
        14        17     1        0.152882   205251.311694    ;  uncertainty r = 0.000200, k = 16.619787
        14        36     1        0.109645   310616.620557    ;  uncertainty r = 0.000043, k = 2.401328
        15        16     1        0.154051   219214.019922    ;  uncertainty r = 0.000061, k = 4.273335
        15        37     1        0.109299   310844.386035    ;  uncertainty r = 0.000017, k = 1.748840
        15        38     1        0.109299   310844.386035    ;  uncertainty r = 0.000017, k = 1.748840
        16        19     1        0.146768   246650.400732    ;  uncertainty r = 0.000221, k = 12.930896
        16        39     1        0.109541   305996.165820    ;  uncertainty r = 0.000033, k = 2.444509
        16        40     1        0.109541   305996.165820    ;  uncertainty r = 0.000033, k = 2.444509
        17        18     1        0.123417   694917.965430    ;  uncertainty r = 0.000090, k = 12.430423
        17        19     1        0.136349   286304.756152    ;  uncertainty r = 0.000078, k = 23.105244
        19        20     1        0.145555   281517.671777    ;  uncertainty r = 0.000222, k = 19.681971
        20        21     1        0.153460   212444.030078    ;  uncertainty r = 0.000030, k = 6.319440
        20        22     1        0.154403   218642.780322    ;  uncertainty r = 0.000018, k = 16.462715
        20        41     1        0.109460   310823.190234    ;  uncertainty r = 0.000049, k = 2.513796
        21        42     1        0.109409   312861.000488    ;  uncertainty r = 0.000017, k = 1.141259
        21        43     1        0.109409   312861.000488    ;  uncertainty r = 0.000017, k = 1.141259
        21        44     1        0.109409   312861.000488    ;  uncertainty r = 0.000017, k = 1.141259
        22        23     1        0.123332   703381.882813    ;  uncertainty r = 0.000097, k = 9.602494
        22        24     1        0.136706   308486.621338    ;  uncertainty r = 0.000033, k = 12.395068
        24        25     1        0.146392   254501.759473    ;  uncertainty r = 0.000091, k = 8.526718
        24        29     1        0.146392   254501.759473    ;  uncertainty r = 0.000091, k = 8.526718
        25        26     1        0.152681   207263.227319    ;  uncertainty r = 0.000025, k = 4.718310
        25        45     1        0.109477   308256.276611    ;  uncertainty r = 0.000021, k = 2.245969
        25        46     1        0.109477   308256.276611    ;  uncertainty r = 0.000021, k = 2.245969
        26        27     1        0.142361   276005.563330    ;  uncertainty r = 0.000033, k = 2.914980
        26        47     1        0.109826   309629.075000    ;  uncertainty r = 0.000019, k = 1.877640
        26        48     1        0.109826   309629.075000    ;  uncertainty r = 0.000019, k = 1.877640
        27        28     1        0.142361   276005.563330    ;  uncertainty r = 0.000033, k = 2.914980
        28        29     1        0.152681   207263.227319    ;  uncertainty r = 0.000025, k = 4.718310
        28        49     1        0.109826   309629.075000    ;  uncertainty r = 0.000019, k = 1.877640
        28        50     1        0.109826   309629.100537    ;  uncertainty r = 0.000019, k = 1.877633
        29        51     1        0.109477   308256.276611    ;  uncertainty r = 0.000021, k = 2.245969
        29        52     1        0.109477   308256.251074    ;  uncertainty r = 0.000021, k = 2.245982

[ angles ]
;       ai        aj        ak funct           theta             cth
         1         2         3     1      120.043533      439.408710    ;  uncertainty theta = 0.002494, k = 0.088869
         1         2         8     1      119.761086      455.437938    ;  uncertainty theta = 0.001658, k = 0.068297
         2         3         4     1      116.242142      499.522458    ;  uncertainty theta = 0.002799, k = 0.108159
         2         3        31     1      121.393295      287.396608    ;  uncertainty theta = 0.001932, k = 0.127315
         2         8         7     1      120.091957      517.062941    ;  uncertainty theta = 0.001849, k = 0.061109
         2         8        34     1      120.240311      287.199525    ;  uncertainty theta = 0.001494, k = 0.055177
         3         2         8     1      123.147659      389.442546    ;  uncertainty theta = 0.001569, k = 0.079843
         3         4         5     1      120.658859      400.709614    ;  uncertainty theta = 0.002861, k = 0.210675
         3         4        30     1      126.094711      378.616503    ;  uncertainty theta = 0.005754, k = 0.097239
         4         3        31     1      122.968849      291.636247    ;  uncertainty theta = 0.000944, k = 0.096370
         4         5         6     1      111.996620      621.848596    ;  uncertainty theta = 0.003570, k = 0.193131
         4         5         7     1      117.292374      409.322068    ;  uncertainty theta = 0.004510, k = 0.192056
         4        30         9     1       89.193275     1163.680618    ;  uncertainty theta = 0.004909, k = 0.053243
         5         4        30     1      111.405128      501.353214    ;  uncertainty theta = 0.002423, k = 0.188128
         5         6         9     1      112.207970      669.106102    ;  uncertainty theta = 0.003705, k = 0.217654
         5         6        32     1      123.606384      249.339021    ;  uncertainty theta = 0.003462, k = 0.081010
         5         7         8     1      119.632553      537.146920    ;  uncertainty theta = 0.003338, k = 0.108098
         5         7        33     1      120.639793      288.487968    ;  uncertainty theta = 0.002050, k = 0.093104
         6         5         7     1      128.005402      405.101486    ;  uncertainty theta = 0.002849, k = 0.130031
         6         9        10     1      121.020813      299.915569    ;  uncertainty theta = 0.004657, k = 0.161538
         6         9        30     1      114.682190      443.098535    ;  uncertainty theta = 0.012114, k = 0.143873
         7         8        34     1      120.531113      286.094184    ;  uncertainty theta = 0.001728, k = 0.103880
         8         7        33     1      120.212708      282.609805    ;  uncertainty theta = 0.002549, k = 0.060570
         9         6        32     1      121.815651      247.650555    ;  uncertainty theta = 0.004739, k = 0.133349
         9        10        11     1      113.003113      611.824961    ;  uncertainty theta = 0.003138, k = 0.178813
         9        10        12     1      113.003113      611.824961    ;  uncertainty theta = 0.003138, k = 0.178813
         9        10        13     1      104.677773      654.322414    ;  uncertainty theta = 0.005286, k = 0.145829
        10         9        30     1      118.608505      338.378702    ;  uncertainty theta = 0.008959, k = 0.207137
        10        13        14     1      110.360367      419.458449    ;  uncertainty theta = 0.005374, k = 0.117380
        10        13        35     1      111.063065      440.467318    ;  uncertainty theta = 0.004331, k = 0.113081
        11        10        12     1      125.105019      796.067161    ;  uncertainty theta = 0.002258, k = 0.082988
        11        10        13     1      113.758240      814.968134    ;  uncertainty theta = 0.003756, k = 0.118980
        12        10        13     1      113.758240      814.968134    ;  uncertainty theta = 0.003756, k = 0.118980
        13        14        15     1      110.813522      582.281973    ;  uncertainty theta = 0.002117, k = 0.221116
        13        14        17     1      103.397507      504.632274    ;  uncertainty theta = 0.004719, k = 0.106833
        13        14        36     1      106.020554      411.108038    ;  uncertainty theta = 0.005220, k = 0.125690
        14        13        35     1      110.428833      398.947873    ;  uncertainty theta = 0.003145, k = 0.174897
        14        15        16     1      105.090881      704.961481    ;  uncertainty theta = 0.002584, k = 0.163493
        14        15        37     1      108.412819      386.708288    ;  uncertainty theta = 0.000541, k = 0.060988
        14        15        38     1      108.412819      386.708288    ;  uncertainty theta = 0.000541, k = 0.060988
        14        17        18     1      125.981590      461.544531    ;  uncertainty theta = 0.003053, k = 0.152205
        14        17        19     1      111.585571      487.843636    ;  uncertainty theta = 0.004459, k = 0.113759
        15        14        17     1      105.885330      714.826147    ;  uncertainty theta = 0.003343, k = 0.112684
        15        14        36     1      109.294922      381.983316    ;  uncertainty theta = 0.004209, k = 0.166193
        15        16        19     1      104.783669      782.725809    ;  uncertainty theta = 0.002755, k = 0.099545
        15        16        39     1      110.273422      402.520132    ;  uncertainty theta = 0.001363, k = 0.041871
        15        16        40     1      110.273422      402.520132    ;  uncertainty theta = 0.001363, k = 0.041871
        16        15        37     1      109.696510      408.338730    ;  uncertainty theta = 0.001401, k = 0.098939
        16        15        38     1      109.696510      408.338730    ;  uncertainty theta = 0.001401, k = 0.098939
        16        19        17     1      113.800400      558.185412    ;  uncertainty theta = 0.004051, k = 0.196713
        16        19        20     1      116.627670      418.914317    ;  uncertainty theta = 0.004736, k = 0.139254
        17        14        36     1      108.395241      373.986370    ;  uncertainty theta = 0.002018, k = 0.148961
        17        19        20     1      115.859238      394.898134    ;  uncertainty theta = 0.005834, k = 0.223208
        18        17        19     1      126.441208      689.779605    ;  uncertainty theta = 0.003327, k = 0.081511
        19        16        39     1      108.898422      451.460182    ;  uncertainty theta = 0.000848, k = 0.056988
        19        16        40     1      108.898422      451.460182    ;  uncertainty theta = 0.000848, k = 0.056988
        19        20        21     1      110.632401      680.881263    ;  uncertainty theta = 0.005659, k = 0.187610
        19        20        22     1      106.307907      510.576611    ;  uncertainty theta = 0.004206, k = 0.177546
        19        20        41     1      104.193527      439.162245    ;  uncertainty theta = 0.004577, k = 0.070621
        20        21        42     1      107.700577      390.638257    ;  uncertainty theta = 0.001974, k = 0.049172
        20        21        43     1      107.700577      390.638257    ;  uncertainty theta = 0.001974, k = 0.049172
        20        21        44     1      107.700577      390.638257    ;  uncertainty theta = 0.001974, k = 0.049172
        20        22        23     1      123.488663      491.647772    ;  uncertainty theta = 0.006202, k = 0.099047
        20        22        24     1      112.431114      386.828280    ;  uncertainty theta = 0.005821, k = 0.248360
        21        20        22     1      107.996933      498.807419    ;  uncertainty theta = 0.002482, k = 0.128252
        21        20        41     1      108.264465      418.620896    ;  uncertainty theta = 0.003532, k = 0.103854
        22        20        41     1      108.421043      367.404340    ;  uncertainty theta = 0.006220, k = 0.162230
        22        24        25     1      116.829430      363.497960    ;  uncertainty theta = 0.002063, k = 0.124181
        22        24        29     1      116.829430      363.497960    ;  uncertainty theta = 0.002063, k = 0.124181
        23        22        24     1      124.422546      748.757049    ;  uncertainty theta = 0.002982, k = 0.183298
        24        25        26     1      110.182350      714.010875    ;  uncertainty theta = 0.000722, k = 0.109108
        24        25        45     1      108.304482      458.396540    ;  uncertainty theta = 0.000957, k = 0.042005
        24        25        46     1      108.304482      458.396540    ;  uncertainty theta = 0.000957, k = 0.042005
        24        29        28     1      110.182350      714.010875    ;  uncertainty theta = 0.000722, k = 0.109108
        24        29        51     1      108.304482      458.396540    ;  uncertainty theta = 0.000957, k = 0.042005
        24        29        52     1      108.304482      458.396540    ;  uncertainty theta = 0.000957, k = 0.042005
        25        24        29     1      115.684769      415.199370    ;  uncertainty theta = 0.005388, k = 0.132019
        25        26        27     1      111.287369      644.552363    ;  uncertainty theta = 0.002689, k = 0.032587
        25        26        47     1      109.515793      404.665536    ;  uncertainty theta = 0.000894, k = 0.016388
        25        26        48     1      109.515793      404.665536    ;  uncertainty theta = 0.000894, k = 0.016388
        26        25        45     1      109.080734      409.167122    ;  uncertainty theta = 0.000740, k = 0.033495
        26        25        46     1      109.080734      409.167122    ;  uncertainty theta = 0.000740, k = 0.033495
        26        27        28     1      110.179764      541.020197    ;  uncertainty theta = 0.002124, k = 0.077936
        27        26        47     1      107.084984      465.302572    ;  uncertainty theta = 0.000967, k = 0.023146
        27        26        48     1      107.084984      465.302572    ;  uncertainty theta = 0.000967, k = 0.023146
        27        28        29     1      111.287369      644.552363    ;  uncertainty theta = 0.002689, k = 0.032587
        27        28        49     1      107.084984      465.302572    ;  uncertainty theta = 0.000967, k = 0.023146
        27        28        50     1      107.084984      465.302572    ;  uncertainty theta = 0.000967, k = 0.023146
        28        29        51     1      109.080734      409.167122    ;  uncertainty theta = 0.000740, k = 0.033495
        28        29        52     1      109.080734      409.167122    ;  uncertainty theta = 0.000740, k = 0.033495
        29        28        49     1      109.515793      404.665536    ;  uncertainty theta = 0.000894, k = 0.016388
        29        28        50     1      109.515793      404.665536    ;  uncertainty theta = 0.000894, k = 0.016388
        37        15        38     1      106.440086      304.816109    ;  uncertainty theta = 0.003856, k = 0.068106
        39        16        40     1      105.856216      304.101580    ;  uncertainty theta = 0.002097, k = 0.072369
        42        21        43     1      105.685402      315.694087    ;  uncertainty theta = 0.001842, k = 0.014287
        42        21        44     1      105.685402      315.694087    ;  uncertainty theta = 0.001842, k = 0.014287
        43        21        44     1      105.685410      315.694087    ;  uncertainty theta = 0.001842, k = 0.014287
        45        25        46     1      105.962692      319.495222    ;  uncertainty theta = 0.000795, k = 0.039018
        47        26        48     1      107.529320      317.902537    ;  uncertainty theta = 0.001237, k = 0.038568
        49        28        50     1      107.529320      317.902537    ;  uncertainty theta = 0.001237, k = 0.038568
        51        29        52     1      105.962692      319.495222    ;  uncertainty theta = 0.000795, k = 0.039019

[ dihedrals ] ; propers for gromacs 4.5 or higher, use funct 9
;       ai        aj        ak        al funct           phase               k        pn
         1         2         3         4     9        0.000000       -0.092461         1    ;  uncertainty k = 0.104326
         1         2         3         4     9      180.000000       11.385899         2    ;  uncertainty k = 0.313572
         1         2         3         4     9        0.000000        1.405621         3    ;  uncertainty k = 0.293156
         1         2         3         4     9      180.000000        1.574468         4    ;  uncertainty k = 0.188679
         1         2         3        31     9        0.000000       -0.222737         1    ;  uncertainty k = 0.451189
         1         2         3        31     9      180.000000        8.029243         2    ;  uncertainty k = 0.451066
         1         2         3        31     9        0.000000        0.721025         3    ;  uncertainty k = 0.367025
         1         2         3        31     9      180.000000        0.972004         4    ;  uncertainty k = 0.314230
         1         2         8         7     9        0.000000        0.205995         1    ;  uncertainty k = 0.056175
         1         2         8         7     9      180.000000        8.335135         2    ;  uncertainty k = 0.630626
         1         2         8         7     9        0.000000        1.509824         3    ;  uncertainty k = 0.446899
         1         2         8         7     9      180.000000        1.596388         4    ;  uncertainty k = 0.169966
         1         2         8        34     9        0.000000       -0.032825         1    ;  uncertainty k = 0.221892
         1         2         8        34     9      180.000000        7.057335         2    ;  uncertainty k = 0.317518
         1         2         8        34     9        0.000000        0.622268         3    ;  uncertainty k = 0.335177
         1         2         8        34     9      180.000000        0.898834         4    ;  uncertainty k = 0.184426
         2         3         4         5     9        0.000000       -0.041700         1    ;  uncertainty k = 0.491287
         2         3         4         5     9      180.000000       12.425711         2    ;  uncertainty k = 0.450224
         2         3         4         5     9        0.000000       -0.900260         3    ;  uncertainty k = 0.156593
         2         3         4         5     9      180.000000        0.930148         4    ;  uncertainty k = 0.308604
         2         3         4        30     9        0.000000        0.329832         1    ;  uncertainty k = 0.455235
         2         3         4        30     9      180.000000        9.206784         2    ;  uncertainty k = 0.732172
         2         3         4        30     9        0.000000        1.103031         3    ;  uncertainty k = 0.340555
         2         3         4        30     9      180.000000        1.338408         4    ;  uncertainty k = 0.329511
         2         8         7         5     9        0.000000       -0.000395         1    ;  uncertainty k = 0.320585
         2         8         7         5     9      180.000000       16.539235         2    ;  uncertainty k = 0.196932
         2         8         7         5     9        0.000000       -0.384282         3    ;  uncertainty k = 0.623471
         2         8         7         5     9      180.000000        0.738899         4    ;  uncertainty k = 0.397998
         2         8         7        33     9        0.000000        0.094754         1    ;  uncertainty k = 0.155301
         2         8         7        33     9      180.000000        8.963901         2    ;  uncertainty k = 0.483081
         2         8         7        33     9        0.000000        1.541222         3    ;  uncertainty k = 0.306079
         2         8         7        33     9      180.000000        1.967374         4    ;  uncertainty k = 0.352240
         3         2         8         7     9        0.000000        0.028165         1    ;  uncertainty k = 0.258185
         3         2         8         7     9      180.000000        8.722904         2    ;  uncertainty k = 0.451569
         3         2         8         7     9        0.000000       -0.050203         3    ;  uncertainty k = 0.468574
         3         2         8         7     9      180.000000        1.179254         4    ;  uncertainty k = 0.239177
         3         2         8        34     9        0.000000        0.001072         1    ;  uncertainty k = 0.052082
         3         2         8        34     9      180.000000        5.747764         2    ;  uncertainty k = 0.617985
         3         2         8        34     9        0.000000        1.292865         3    ;  uncertainty k = 0.302834
         3         2         8        34     9      180.000000        1.413956         4    ;  uncertainty k = 0.142244
         3         4         5         6     9        0.000000       -0.191890         1    ;  uncertainty k = 0.609827
         3         4         5         6     9      180.000000        8.895962         2    ;  uncertainty k = 0.587924
         3         4         5         6     9        0.000000        0.549343         3    ;  uncertainty k = 0.329949
         3         4         5         6     9      180.000000        1.251358         4    ;  uncertainty k = 0.256111
         3         4         5         7     9        0.000000       -0.280932         1    ;  uncertainty k = 0.559990
         3         4         5         7     9      180.000000        9.149258         2    ;  uncertainty k = 0.663388
         3         4         5         7     9        0.000000        0.092627         3    ;  uncertainty k = 0.306952
         3         4         5         7     9      180.000000        1.076505         4    ;  uncertainty k = 0.257702
         3         4        30         9     9        0.000000       -0.319287         1    ;  uncertainty k = 2.049877
         3         4        30         9     9      180.000000        7.013815         2    ;  uncertainty k = 1.292007
         3         4        30         9     9        0.000000        0.871007         3    ;  uncertainty k = 0.306716
         3         4        30         9     9      180.000000        0.584465         4    ;  uncertainty k = 0.523359
         4         3         2         8     9        0.000000       -0.013032         1    ;  uncertainty k = 0.155072
         4         3         2         8     9      180.000000       11.398859         2    ;  uncertainty k = 0.474012
         4         3         2         8     9        0.000000        0.198060         3    ;  uncertainty k = 0.458099
         4         3         2         8     9      180.000000        1.128758         4    ;  uncertainty k = 0.403801
         4         5         6         9     9        0.000000       -0.449002         1    ;  uncertainty k = 0.309677
         4         5         6         9     9      180.000000       13.397512         2    ;  uncertainty k = 0.457207
         4         5         6         9     9        0.000000       -4.827424         3    ;  uncertainty k = 0.922186
         4         5         6         9     9      180.000000        1.189531         4    ;  uncertainty k = 0.522429
         4         5         6        32     9        0.000000       -0.227088         1    ;  uncertainty k = 0.709369
         4         5         6        32     9      180.000000        7.990854         2    ;  uncertainty k = 0.757013
         4         5         6        32     9        0.000000        0.856459         3    ;  uncertainty k = 0.552927
         4         5         6        32     9      180.000000        0.214498         4    ;  uncertainty k = 0.264453
         4         5         7         8     9        0.000000        0.184357         1    ;  uncertainty k = 0.305341
         4         5         7         8     9      180.000000       13.476102         2    ;  uncertainty k = 0.369211
         4         5         7         8     9        0.000000       -1.381025         3    ;  uncertainty k = 0.400876
         4         5         7         8     9      180.000000        0.662658         4    ;  uncertainty k = 0.192225
         4         5         7        33     9        0.000000       -0.111671         1    ;  uncertainty k = 0.413483
         4         5         7        33     9      180.000000        7.250180         2    ;  uncertainty k = 0.448423
         4         5         7        33     9        0.000000        1.249113         3    ;  uncertainty k = 0.314743
         4         5         7        33     9      180.000000        1.302419         4    ;  uncertainty k = 0.266486
         4        30         9         6     9        0.000000       -0.831219         1    ;  uncertainty k = 1.120417
         4        30         9         6     9      180.000000       12.915757         2    ;  uncertainty k = 0.176094
         4        30         9         6     9        0.000000       -6.089333         3    ;  uncertainty k = 0.988659
         4        30         9         6     9      180.000000        1.246800         4    ;  uncertainty k = 0.600909
         4        30         9        10     9        0.000000        1.445722         1    ;  uncertainty k = 1.553258
         4        30         9        10     9      180.000000        5.290046         2    ;  uncertainty k = 1.124714
         4        30         9        10     9        0.000000        1.467230         3    ;  uncertainty k = 0.226576
         4        30         9        10     9      180.000000        0.157448         4    ;  uncertainty k = 0.237346
         5         4         3        31     9        0.000000        0.027016         1    ;  uncertainty k = 0.261844
         5         4         3        31     9      180.000000        6.485494         2    ;  uncertainty k = 0.802402
         5         4         3        31     9        0.000000        1.572838         3    ;  uncertainty k = 0.224069
         5         4         3        31     9      180.000000        1.438295         4    ;  uncertainty k = 0.283568
         5         4        30         9     9        0.000000       -0.529698         1    ;  uncertainty k = 0.743598
         5         4        30         9     9      180.000000       14.888076         2    ;  uncertainty k = 0.720515
         5         4        30         9     9        0.000000       -6.001859         3    ;  uncertainty k = 1.338131
         5         4        30         9     9      180.000000        0.468735         4    ;  uncertainty k = 0.792759
         5         6         9        10     9        0.000000        0.770529         1    ;  uncertainty k = 0.829995
         5         6         9        10     9      180.000000       15.612322         2    ;  uncertainty k = 0.164100
         5         6         9        10     9        0.000000        2.219418         3    ;  uncertainty k = 0.450379
         5         6         9        10     9      180.000000        0.638971         4    ;  uncertainty k = 0.274714
         5         6         9        30     9        0.000000       -0.558056         1    ;  uncertainty k = 0.678423
         5         6         9        30     9      180.000000       19.373205         2    ;  uncertainty k = 0.271316
         5         6         9        30     9        0.000000       -1.367420         3    ;  uncertainty k = 0.657458
         5         6         9        30     9      180.000000        0.826441         4    ;  uncertainty k = 0.565210
         5         7         8        34     9        0.000000        0.033900         1    ;  uncertainty k = 0.295459
         5         7         8        34     9      180.000000       10.903226         2    ;  uncertainty k = 0.192032
         5         7         8        34     9        0.000000        1.610933         3    ;  uncertainty k = 0.198949
         5         7         8        34     9      180.000000        1.720144         4    ;  uncertainty k = 0.244361
         6         5         4        30     9        0.000000       -0.489354         1    ;  uncertainty k = 0.779103
         6         5         4        30     9      180.000000       10.975387         2    ;  uncertainty k = 0.698252
         6         5         4        30     9        0.000000       -0.494694         3    ;  uncertainty k = 0.807128
         6         5         4        30     9      180.000000        1.203580         4    ;  uncertainty k = 0.190526
         6         5         7         8     9        0.000000        0.425431         1    ;  uncertainty k = 0.484455
         6         5         7         8     9      180.000000        8.898515         2    ;  uncertainty k = 0.241718
         6         5         7         8     9        0.000000        0.822388         3    ;  uncertainty k = 0.187448
         6         5         7         8     9      180.000000        1.360605         4    ;  uncertainty k = 0.145003
         6         5         7        33     9        0.000000        0.292011         1    ;  uncertainty k = 0.300721
         6         5         7        33     9      180.000000        6.203512         2    ;  uncertainty k = 0.659416
         6         5         7        33     9        0.000000        1.063734         3    ;  uncertainty k = 0.164841
         6         5         7        33     9      180.000000        0.827605         4    ;  uncertainty k = 0.169121
         6         9        10        11     9        0.000000        2.033740         1    ;  uncertainty k = 0.938649
         6         9        10        11     9      180.000000        1.208410         2    ;  uncertainty k = 0.468968
         6         9        10        11     9        0.000000        0.396059         3    ;  uncertainty k = 0.075027
         6         9        10        11     9      180.000000        0.102676         4    ;  uncertainty k = 0.168005
         6         9        10        12     9        0.000000        2.033740         1    ;  uncertainty k = 0.938649
         6         9        10        12     9      180.000000        1.208410         2    ;  uncertainty k = 0.468968
         6         9        10        12     9        0.000000        0.396059         3    ;  uncertainty k = 0.075027
         6         9        10        12     9      180.000000        0.102676         4    ;  uncertainty k = 0.168005
         6         9        10        13     9        0.000000        2.901260         1    ;  uncertainty k = 1.298295
         6         9        10        13     9      180.000000        1.574554         2    ;  uncertainty k = 0.426920
         6         9        10        13     9        0.000000       -0.118486         3    ;  uncertainty k = 0.288143
         6         9        10        13     9      180.000000       -0.052372         4    ;  uncertainty k = 0.217453
         7         5         4        30     9        0.000000        0.041123         1    ;  uncertainty k = 0.483658
         7         5         4        30     9      180.000000        8.211289         2    ;  uncertainty k = 0.289076
         7         5         4        30     9        0.000000        0.434816         3    ;  uncertainty k = 0.514936
         7         5         4        30     9      180.000000        1.184412         4    ;  uncertainty k = 0.194949
         7         5         6         9     9        0.000000       -0.285164         1    ;  uncertainty k = 0.489825
         7         5         6         9     9      180.000000        7.209793         2    ;  uncertainty k = 0.363897
         7         5         6         9     9        0.000000        0.489426         3    ;  uncertainty k = 0.347270
         7         5         6         9     9      180.000000        0.536064         4    ;  uncertainty k = 0.264928
         7         5         6        32     9        0.000000        0.320786         1    ;  uncertainty k = 0.362401
         7         5         6        32     9      180.000000        5.415085         2    ;  uncertainty k = 0.489586
         7         5         6        32     9        0.000000        1.203568         3    ;  uncertainty k = 0.149571
         7         5         6        32     9      180.000000        0.124287         4    ;  uncertainty k = 0.062936
         8         2         3        31     9        0.000000        0.170443         1    ;  uncertainty k = 0.186498
         8         2         3        31     9      180.000000        6.955199         2    ;  uncertainty k = 0.505041
         8         2         3        31     9        0.000000        1.553644         3    ;  uncertainty k = 0.300660
         8         2         3        31     9      180.000000        1.569414         4    ;  uncertainty k = 0.119552
         9        10        13        14     9        0.000000       -4.921690         1    ;  uncertainty k = 1.953739
         9        10        13        14     9      180.000000       -3.474364         2    ;  uncertainty k = 0.653517
         9        10        13        14     9        0.000000        2.364134         3    ;  uncertainty k = 0.679340
         9        10        13        14     9      180.000000        0.024595         4    ;  uncertainty k = 0.349946
         9        10        13        35     9        0.000000        1.181861         1    ;  uncertainty k = 1.209587
         9        10        13        35     9      180.000000       -5.199461         2    ;  uncertainty k = 0.662790
         9        10        13        35     9        0.000000       -0.642461         3    ;  uncertainty k = 0.599162
         9        10        13        35     9      180.000000       -0.105485         4    ;  uncertainty k = 0.206063
        10         9         6        32     9        0.000000       -0.136227         1    ;  uncertainty k = 0.495457
        10         9         6        32     9      180.000000        9.663891         2    ;  uncertainty k = 0.460074
        10         9         6        32     9        0.000000        1.524019         3    ;  uncertainty k = 0.249899
        10         9         6        32     9      180.000000        0.649398         4    ;  uncertainty k = 0.131528
        10        13        14        15     9        0.000000       -3.252775         1    ;  uncertainty k = 1.526759
        10        13        14        15     9      180.000000       -1.527381         2    ;  uncertainty k = 0.827015
        10        13        14        15     9        0.000000        0.558648         3    ;  uncertainty k = 0.218970
        10        13        14        15     9      180.000000        0.024758         4    ;  uncertainty k = 0.175358
        10        13        14        17     9        0.000000        2.992732         1    ;  uncertainty k = 1.327936
        10        13        14        17     9      180.000000       -3.506222         2    ;  uncertainty k = 0.989731
        10        13        14        17     9        0.000000       -0.042502         3    ;  uncertainty k = 0.110622
        10        13        14        17     9      180.000000        0.204024         4    ;  uncertainty k = 0.239600
        10        13        14        36     9        0.000000        2.591561         1    ;  uncertainty k = 1.678176
        10        13        14        36     9      180.000000       -3.072556         2    ;  uncertainty k = 1.193463
        10        13        14        36     9        0.000000        0.305685         3    ;  uncertainty k = 0.363075
        10        13        14        36     9      180.000000        0.053465         4    ;  uncertainty k = 0.067402
        11        10         9        30     9        0.000000       -7.490170         1    ;  uncertainty k = 0.683818
        11        10         9        30     9      180.000000        1.083302         2    ;  uncertainty k = 0.729157
        11        10         9        30     9        0.000000        0.796939         3    ;  uncertainty k = 0.227831
        11        10         9        30     9      180.000000        0.026644         4    ;  uncertainty k = 0.142789
        11        10        13        14     9        0.000000        1.100183         1    ;  uncertainty k = 1.268964
        11        10        13        14     9      180.000000        2.360693         2    ;  uncertainty k = 0.431869
        11        10        13        14     9        0.000000        1.541661         3    ;  uncertainty k = 0.465194
        11        10        13        14     9      180.000000       -0.343152         4    ;  uncertainty k = 0.299344
        11        10        13        35     9        0.000000        7.536546         1    ;  uncertainty k = 0.712317
        11        10        13        35     9      180.000000        0.533843         2    ;  uncertainty k = 0.824366
        11        10        13        35     9        0.000000       -0.438025         3    ;  uncertainty k = 0.202383
        11        10        13        35     9      180.000000       -0.148568         4    ;  uncertainty k = 0.223518
        12        10         9        30     9        0.000000       -7.490170         1    ;  uncertainty k = 0.683818
        12        10         9        30     9      180.000000        1.083302         2    ;  uncertainty k = 0.729157
        12        10         9        30     9        0.000000        0.796939         3    ;  uncertainty k = 0.227831
        12        10         9        30     9      180.000000        0.026644         4    ;  uncertainty k = 0.142789
        12        10        13        14     9        0.000000        1.100183         1    ;  uncertainty k = 1.268964
        12        10        13        14     9      180.000000        2.360693         2    ;  uncertainty k = 0.431869
        12        10        13        14     9        0.000000        1.541661         3    ;  uncertainty k = 0.465194
        12        10        13        14     9      180.000000       -0.343152         4    ;  uncertainty k = 0.299344
        12        10        13        35     9        0.000000        7.536546         1    ;  uncertainty k = 0.712317
        12        10        13        35     9      180.000000        0.533843         2    ;  uncertainty k = 0.824366
        12        10        13        35     9        0.000000       -0.438025         3    ;  uncertainty k = 0.202383
        12        10        13        35     9      180.000000       -0.148568         4    ;  uncertainty k = 0.223518
        13        10         9        30     9        0.000000       -2.857914         1    ;  uncertainty k = 1.146778
        13        10         9        30     9      180.000000        0.712450         2    ;  uncertainty k = 1.035234
        13        10         9        30     9        0.000000        0.596216         3    ;  uncertainty k = 0.452570
        13        10         9        30     9      180.000000       -0.142593         4    ;  uncertainty k = 0.217762
        13        14        15        16     9        0.000000       -2.673566         1    ;  uncertainty k = 1.998999
        13        14        15        16     9      180.000000        0.135000         2    ;  uncertainty k = 0.485529
        13        14        15        16     9        0.000000        1.179017         3    ;  uncertainty k = 0.356891
        13        14        15        16     9      180.000000       -0.068891         4    ;  uncertainty k = 0.110695
        13        14        15        37     9        0.000000       -0.076073         1    ;  uncertainty k = 0.384008
        13        14        15        37     9      180.000000       -0.088130         2    ;  uncertainty k = 0.266943
        13        14        15        37     9        0.000000        1.220285         3    ;  uncertainty k = 0.207978
        13        14        15        37     9      180.000000        0.034595         4    ;  uncertainty k = 0.165275
        13        14        15        38     9        0.000000       -0.076073         1    ;  uncertainty k = 0.384008
        13        14        15        38     9      180.000000       -0.088130         2    ;  uncertainty k = 0.266943
        13        14        15        38     9        0.000000        1.220285         3    ;  uncertainty k = 0.207978
        13        14        15        38     9      180.000000        0.034595         4    ;  uncertainty k = 0.165275
        13        14        17        18     9        0.000000        0.714822         1    ;  uncertainty k = 1.245969
        13        14        17        18     9      180.000000        5.295991         2    ;  uncertainty k = 0.735967
        13        14        17        18     9        0.000000        0.623754         3    ;  uncertainty k = 0.343414
        13        14        17        18     9      180.000000        0.226354         4    ;  uncertainty k = 0.192090
        13        14        17        19     9        0.000000       -1.053608         1    ;  uncertainty k = 1.117431
        13        14        17        19     9      180.000000        3.396734         2    ;  uncertainty k = 0.712358
        13        14        17        19     9        0.000000        1.140704         3    ;  uncertainty k = 0.287434
        13        14        17        19     9      180.000000        0.427143         4    ;  uncertainty k = 0.178761
        14        15        16        19     9        0.000000       -0.900391         1    ;  uncertainty k = 0.824844
        14        15        16        19     9      180.000000        2.790784         2    ;  uncertainty k = 1.038021
        14        15        16        19     9        0.000000        0.577166         3    ;  uncertainty k = 0.450165
        14        15        16        19     9      180.000000       -1.567199         4    ;  uncertainty k = 0.413906
        14        15        16        39     9        0.000000        0.508141         1    ;  uncertainty k = 0.387436
        14        15        16        39     9      180.000000       -1.457960         2    ;  uncertainty k = 0.267738
        14        15        16        39     9        0.000000       -0.250955         3    ;  uncertainty k = 0.202328
        14        15        16        39     9      180.000000        0.083897         4    ;  uncertainty k = 0.135319
        14        15        16        40     9        0.000000        0.508141         1    ;  uncertainty k = 0.387436
        14        15        16        40     9      180.000000       -1.457960         2    ;  uncertainty k = 0.267738
        14        15        16        40     9        0.000000       -0.250955         3    ;  uncertainty k = 0.202328
        14        15        16        40     9      180.000000        0.083897         4    ;  uncertainty k = 0.135319
        14        17        19        16     9        0.000000        2.446281         1    ;  uncertainty k = 3.352831
        14        17        19        16     9      180.000000        7.692928         2    ;  uncertainty k = 1.164163
        14        17        19        16     9        0.000000        0.576923         3    ;  uncertainty k = 0.591421
        14        17        19        16     9      180.000000        0.260320         4    ;  uncertainty k = 0.390504
        14        17        19        20     9        0.000000        6.268748         1    ;  uncertainty k = 0.714425
        14        17        19        20     9      180.000000        8.670160         2    ;  uncertainty k = 0.732613
        14        17        19        20     9        0.000000        1.742596         3    ;  uncertainty k = 0.552800
        14        17        19        20     9      180.000000       -0.110520         4    ;  uncertainty k = 0.365021
        15        14        13        35     9        0.000000        4.066419         1    ;  uncertainty k = 1.427581
        15        14        13        35     9      180.000000       -3.677249         2    ;  uncertainty k = 0.721727
        15        14        13        35     9        0.000000        0.420882         3    ;  uncertainty k = 0.255217
        15        14        13        35     9      180.000000       -0.031156         4    ;  uncertainty k = 0.097571
        15        14        17        18     9        0.000000       -2.063846         1    ;  uncertainty k = 1.005656
        15        14        17        18     9      180.000000        2.959956         2    ;  uncertainty k = 0.800501
        15        14        17        18     9        0.000000        0.798161         3    ;  uncertainty k = 0.336071
        15        14        17        18     9      180.000000        0.507019         4    ;  uncertainty k = 0.177529
        15        14        17        19     9        0.000000       -3.401877         1    ;  uncertainty k = 1.863089
        15        14        17        19     9      180.000000        5.247244         2    ;  uncertainty k = 1.537078
        15        14        17        19     9        0.000000        0.089655         3    ;  uncertainty k = 0.514962
        15        14        17        19     9      180.000000        0.658535         4    ;  uncertainty k = 0.269589
        15        16        19        17     9        0.000000       -1.271696         1    ;  uncertainty k = 1.646556
        15        16        19        17     9      180.000000        3.031980         2    ;  uncertainty k = 0.927563
        15        16        19        17     9        0.000000       -0.420830         3    ;  uncertainty k = 0.323621
        15        16        19        17     9      180.000000        0.331591         4    ;  uncertainty k = 0.299174
        15        16        19        20     9        0.000000       -0.500053         1    ;  uncertainty k = 1.100375
        15        16        19        20     9      180.000000        1.256366         2    ;  uncertainty k = 0.392406
        15        16        19        20     9        0.000000        1.672566         3    ;  uncertainty k = 0.563027
        15        16        19        20     9      180.000000       -0.085895         4    ;  uncertainty k = 0.253752
        16        15        14        17     9        0.000000       -0.494033         1    ;  uncertainty k = 0.527540
        16        15        14        17     9      180.000000        3.655256         2    ;  uncertainty k = 1.314088
        16        15        14        17     9        0.000000       -0.080142         3    ;  uncertainty k = 0.299413
        16        15        14        17     9      180.000000       -0.133206         4    ;  uncertainty k = 0.238509
        16        15        14        36     9        0.000000       -1.046148         1    ;  uncertainty k = 0.683852
        16        15        14        36     9      180.000000        0.201248         2    ;  uncertainty k = 0.505602
        16        15        14        36     9        0.000000        0.194718         3    ;  uncertainty k = 0.165681
        16        15        14        36     9      180.000000       -0.007863         4    ;  uncertainty k = 0.028809
        16        19        17        18     9        0.000000        1.706007         1    ;  uncertainty k = 1.828933
        16        19        17        18     9      180.000000       15.708326         2    ;  uncertainty k = 0.448233
        16        19        17        18     9        0.000000        1.023144         3    ;  uncertainty k = 0.259184
        16        19        17        18     9      180.000000       -0.722973         4    ;  uncertainty k = 0.243370
        16        19        20        21     9        0.000000       -0.688492         1    ;  uncertainty k = 0.671699
        16        19        20        21     9      180.000000        0.533676         2    ;  uncertainty k = 0.436027
        16        19        20        21     9        0.000000        1.107179         3    ;  uncertainty k = 0.173282
        16        19        20        21     9      180.000000        0.093772         4    ;  uncertainty k = 0.021274
        16        19        20        22     9        0.000000       -0.395089         1    ;  uncertainty k = 0.653414
        16        19        20        22     9      180.000000       -0.350453         2    ;  uncertainty k = 0.414882
        16        19        20        22     9        0.000000        1.165686         3    ;  uncertainty k = 0.166063
        16        19        20        22     9      180.000000        0.181576         4    ;  uncertainty k = 0.126992
        16        19        20        41     9        0.000000       -2.305625         1    ;  uncertainty k = 0.822179
        16        19        20        41     9      180.000000        0.234101         2    ;  uncertainty k = 0.379196
        16        19        20        41     9        0.000000        0.742947         3    ;  uncertainty k = 0.268478
        16        19        20        41     9      180.000000        0.126564         4    ;  uncertainty k = 0.061018
        17        14        13        35     9        0.000000        6.425863         1    ;  uncertainty k = 0.686843
        17        14        13        35     9      180.000000       -5.137738         2    ;  uncertainty k = 0.767069
        17        14        13        35     9        0.000000        0.278868         3    ;  uncertainty k = 0.238341
        17        14        13        35     9      180.000000       -0.026449         4    ;  uncertainty k = 0.181107
        17        14        15        37     9        0.000000       -0.431560         1    ;  uncertainty k = 0.661124
        17        14        15        37     9      180.000000       -0.496919         2    ;  uncertainty k = 0.345768
        17        14        15        37     9        0.000000        0.474416         3    ;  uncertainty k = 0.068956
        17        14        15        37     9      180.000000        0.036686         4    ;  uncertainty k = 0.080817
        17        14        15        38     9        0.000000       -0.431560         1    ;  uncertainty k = 0.661124
        17        14        15        38     9      180.000000       -0.496919         2    ;  uncertainty k = 0.345768
        17        14        15        38     9        0.000000        0.474416         3    ;  uncertainty k = 0.068956
        17        14        15        38     9      180.000000        0.036686         4    ;  uncertainty k = 0.080817
        17        19        16        39     9        0.000000       -0.126021         1    ;  uncertainty k = 0.747628
        17        19        16        39     9      180.000000        0.293972         2    ;  uncertainty k = 0.484269
        17        19        16        39     9        0.000000        0.164615         3    ;  uncertainty k = 0.183342
        17        19        16        39     9      180.000000        0.417669         4    ;  uncertainty k = 0.109232
        17        19        16        40     9        0.000000       -0.126021         1    ;  uncertainty k = 0.747628
        17        19        16        40     9      180.000000        0.293972         2    ;  uncertainty k = 0.484269
        17        19        16        40     9        0.000000        0.164615         3    ;  uncertainty k = 0.183342
        17        19        16        40     9      180.000000        0.417669         4    ;  uncertainty k = 0.109232
        17        19        20        21     9        0.000000        0.832869         1    ;  uncertainty k = 0.469341
        17        19        20        21     9      180.000000        0.390728         2    ;  uncertainty k = 0.304508
        17        19        20        21     9        0.000000        0.474399         3    ;  uncertainty k = 0.139969
        17        19        20        21     9      180.000000        0.242619         4    ;  uncertainty k = 0.127693
        17        19        20        22     9        0.000000        1.833407         1    ;  uncertainty k = 0.853465
        17        19        20        22     9      180.000000        0.209535         2    ;  uncertainty k = 0.537380
        17        19        20        22     9        0.000000       -0.592888         3    ;  uncertainty k = 0.163296
        17        19        20        22     9      180.000000        0.840729         4    ;  uncertainty k = 0.057254
        17        19        20        41     9        0.000000       -0.205144         1    ;  uncertainty k = 0.599169
        17        19        20        41     9      180.000000        0.004804         2    ;  uncertainty k = 0.153471
        17        19        20        41     9        0.000000       -0.044376         3    ;  uncertainty k = 0.129015
        17        19        20        41     9      180.000000        0.266747         4    ;  uncertainty k = 0.031692
        18        17        14        36     9        0.000000       -0.939635         1    ;  uncertainty k = 0.920696
        18        17        14        36     9      180.000000        3.313287         2    ;  uncertainty k = 0.484581
        18        17        14        36     9        0.000000        0.041973         3    ;  uncertainty k = 0.545681
        18        17        14        36     9      180.000000        0.120210         4    ;  uncertainty k = 0.273969
        18        17        19        20     9        0.000000        2.731142         1    ;  uncertainty k = 1.962138
        18        17        19        20     9      180.000000       14.178956         2    ;  uncertainty k = 0.588436
        18        17        19        20     9        0.000000        0.947456         3    ;  uncertainty k = 0.406074
        18        17        19        20     9      180.000000       -0.454871         4    ;  uncertainty k = 0.414263
        19        16        15        37     9        0.000000       -1.829510         1    ;  uncertainty k = 0.456616
        19        16        15        37     9      180.000000        0.325894         2    ;  uncertainty k = 0.435580
        19        16        15        37     9        0.000000        1.355353         3    ;  uncertainty k = 0.143785
        19        16        15        37     9      180.000000        0.074444         4    ;  uncertainty k = 0.249644
        19        16        15        38     9        0.000000       -1.829510         1    ;  uncertainty k = 0.456616
        19        16        15        38     9      180.000000        0.325894         2    ;  uncertainty k = 0.435580
        19        16        15        38     9        0.000000        1.355353         3    ;  uncertainty k = 0.143785
        19        16        15        38     9      180.000000        0.074444         4    ;  uncertainty k = 0.249644
        19        17        14        36     9        0.000000       -2.118535         1    ;  uncertainty k = 2.522995
        19        17        14        36     9      180.000000        2.390436         2    ;  uncertainty k = 0.667942
        19        17        14        36     9        0.000000        0.967683         3    ;  uncertainty k = 0.295837
        19        17        14        36     9      180.000000        0.482077         4    ;  uncertainty k = 0.134499
        19        20        21        42     9        0.000000       -0.041715         1    ;  uncertainty k = 0.086802
        19        20        21        42     9      180.000000       -2.055705         2    ;  uncertainty k = 0.151824
        19        20        21        42     9        0.000000        1.070157         3    ;  uncertainty k = 0.088658
        19        20        21        42     9      180.000000       -0.169755         4    ;  uncertainty k = 0.104081
        19        20        21        43     9        0.000000       -0.041715         1    ;  uncertainty k = 0.086802
        19        20        21        43     9      180.000000       -2.055705         2    ;  uncertainty k = 0.151824
        19        20        21        43     9        0.000000        1.070157         3    ;  uncertainty k = 0.088658
        19        20        21        43     9      180.000000       -0.169755         4    ;  uncertainty k = 0.104081
        19        20        21        44     9        0.000000       -0.041715         1    ;  uncertainty k = 0.086802
        19        20        21        44     9      180.000000       -2.055705         2    ;  uncertainty k = 0.151824
        19        20        21        44     9        0.000000        1.070157         3    ;  uncertainty k = 0.088658
        19        20        21        44     9      180.000000       -0.169755         4    ;  uncertainty k = 0.104081
        19        20        22        23     9        0.000000        0.499396         1    ;  uncertainty k = 0.966558
        19        20        22        23     9      180.000000        6.109033         2    ;  uncertainty k = 0.130985
        19        20        22        23     9        0.000000        1.318031         3    ;  uncertainty k = 0.293046
        19        20        22        23     9      180.000000        0.376941         4    ;  uncertainty k = 0.128880
        19        20        22        24     9        0.000000        1.298771         1    ;  uncertainty k = 0.762727
        19        20        22        24     9      180.000000        3.730132         2    ;  uncertainty k = 0.411538
        19        20        22        24     9        0.000000        0.531949         3    ;  uncertainty k = 0.139911
        19        20        22        24     9      180.000000        0.104606         4    ;  uncertainty k = 0.060875
        20        19        16        39     9        0.000000       -0.171023         1    ;  uncertainty k = 0.466144
        20        19        16        39     9      180.000000       -0.753502         2    ;  uncertainty k = 0.394766
        20        19        16        39     9        0.000000        0.990987         3    ;  uncertainty k = 0.142757
        20        19        16        39     9      180.000000        0.391063         4    ;  uncertainty k = 0.162132
        20        19        16        40     9        0.000000       -0.171023         1    ;  uncertainty k = 0.466144
        20        19        16        40     9      180.000000       -0.753502         2    ;  uncertainty k = 0.394766
        20        19        16        40     9        0.000000        0.990987         3    ;  uncertainty k = 0.142757
        20        19        16        40     9      180.000000        0.391063         4    ;  uncertainty k = 0.162132
        20        22        24        25     9        0.000000        8.299487         1    ;  uncertainty k = 0.269860
        20        22        24        25     9      180.000000        6.005714         2    ;  uncertainty k = 0.421476
        20        22        24        25     9        0.000000        1.159671         3    ;  uncertainty k = 0.227098
        20        22        24        25     9      180.000000        0.103306         4    ;  uncertainty k = 0.158474
        20        22        24        29     9        0.000000        8.299487         1    ;  uncertainty k = 0.269860
        20        22        24        29     9      180.000000        6.005714         2    ;  uncertainty k = 0.421476
        20        22        24        29     9        0.000000        1.159671         3    ;  uncertainty k = 0.227098
        20        22        24        29     9      180.000000        0.103306         4    ;  uncertainty k = 0.158474
        21        20        22        23     9        0.000000       -0.918609         1    ;  uncertainty k = 0.498844
        21        20        22        23     9      180.000000        5.582712         2    ;  uncertainty k = 0.540220
        21        20        22        23     9        0.000000        1.479882         3    ;  uncertainty k = 0.175097
        21        20        22        23     9      180.000000        0.507220         4    ;  uncertainty k = 0.051889
        21        20        22        24     9        0.000000       -2.003223         1    ;  uncertainty k = 0.395192
        21        20        22        24     9      180.000000        3.012685         2    ;  uncertainty k = 0.516173
        21        20        22        24     9        0.000000        0.475109         3    ;  uncertainty k = 0.119059
        21        20        22        24     9      180.000000        0.075564         4    ;  uncertainty k = 0.082587
        22        20        21        42     9        0.000000        1.150537         1    ;  uncertainty k = 0.677576
        22        20        21        42     9      180.000000       -0.924040         2    ;  uncertainty k = 0.241314
        22        20        21        42     9        0.000000        0.735120         3    ;  uncertainty k = 0.069732
        22        20        21        42     9      180.000000       -0.019774         4    ;  uncertainty k = 0.058125
        22        20        21        43     9        0.000000        1.150537         1    ;  uncertainty k = 0.677576
        22        20        21        43     9      180.000000       -0.924040         2    ;  uncertainty k = 0.241314
        22        20        21        43     9        0.000000        0.735120         3    ;  uncertainty k = 0.069732
        22        20        21        43     9      180.000000       -0.019774         4    ;  uncertainty k = 0.058125
        22        20        21        44     9        0.000000        1.150537         1    ;  uncertainty k = 0.677576
        22        20        21        44     9      180.000000       -0.924040         2    ;  uncertainty k = 0.241314
        22        20        21        44     9        0.000000        0.735120         3    ;  uncertainty k = 0.069732
        22        20        21        44     9      180.000000       -0.019774         4    ;  uncertainty k = 0.058125
        22        24        25        26     9        0.000000        0.224961         1    ;  uncertainty k = 0.687788
        22        24        25        26     9      180.000000        0.114129         2    ;  uncertainty k = 0.146198
        22        24        25        26     9        0.000000       -0.233453         3    ;  uncertainty k = 0.126504
        22        24        25        26     9      180.000000        0.299264         4    ;  uncertainty k = 0.131991
        22        24        25        45     9        0.000000        1.489642         1    ;  uncertainty k = 0.595508
        22        24        25        45     9      180.000000       -0.191425         2    ;  uncertainty k = 0.136241
        22        24        25        45     9        0.000000        0.111797         3    ;  uncertainty k = 0.096189
        22        24        25        45     9      180.000000        0.140722         4    ;  uncertainty k = 0.049493
        22        24        25        46     9        0.000000        1.489642         1    ;  uncertainty k = 0.595508
        22        24        25        46     9      180.000000       -0.191425         2    ;  uncertainty k = 0.136241
        22        24        25        46     9        0.000000        0.111797         3    ;  uncertainty k = 0.096189
        22        24        25        46     9      180.000000        0.140722         4    ;  uncertainty k = 0.049493
        22        24        29        28     9        0.000000        0.224961         1    ;  uncertainty k = 0.687788
        22        24        29        28     9      180.000000        0.114129         2    ;  uncertainty k = 0.146198
        22        24        29        28     9        0.000000       -0.233453         3    ;  uncertainty k = 0.126504
        22        24        29        28     9      180.000000        0.299264         4    ;  uncertainty k = 0.131991
        22        24        29        51     9        0.000000        1.489642         1    ;  uncertainty k = 0.595508
        22        24        29        51     9      180.000000       -0.191425         2    ;  uncertainty k = 0.136241
        22        24        29        51     9        0.000000        0.111797         3    ;  uncertainty k = 0.096189
        22        24        29        51     9      180.000000        0.140722         4    ;  uncertainty k = 0.049493
        22        24        29        52     9        0.000000        1.489642         1    ;  uncertainty k = 0.595508
        22        24        29        52     9      180.000000       -0.191425         2    ;  uncertainty k = 0.136241
        22        24        29        52     9        0.000000        0.111797         3    ;  uncertainty k = 0.096189
        22        24        29        52     9      180.000000        0.140722         4    ;  uncertainty k = 0.049493
        23        22        20        41     9        0.000000       -1.193527         1    ;  uncertainty k = 0.618000
        23        22        20        41     9      180.000000        2.843837         2    ;  uncertainty k = 0.359543
        23        22        20        41     9        0.000000        0.832219         3    ;  uncertainty k = 0.209632
        23        22        20        41     9      180.000000        0.162966         4    ;  uncertainty k = 0.077189
        23        22        24        25     9        0.000000        6.603517         1    ;  uncertainty k = 0.334857
        23        22        24        25     9      180.000000       20.577585         2    ;  uncertainty k = 0.086866
        23        22        24        25     9        0.000000        0.266672         3    ;  uncertainty k = 0.142095
        23        22        24        25     9      180.000000       -1.495398         4    ;  uncertainty k = 0.102425
        23        22        24        29     9        0.000000        6.603517         1    ;  uncertainty k = 0.334857
        23        22        24        29     9      180.000000       20.577585         2    ;  uncertainty k = 0.086866
        23        22        24        29     9        0.000000        0.266672         3    ;  uncertainty k = 0.142095
        23        22        24        29     9      180.000000       -1.495398         4    ;  uncertainty k = 0.102425
        24        22        20        41     9        0.000000       -0.546567         1    ;  uncertainty k = 0.607387
        24        22        20        41     9      180.000000        2.439825         2    ;  uncertainty k = 0.362200
        24        22        20        41     9        0.000000        0.108278         3    ;  uncertainty k = 0.047116
        24        22        20        41     9      180.000000        0.170383         4    ;  uncertainty k = 0.050292
        24        25        26        27     9        0.000000        5.353992         1    ;  uncertainty k = 0.675529
        24        25        26        27     9      180.000000       -8.857338         2    ;  uncertainty k = 0.692100
        24        25        26        27     9        0.000000        3.059860         3    ;  uncertainty k = 0.495205
        24        25        26        27     9      180.000000       -0.099186         4    ;  uncertainty k = 0.227903
        24        25        26        47     9        0.000000        4.810866         1    ;  uncertainty k = 0.569234
        24        25        26        47     9      180.000000       -4.025620         2    ;  uncertainty k = 0.699778
        24        25        26        47     9        0.000000        0.136668         3    ;  uncertainty k = 0.307514
        24        25        26        47     9      180.000000        0.448548         4    ;  uncertainty k = 0.208534
        24        25        26        48     9        0.000000        4.810866         1    ;  uncertainty k = 0.569234
        24        25        26        48     9      180.000000       -4.025620         2    ;  uncertainty k = 0.699778
        24        25        26        48     9        0.000000        0.136668         3    ;  uncertainty k = 0.307514
        24        25        26        48     9      180.000000        0.448548         4    ;  uncertainty k = 0.208534
        24        29        28        27     9        0.000000        5.353992         1    ;  uncertainty k = 0.675529
        24        29        28        27     9      180.000000       -8.857338         2    ;  uncertainty k = 0.692100
        24        29        28        27     9        0.000000        3.059860         3    ;  uncertainty k = 0.495205
        24        29        28        27     9      180.000000       -0.099186         4    ;  uncertainty k = 0.227903
        24        29        28        49     9        0.000000        4.810866         1    ;  uncertainty k = 0.569234
        24        29        28        49     9      180.000000       -4.025620         2    ;  uncertainty k = 0.699778
        24        29        28        49     9        0.000000        0.136668         3    ;  uncertainty k = 0.307514
        24        29        28        49     9      180.000000        0.448548         4    ;  uncertainty k = 0.208534
        24        29        28        50     9        0.000000        4.810866         1    ;  uncertainty k = 0.569234
        24        29        28        50     9      180.000000       -4.025620         2    ;  uncertainty k = 0.699778
        24        29        28        50     9        0.000000        0.136668         3    ;  uncertainty k = 0.307514
        24        29        28        50     9      180.000000        0.448548         4    ;  uncertainty k = 0.208534
        25        24        29        28     9        0.000000       -5.632507         1    ;  uncertainty k = 1.372901
        25        24        29        28     9      180.000000        0.820042         2    ;  uncertainty k = 0.457968
        25        24        29        28     9        0.000000        1.551394         3    ;  uncertainty k = 0.353572
        25        24        29        28     9      180.000000       -0.465199         4    ;  uncertainty k = 0.242804
        25        24        29        51     9        0.000000       -5.630831         1    ;  uncertainty k = 1.116973
        25        24        29        51     9      180.000000        1.096405         2    ;  uncertainty k = 0.268716
        25        24        29        51     9        0.000000        1.209015         3    ;  uncertainty k = 0.133163
        25        24        29        51     9      180.000000       -0.230019         4    ;  uncertainty k = 0.154441
        25        24        29        52     9        0.000000       -5.630831         1    ;  uncertainty k = 1.116973
        25        24        29        52     9      180.000000        1.096405         2    ;  uncertainty k = 0.268716
        25        24        29        52     9        0.000000        1.209015         3    ;  uncertainty k = 0.133163
        25        24        29        52     9      180.000000       -0.230019         4    ;  uncertainty k = 0.154441
        25        26        27        28     9        0.000000       -4.283460         1    ;  uncertainty k = 1.346568
        25        26        27        28     9      180.000000        0.019562         2    ;  uncertainty k = 1.048764
        25        26        27        28     9        0.000000        0.786756         3    ;  uncertainty k = 0.331644
        25        26        27        28     9      180.000000       -0.317148         4    ;  uncertainty k = 0.268089
        26        25        24        29     9        0.000000       -5.632507         1    ;  uncertainty k = 1.372901
        26        25        24        29     9      180.000000        0.820042         2    ;  uncertainty k = 0.457968
        26        25        24        29     9        0.000000        1.551394         3    ;  uncertainty k = 0.353572
        26        25        24        29     9      180.000000       -0.465199         4    ;  uncertainty k = 0.242804
        26        27        28        29     9        0.000000       -4.283460         1    ;  uncertainty k = 1.346568
        26        27        28        29     9      180.000000        0.019562         2    ;  uncertainty k = 1.048764
        26        27        28        29     9        0.000000        0.786756         3    ;  uncertainty k = 0.331644
        26        27        28        29     9      180.000000       -0.317148         4    ;  uncertainty k = 0.268089
        26        27        28        49     9        0.000000       -5.824736         1    ;  uncertainty k = 1.874994
        26        27        28        49     9      180.000000        0.612519         2    ;  uncertainty k = 0.237167
        26        27        28        49     9        0.000000        0.759446         3    ;  uncertainty k = 0.174537
        26        27        28        49     9      180.000000       -0.645283         4    ;  uncertainty k = 0.153493
        26        27        28        50     9        0.000000       -5.824736         1    ;  uncertainty k = 1.874994
        26        27        28        50     9      180.000000        0.612519         2    ;  uncertainty k = 0.237167
        26        27        28        50     9        0.000000        0.759446         3    ;  uncertainty k = 0.174537
        26        27        28        50     9      180.000000       -0.645283         4    ;  uncertainty k = 0.153493
        27        26        25        45     9        0.000000        0.912216         1    ;  uncertainty k = 0.334790
        27        26        25        45     9      180.000000       -0.812586         2    ;  uncertainty k = 0.665020
        27        26        25        45     9        0.000000        1.061498         3    ;  uncertainty k = 0.198448
        27        26        25        45     9      180.000000        0.211215         4    ;  uncertainty k = 0.255400
        27        26        25        46     9        0.000000        0.912216         1    ;  uncertainty k = 0.334790
        27        26        25        46     9      180.000000       -0.812586         2    ;  uncertainty k = 0.665020
        27        26        25        46     9        0.000000        1.061498         3    ;  uncertainty k = 0.198448
        27        26        25        46     9      180.000000        0.211215         4    ;  uncertainty k = 0.255400
        27        28        29        51     9        0.000000        0.912216         1    ;  uncertainty k = 0.334790
        27        28        29        51     9      180.000000       -0.812586         2    ;  uncertainty k = 0.665020
        27        28        29        51     9        0.000000        1.061498         3    ;  uncertainty k = 0.198448
        27        28        29        51     9      180.000000        0.211215         4    ;  uncertainty k = 0.255400
        27        28        29        52     9        0.000000        0.912216         1    ;  uncertainty k = 0.334790
        27        28        29        52     9      180.000000       -0.812586         2    ;  uncertainty k = 0.665020
        27        28        29        52     9        0.000000        1.061498         3    ;  uncertainty k = 0.198448
        27        28        29        52     9      180.000000        0.211215         4    ;  uncertainty k = 0.255400
        28        27        26        47     9        0.000000       -5.824736         1    ;  uncertainty k = 1.874994
        28        27        26        47     9      180.000000        0.612519         2    ;  uncertainty k = 0.237167
        28        27        26        47     9        0.000000        0.759446         3    ;  uncertainty k = 0.174537
        28        27        26        47     9      180.000000       -0.645283         4    ;  uncertainty k = 0.153493
        28        27        26        48     9        0.000000       -5.824736         1    ;  uncertainty k = 1.874994
        28        27        26        48     9      180.000000        0.612519         2    ;  uncertainty k = 0.237167
        28        27        26        48     9        0.000000        0.759446         3    ;  uncertainty k = 0.174537
        28        27        26        48     9      180.000000       -0.645283         4    ;  uncertainty k = 0.153493
        29        24        25        45     9        0.000000       -5.630831         1    ;  uncertainty k = 1.116973
        29        24        25        45     9      180.000000        1.096405         2    ;  uncertainty k = 0.268716
        29        24        25        45     9        0.000000        1.209015         3    ;  uncertainty k = 0.133163
        29        24        25        45     9      180.000000       -0.230019         4    ;  uncertainty k = 0.154441
        29        24        25        46     9        0.000000       -5.630831         1    ;  uncertainty k = 1.116973
        29        24        25        46     9      180.000000        1.096405         2    ;  uncertainty k = 0.268716
        29        24        25        46     9        0.000000        1.209015         3    ;  uncertainty k = 0.133163
        29        24        25        46     9      180.000000       -0.230019         4    ;  uncertainty k = 0.154441
        30         4         3        31     9        0.000000       -0.025699         1    ;  uncertainty k = 0.483125
        30         4         3        31     9      180.000000        5.111873         2    ;  uncertainty k = 0.627416
        30         4         3        31     9        0.000000        0.871323         3    ;  uncertainty k = 0.253643
        30         4         3        31     9      180.000000        0.735513         4    ;  uncertainty k = 0.210180
        30         9         6        32     9        0.000000        0.115076         1    ;  uncertainty k = 0.511020
        30         9         6        32     9      180.000000       12.181913         2    ;  uncertainty k = 0.465815
        30         9         6        32     9        0.000000        1.876327         3    ;  uncertainty k = 0.212568
        30         9         6        32     9      180.000000        1.145725         4    ;  uncertainty k = 0.274176
        33         7         8        34     9        0.000000       -0.056302         1    ;  uncertainty k = 0.110290
        33         7         8        34     9      180.000000        8.208106         2    ;  uncertainty k = 0.422892
        33         7         8        34     9        0.000000       -0.271997         3    ;  uncertainty k = 0.204076
        33         7         8        34     9      180.000000        0.159666         4    ;  uncertainty k = 0.176205
        35        13        14        36     9        0.000000        4.345244         1    ;  uncertainty k = 1.216546
        35        13        14        36     9      180.000000       -2.461433         2    ;  uncertainty k = 0.501513
        35        13        14        36     9        0.000000        0.266842         3    ;  uncertainty k = 0.221333
        35        13        14        36     9      180.000000        0.136959         4    ;  uncertainty k = 0.122236
        36        14        15        37     9        0.000000        0.650807         1    ;  uncertainty k = 0.242049
        36        14        15        37     9      180.000000       -0.603199         2    ;  uncertainty k = 0.142603
        36        14        15        37     9        0.000000        0.567622         3    ;  uncertainty k = 0.099349
        36        14        15        37     9      180.000000        0.058597         4    ;  uncertainty k = 0.065547
        36        14        15        38     9        0.000000        0.650807         1    ;  uncertainty k = 0.242049
        36        14        15        38     9      180.000000       -0.603199         2    ;  uncertainty k = 0.142603
        36        14        15        38     9        0.000000        0.567622         3    ;  uncertainty k = 0.099349
        36        14        15        38     9      180.000000        0.058597         4    ;  uncertainty k = 0.065547
        37        15        16        39     9        0.000000        0.823414         1    ;  uncertainty k = 0.215557
        37        15        16        39     9      180.000000       -0.170976         2    ;  uncertainty k = 0.266678
        37        15        16        39     9        0.000000        0.469348         3    ;  uncertainty k = 0.038030
        37        15        16        39     9      180.000000        0.043270         4    ;  uncertainty k = 0.022809
        37        15        16        40     9        0.000000        0.823414         1    ;  uncertainty k = 0.215557
        37        15        16        40     9      180.000000       -0.170976         2    ;  uncertainty k = 0.266678
        37        15        16        40     9        0.000000        0.469348         3    ;  uncertainty k = 0.038030
        37        15        16        40     9      180.000000        0.043270         4    ;  uncertainty k = 0.022809
        38        15        16        39     9        0.000000        0.823414         1    ;  uncertainty k = 0.215557
        38        15        16        39     9      180.000000       -0.170976         2    ;  uncertainty k = 0.266678
        38        15        16        39     9        0.000000        0.469348         3    ;  uncertainty k = 0.038030
        38        15        16        39     9      180.000000        0.043270         4    ;  uncertainty k = 0.022809
        38        15        16        40     9        0.000000        0.823414         1    ;  uncertainty k = 0.215557
        38        15        16        40     9      180.000000       -0.170976         2    ;  uncertainty k = 0.266678
        38        15        16        40     9        0.000000        0.469348         3    ;  uncertainty k = 0.038030
        38        15        16        40     9      180.000000        0.043270         4    ;  uncertainty k = 0.022809
        41        20        21        42     9        0.000000        0.143668         1    ;  uncertainty k = 0.287689
        41        20        21        42     9      180.000000       -0.308389         2    ;  uncertainty k = 0.120561
        41        20        21        42     9        0.000000        0.423570         3    ;  uncertainty k = 0.126378
        41        20        21        42     9      180.000000       -0.021121         4    ;  uncertainty k = 0.092887
        41        20        21        43     9        0.000000        0.143668         1    ;  uncertainty k = 0.287689
        41        20        21        43     9      180.000000       -0.308389         2    ;  uncertainty k = 0.120561
        41        20        21        43     9        0.000000        0.423570         3    ;  uncertainty k = 0.126378
        41        20        21        43     9      180.000000       -0.021121         4    ;  uncertainty k = 0.092887
        41        20        21        44     9        0.000000        0.143668         1    ;  uncertainty k = 0.287689
        41        20        21        44     9      180.000000       -0.308389         2    ;  uncertainty k = 0.120561
        41        20        21        44     9        0.000000        0.423570         3    ;  uncertainty k = 0.126378
        41        20        21        44     9      180.000000       -0.021121         4    ;  uncertainty k = 0.092887
        45        25        26        47     9        0.000000       -2.278074         1    ;  uncertainty k = 1.043178
        45        25        26        47     9      180.000000        1.532748         2    ;  uncertainty k = 0.718723
        45        25        26        47     9        0.000000       -0.092826         3    ;  uncertainty k = 0.085920
        45        25        26        47     9      180.000000       -0.789690         4    ;  uncertainty k = 0.177408
        45        25        26        48     9        0.000000       -2.278074         1    ;  uncertainty k = 1.043178
        45        25        26        48     9      180.000000        1.532748         2    ;  uncertainty k = 0.718723
        45        25        26        48     9        0.000000       -0.092826         3    ;  uncertainty k = 0.085920
        45        25        26        48     9      180.000000       -0.789690         4    ;  uncertainty k = 0.177408
        46        25        26        47     9        0.000000       -2.278074         1    ;  uncertainty k = 1.043178
        46        25        26        47     9      180.000000        1.532748         2    ;  uncertainty k = 0.718723
        46        25        26        47     9        0.000000       -0.092826         3    ;  uncertainty k = 0.085920
        46        25        26        47     9      180.000000       -0.789690         4    ;  uncertainty k = 0.177408
        46        25        26        48     9        0.000000       -2.278074         1    ;  uncertainty k = 1.043178
        46        25        26        48     9      180.000000        1.532748         2    ;  uncertainty k = 0.718723
        46        25        26        48     9        0.000000       -0.092826         3    ;  uncertainty k = 0.085920
        46        25        26        48     9      180.000000       -0.789690         4    ;  uncertainty k = 0.177408
        49        28        29        51     9        0.000000       -2.278074         1    ;  uncertainty k = 1.043178
        49        28        29        51     9      180.000000        1.532748         2    ;  uncertainty k = 0.718723
        49        28        29        51     9        0.000000       -0.092826         3    ;  uncertainty k = 0.085920
        49        28        29        51     9      180.000000       -0.789690         4    ;  uncertainty k = 0.177408
        49        28        29        52     9        0.000000       -2.278074         1    ;  uncertainty k = 1.043178
        49        28        29        52     9      180.000000        1.532748         2    ;  uncertainty k = 0.718723
        49        28        29        52     9        0.000000       -0.092826         3    ;  uncertainty k = 0.085920
        49        28        29        52     9      180.000000       -0.789690         4    ;  uncertainty k = 0.177408
        50        28        29        51     9        0.000000       -2.278074         1    ;  uncertainty k = 1.043178
        50        28        29        51     9      180.000000        1.532748         2    ;  uncertainty k = 0.718723
        50        28        29        51     9        0.000000       -0.092826         3    ;  uncertainty k = 0.085920
        50        28        29        51     9      180.000000       -0.789690         4    ;  uncertainty k = 0.177408
        50        28        29        52     9        0.000000       -2.278074         1    ;  uncertainty k = 1.043178
        50        28        29        52     9      180.000000        1.532748         2    ;  uncertainty k = 0.718723
        50        28        29        52     9        0.000000       -0.092826         3    ;  uncertainty k = 0.085920
        50        28        29        52     9      180.000000       -0.789690         4    ;  uncertainty k = 0.177408

[ dihedrals ] ; impropers
;       ai        aj        ak        al funct           phase               k        pn
         2         1         3         8     4      180.000000       12.969766         2    ;  uncertainty k = 0.047627
         2         3         8         1     4      180.000000       12.969766         2    ;  uncertainty k = 0.047627
         2         8         1         3     4      180.000000       12.969766         2    ;  uncertainty k = 0.047627
         3         2         4        31     4      180.000000        3.924149         2    ;  uncertainty k = 0.128896
         3         4        31         2     4      180.000000        3.924149         2    ;  uncertainty k = 0.128896
         3        31         2         4     4      180.000000        3.924149         2    ;  uncertainty k = 0.128896
         4         3         5        30     4      180.000000        1.229243         2    ;  uncertainty k = 0.924348
         4         5        30         3     4      180.000000        1.229243         2    ;  uncertainty k = 0.924348
         4        30         3         5     4      180.000000        1.229243         2    ;  uncertainty k = 0.924348
         5         4         6         7     4      180.000000        1.402116         2    ;  uncertainty k = 0.820057
         5         6         7         4     4      180.000000        1.402116         2    ;  uncertainty k = 0.820057
         5         7         4         6     4      180.000000        1.402116         2    ;  uncertainty k = 0.820057
         6         5         9        32     4      180.000000        3.307268         2    ;  uncertainty k = 0.283840
         6         9        32         5     4      180.000000        3.307268         2    ;  uncertainty k = 0.283840
         6        32         5         9     4      180.000000        3.307268         2    ;  uncertainty k = 0.283840
         7         5         8        33     4      180.000000        5.006049         2    ;  uncertainty k = 0.188455
         7         8        33         5     4      180.000000        5.006049         2    ;  uncertainty k = 0.188455
         7        33         5         8     4      180.000000        5.006049         2    ;  uncertainty k = 0.188455
         8         2         7        34     4      180.000000        3.364367         2    ;  uncertainty k = 0.083626
         8         7        34         2     4      180.000000        3.364367         2    ;  uncertainty k = 0.083626
         8        34         2         7     4      180.000000        3.364367         2    ;  uncertainty k = 0.083626
         9         6        10        30     4      180.000000        1.008632         2    ;  uncertainty k = 1.114332
         9        10        30         6     4      180.000000        1.008632         2    ;  uncertainty k = 1.114332
         9        30         6        10     4      180.000000        1.008632         2    ;  uncertainty k = 1.114332
        17        14        18        19     4      180.000000       48.908347         2    ;  uncertainty k = 0.034977
        17        18        19        14     4      180.000000       48.908347         2    ;  uncertainty k = 0.034977
        17        19        14        18     4      180.000000       48.908347         2    ;  uncertainty k = 0.034977
        22        20        23        24     4      180.000000       50.108480         2    ;  uncertainty k = 0.051863
        22        23        24        20     4      180.000000       50.108480         2    ;  uncertainty k = 0.051863
        22        24        20        23     4      180.000000       50.108480         2    ;  uncertainty k = 0.051863

[ pairs ]
;       ai        aj funct
         1         4     1
         1         7     1
         1        31     1
         1        34     1
         2         5     1
         2        30     1
         2        33     1
         3         6     1
         3         7     1
         3         9     1
         3        34     1
         4         8     1
         4        10     1
         4        32     1
         4        33     1
         5        10     1
         5        31     1
         5        34     1
         6         8     1
         6        11     1
         6        12     1
         6        13     1
         6        33     1
         7         9     1
         7        30     1
         7        32     1
         8        31     1
         9        14     1
         9        35     1
        10        15     1
        10        17     1
        10        32     1
        10        36     1
        11        14     1
        11        30     1
        11        35     1
        12        14     1
        12        30     1
        12        35     1
        13        16     1
        13        18     1
        13        19     1
        13        30     1
        13        37     1
        13        38     1
        14        20     1
        14        39     1
        14        40     1
        15        18     1
        15        20     1
        15        35     1
        16        18     1
        16        21     1
        16        22     1
        16        36     1
        16        41     1
        17        21     1
        17        22     1
        17        35     1
        17        37     1
        17        38     1
        17        39     1
        17        40     1
        17        41     1
        18        20     1
        18        36     1
        19        23     1
        19        24     1
        19        36     1
        19        37     1
        19        38     1
        19        42     1
        19        43     1
        19        44     1
        20        25     1
        20        29     1
        20        39     1
        20        40     1
        21        23     1
        21        24     1
        22        26     1
        22        28     1
        22        42     1
        22        43     1
        22        44     1
        22        45     1
        22        46     1
        22        51     1
        22        52     1
        23        25     1
        23        29     1
        23        41     1
        24        27     1
        24        41     1
        24        47     1
        24        48     1
        24        49     1
        24        50     1
        25        28     1
        25        51     1
        25        52     1
        26        29     1
        26        49     1
        26        50     1
        27        45     1
        27        46     1
        27        51     1
        27        52     1
        28        47     1
        28        48     1
        29        45     1
        29        46     1
        30        31     1
        30        32     1
        33        34     1
        35        36     1
        36        37     1
        36        38     1
        37        39     1
        37        40     1
        38        39     1
        38        40     1
        41        42     1
        41        43     1
        41        44     1
        45        47     1
        45        48     1
        46        47     1
        46        48     1
        49        51     1
        49        52     1
        50        51     1
        50        52     1
