; ITP file created by ByteFF-joint-25, 2025-07-14 11:37:23.902426

[ atomtypes ]
;name           bonded.type        at.num        mass        charge   ptype           sigma         epsilon
 cl0bf                                 17      0.0000       0.00000       A     3.46618e-01     1.10426e+00    ;  uncertainty sigma = 0.000019, epsilon = 0.000716
 c1bf                                   6      0.0000       0.00000       A     3.31525e-01     4.13158e-01    ;  uncertainty sigma = 0.000007, epsilon = 0.000532
 c2bf                                   6      0.0000       0.00000       A     3.31535e-01     4.13341e-01    ;  uncertainty sigma = 0.000005, epsilon = 0.000580
 c3bf                                   6      0.0000       0.00000       A     3.31505e-01     4.13083e-01    ;  uncertainty sigma = 0.000007, epsilon = 0.000747
 c4bf                                   6      0.0000       0.00000       A     3.31550e-01     4.12771e-01    ;  uncertainty sigma = 0.000015, epsilon = 0.000720
 n5bf                                   7      0.0000       0.00000       A     3.38445e-01     3.93432e-01    ;  uncertainty sigma = 0.000023, epsilon = 0.001133
 c6bf                                   6      0.0000       0.00000       A     3.31530e-01     4.13298e-01    ;  uncertainty sigma = 0.000004, epsilon = 0.000759
 c7bf                                   6      0.0000       0.00000       A     3.31523e-01     4.13476e-01    ;  uncertainty sigma = 0.000006, epsilon = 0.000563
 c8bf                                   6      0.0000       0.00000       A     3.31474e-01     4.15060e-01    ;  uncertainty sigma = 0.000033, epsilon = 0.002395
 s9bf                                  16      0.0000       0.00000       A     4.05843e-01     2.56906e-01    ;  uncertainty sigma = 0.000028, epsilon = 0.003280
 o10bf                                  8      0.0000       0.00000       A     3.04907e-01     6.11641e-01    ;  uncertainty sigma = 0.000023, epsilon = 0.001170
 o11bf                                  8      0.0000       0.00000       A     3.04907e-01     6.11641e-01    ;  uncertainty sigma = 0.000023, epsilon = 0.001170
 n12bf                                  7      0.0000       0.00000       A     3.50540e-01     2.19620e-01    ;  uncertainty sigma = 0.000115, epsilon = 0.004514
 c13bf                                  6      0.0000       0.00000       A     3.39780e-01     4.51071e-01    ;  uncertainty sigma = 0.000013, epsilon = 0.001083
 c14bf                                  6      0.0000       0.00000       A     3.39783e-01     4.50616e-01    ;  uncertainty sigma = 0.000012, epsilon = 0.000870
 c15bf                                  6      0.0000       0.00000       A     3.39778e-01     4.51121e-01    ;  uncertainty sigma = 0.000011, epsilon = 0.000952
 c16bf                                  6      0.0000       0.00000       A     3.31503e-01     4.14103e-01    ;  uncertainty sigma = 0.000019, epsilon = 0.001327
 o17bf                                  8      0.0000       0.00000       A     3.04856e-01     6.12000e-01    ;  uncertainty sigma = 0.000014, epsilon = 0.001679
 n18bf                                  7      0.0000       0.00000       A     3.18104e-01     6.84089e-01    ;  uncertainty sigma = 0.000026, epsilon = 0.002216
 c19bf                                  6      0.0000       0.00000       A     3.39765e-01     4.50085e-01    ;  uncertainty sigma = 0.000013, epsilon = 0.000893
 c20bf                                  6      0.0000       0.00000       A     3.39757e-01     4.50850e-01    ;  uncertainty sigma = 0.000009, epsilon = 0.000447
 c21bf                                  6      0.0000       0.00000       A     3.31517e-01     4.12537e-01    ;  uncertainty sigma = 0.000018, epsilon = 0.001350
 o22bf                                  8      0.0000       0.00000       A     3.04822e-01     6.12836e-01    ;  uncertainty sigma = 0.000014, epsilon = 0.000674
 n23bf                                  7      0.0000       0.00000       A     3.18074e-01     6.83799e-01    ;  uncertainty sigma = 0.000019, epsilon = 0.001496
 c24bf                                  6      0.0000       0.00000       A     3.39785e-01     4.50976e-01    ;  uncertainty sigma = 0.000006, epsilon = 0.000726
 c25bf                                  6      0.0000       0.00000       A     3.39786e-01     4.50778e-01    ;  uncertainty sigma = 0.000006, epsilon = 0.000813
 o26bf                                  8      0.0000       0.00000       A     3.15603e-01     3.03473e-01    ;  uncertainty sigma = 0.000014, epsilon = 0.001064
 c27bf                                  6      0.0000       0.00000       A     3.39786e-01     4.50778e-01    ;  uncertainty sigma = 0.000006, epsilon = 0.000813
 c28bf                                  6      0.0000       0.00000       A     3.39785e-01     4.50976e-01    ;  uncertainty sigma = 0.000006, epsilon = 0.000726
 s29bf                                 16      0.0000       0.00000       A     3.53324e-01     1.18111e+00    ;  uncertainty sigma = 0.000010, epsilon = 0.003294
 h30bf                                  1      0.0000       0.00000       A     2.62585e-01     6.70568e-02    ;  uncertainty sigma = 0.000019, epsilon = 0.000570
 h31bf                                  1      0.0000       0.00000       A     2.62562e-01     6.71278e-02    ;  uncertainty sigma = 0.000007, epsilon = 0.000712
 h32bf                                  1      0.0000       0.00000       A     2.62553e-01     6.70582e-02    ;  uncertainty sigma = 0.000010, epsilon = 0.000690
 h33bf                                  1      0.0000       0.00000       A     1.10626e-01     4.11752e-02    ;  uncertainty sigma = 0.000088, epsilon = 0.002337
 h34bf                                  1      0.0000       0.00000       A     2.42030e-01     8.68574e-02    ;  uncertainty sigma = 0.000019, epsilon = 0.001232
 h35bf                                  1      0.0000       0.00000       A     2.60025e-01     8.63275e-02    ;  uncertainty sigma = 0.000013, epsilon = 0.000679
 h36bf                                  1      0.0000       0.00000       A     2.60025e-01     8.63275e-02    ;  uncertainty sigma = 0.000013, epsilon = 0.000679
 h37bf                                  1      0.0000       0.00000       A     2.42200e-01     8.64335e-02    ;  uncertainty sigma = 0.000011, epsilon = 0.000932
 h38bf                                  1      0.0000       0.00000       A     2.42200e-01     8.64335e-02    ;  uncertainty sigma = 0.000011, epsilon = 0.000932
 h39bf                                  1      0.0000       0.00000       A     2.42203e-01     8.69613e-02    ;  uncertainty sigma = 0.000061, epsilon = 0.001014
 h40bf                                  1      0.0000       0.00000       A     2.60028e-01     8.67689e-02    ;  uncertainty sigma = 0.000014, epsilon = 0.000406
 h41bf                                  1      0.0000       0.00000       A     2.60028e-01     8.67689e-02    ;  uncertainty sigma = 0.000014, epsilon = 0.000406
 h42bf                                  1      0.0000       0.00000       A     2.60028e-01     8.67689e-02    ;  uncertainty sigma = 0.000014, epsilon = 0.000406
 h43bf                                  1      0.0000       0.00000       A     2.42216e-01     8.67300e-02    ;  uncertainty sigma = 0.000014, epsilon = 0.000623
 h44bf                                  1      0.0000       0.00000       A     2.42216e-01     8.67300e-02    ;  uncertainty sigma = 0.000014, epsilon = 0.000623
 h45bf                                  1      0.0000       0.00000       A     2.42211e-01     8.67300e-02    ;  uncertainty sigma = 0.000015, epsilon = 0.000752
 h46bf                                  1      0.0000       0.00000       A     2.42211e-01     8.67300e-02    ;  uncertainty sigma = 0.000015, epsilon = 0.000752
 h47bf                                  1      0.0000       0.00000       A     2.42211e-01     8.67300e-02    ;  uncertainty sigma = 0.000015, epsilon = 0.000752
 h48bf                                  1      0.0000       0.00000       A     2.42211e-01     8.67301e-02    ;  uncertainty sigma = 0.000015, epsilon = 0.000752
 h49bf                                  1      0.0000       0.00000       A     2.42216e-01     8.67299e-02    ;  uncertainty sigma = 0.000014, epsilon = 0.000623
 h50bf                                  1      0.0000       0.00000       A     2.42216e-01     8.67299e-02    ;  uncertainty sigma = 0.000014, epsilon = 0.000623

[ moleculetype ]
;name             nrexcl
 MOL                   3

[ atoms ]
;       nr            type      resi   res      atom      cgnr      charge          mass ; qtot
         1           cl0bf         1   UNL       cl0         1    -0.10933       35.4530 ; qtot   -0.109
         2            c1bf         1   UNL        c1         2     0.03484       12.0110 ; qtot   -0.074
         3            c2bf         1   UNL        c2         3    -0.07758       12.0110 ; qtot   -0.152
         4            c3bf         1   UNL        c3         4    -0.03452       12.0110 ; qtot   -0.187
         5            c4bf         1   UNL        c4         5     0.07240       12.0110 ; qtot   -0.114
         6            n5bf         1   UNL        n5         6    -0.43986       14.0070 ; qtot   -0.554
         7            c6bf         1   UNL        c6         7    -0.04690       12.0110 ; qtot   -0.601
         8            c7bf         1   UNL        c7         8    -0.11436       12.0110 ; qtot   -0.715
         9            c8bf         1   UNL        c8         9     0.23306       12.0110 ; qtot   -0.482
        10            s9bf         1   UNL        s9        10     1.18161       32.0670 ; qtot    0.699
        11           o10bf         1   UNL       o10        11    -0.57440       15.9990 ; qtot    0.125
        12           o11bf         1   UNL       o11        12    -0.57440       15.9990 ; qtot   -0.449
        13           n12bf         1   UNL       n12        13    -0.76916       14.0070 ; qtot   -1.219
        14           c13bf         1   UNL       c13        14     0.13159       12.0110 ; qtot   -1.087
        15           c14bf         1   UNL       c14        15    -0.09664       12.0110 ; qtot   -1.184
        16           c15bf         1   UNL       c15        16     0.09835       12.0110 ; qtot   -1.085
        17           c16bf         1   UNL       c16        17     0.69423       12.0110 ; qtot   -0.391
        18           o17bf         1   UNL       o17        18    -0.62440       15.9990 ; qtot   -1.015
        19           n18bf         1   UNL       n18        19    -0.46819       14.0070 ; qtot   -1.484
        20           c19bf         1   UNL       c19        20     0.05357       12.0110 ; qtot   -1.430
        21           c20bf         1   UNL       c20        21    -0.09682       12.0110 ; qtot   -1.527
        22           c21bf         1   UNL       c21        22     0.65569       12.0110 ; qtot   -0.871
        23           o22bf         1   UNL       o22        23    -0.59852       15.9990 ; qtot   -1.470
        24           n23bf         1   UNL       n23        24    -0.48329       14.0070 ; qtot   -1.953
        25           c24bf         1   UNL       c24        25     0.06631       12.0110 ; qtot   -1.887
        26           c25bf         1   UNL       c25        26     0.11525       12.0110 ; qtot   -1.771
        27           o26bf         1   UNL       o26        27    -0.41112       15.9990 ; qtot   -2.183
        28           c27bf         1   UNL       c27        28     0.11525       12.0110 ; qtot   -2.067
        29           c28bf         1   UNL       c28        29     0.06631       12.0110 ; qtot   -2.001
        30           s29bf         1   UNL       s29        30     0.01858       32.0670 ; qtot   -1.982
        31           h30bf         1   UNL       h30        31     0.15969        1.0080 ; qtot   -1.823
        32           h31bf         1   UNL       h31        32     0.15901        1.0080 ; qtot   -1.664
        33           h32bf         1   UNL       h32        33     0.15335        1.0080 ; qtot   -1.510
        34           h33bf         1   UNL       h33        34     0.44054        1.0080 ; qtot   -1.070
        35           h34bf         1   UNL       h34        35     0.09280        1.0080 ; qtot   -0.977
        36           h35bf         1   UNL       h35        36     0.07326        1.0080 ; qtot   -0.904
        37           h36bf         1   UNL       h36        37     0.07326        1.0080 ; qtot   -0.831
        38           h37bf         1   UNL       h37        38     0.05597        1.0080 ; qtot   -0.775
        39           h38bf         1   UNL       h38        39     0.05597        1.0080 ; qtot   -0.719
        40           h39bf         1   UNL       h39        40     0.08023        1.0080 ; qtot   -0.638
        41           h40bf         1   UNL       h40        41     0.05231        1.0080 ; qtot   -0.586
        42           h41bf         1   UNL       h41        42     0.05231        1.0080 ; qtot   -0.534
        43           h42bf         1   UNL       h42        43     0.05231        1.0080 ; qtot   -0.481
        44           h43bf         1   UNL       h43        44     0.06503        1.0080 ; qtot   -0.416
        45           h44bf         1   UNL       h44        45     0.06503        1.0080 ; qtot   -0.351
        46           h45bf         1   UNL       h45        46     0.05533        1.0080 ; qtot   -0.296
        47           h46bf         1   UNL       h46        47     0.05533        1.0080 ; qtot   -0.241
        48           h47bf         1   UNL       h47        48     0.05533        1.0080 ; qtot   -0.185
        49           h48bf         1   UNL       h48        49     0.05533        1.0080 ; qtot   -0.130
        50           h49bf         1   UNL       h49        50     0.06503        1.0080 ; qtot   -0.065
        51           h50bf         1   UNL       h50        51     0.06503        1.0080 ; qtot    0.000

[ bonds ]
;       ai        aj funct               r               k
         1         2     1        0.175679   196861.490234    ;  uncertainty r = 0.000050, k = 3.086083
         2         3     1        0.139157   360605.639844    ;  uncertainty r = 0.000073, k = 4.001068
         2         8     1        0.140695   345545.155127    ;  uncertainty r = 0.000050, k = 6.228519
         3         4     1        0.139584   361566.090527    ;  uncertainty r = 0.000031, k = 5.547605
         3        31     1        0.108719   336079.059424    ;  uncertainty r = 0.000018, k = 1.014452
         4         5     1        0.141769   346920.456152    ;  uncertainty r = 0.000067, k = 3.485857
         4        30     1        0.175479   199141.851953    ;  uncertainty r = 0.000094, k = 7.067623
         5         6     1        0.139116   322042.510645    ;  uncertainty r = 0.000097, k = 13.542801
         5         7     1        0.140369   370112.518311    ;  uncertainty r = 0.000043, k = 1.552451
         6         9     1        0.128467   450149.011230    ;  uncertainty r = 0.000112, k = 16.408291
         7         8     1        0.138768   381924.682715    ;  uncertainty r = 0.000057, k = 5.168493
         7        32     1        0.108709   335885.564746    ;  uncertainty r = 0.000006, k = 1.558075
         8        33     1        0.108676   335112.811816    ;  uncertainty r = 0.000022, k = 0.815593
         9        10     1        0.178450   183160.486304    ;  uncertainty r = 0.000306, k = 15.920126
         9        30     1        0.175922   157574.779810    ;  uncertainty r = 0.000220, k = 18.836562
        10        11     1        0.146771   495936.792969    ;  uncertainty r = 0.000121, k = 11.567795
        10        12     1        0.146771   495936.792969    ;  uncertainty r = 0.000121, k = 11.567795
        10        13     1        0.169910   131476.952124    ;  uncertainty r = 0.000591, k = 58.371560
        13        14     1        0.145916   331307.833594    ;  uncertainty r = 0.000271, k = 28.436270
        13        34     1        0.102528   450479.818945    ;  uncertainty r = 0.000125, k = 6.260848
        14        15     1        0.153635   217342.200879    ;  uncertainty r = 0.000063, k = 11.376059
        14        17     1        0.152894   205360.035938    ;  uncertainty r = 0.000208, k = 16.088695
        14        35     1        0.109635   310792.545703    ;  uncertainty r = 0.000044, k = 2.293278
        15        16     1        0.154051   219214.019922    ;  uncertainty r = 0.000061, k = 4.273335
        15        36     1        0.109299   310844.386035    ;  uncertainty r = 0.000017, k = 1.748840
        15        37     1        0.109299   310844.386035    ;  uncertainty r = 0.000017, k = 1.748840
        16        19     1        0.146768   246650.400732    ;  uncertainty r = 0.000221, k = 12.930896
        16        38     1        0.109541   305996.165820    ;  uncertainty r = 0.000033, k = 2.444509
        16        39     1        0.109541   305996.165820    ;  uncertainty r = 0.000033, k = 2.444509
        17        18     1        0.123417   694917.965430    ;  uncertainty r = 0.000090, k = 12.430423
        17        19     1        0.136349   286304.756152    ;  uncertainty r = 0.000078, k = 23.105244
        19        20     1        0.145555   281517.671777    ;  uncertainty r = 0.000222, k = 19.681971
        20        21     1        0.153460   212444.030078    ;  uncertainty r = 0.000030, k = 6.319440
        20        22     1        0.154403   218642.780322    ;  uncertainty r = 0.000018, k = 16.462715
        20        40     1        0.109460   310823.190234    ;  uncertainty r = 0.000049, k = 2.513796
        21        41     1        0.109409   312861.000488    ;  uncertainty r = 0.000017, k = 1.141259
        21        42     1        0.109409   312861.000488    ;  uncertainty r = 0.000017, k = 1.141259
        21        43     1        0.109409   312861.000488    ;  uncertainty r = 0.000017, k = 1.141259
        22        23     1        0.123332   703381.882813    ;  uncertainty r = 0.000097, k = 9.602494
        22        24     1        0.136706   308486.621338    ;  uncertainty r = 0.000033, k = 12.395068
        24        25     1        0.146392   254501.759473    ;  uncertainty r = 0.000091, k = 8.526718
        24        29     1        0.146392   254501.759473    ;  uncertainty r = 0.000091, k = 8.526718
        25        26     1        0.152681   207263.227319    ;  uncertainty r = 0.000025, k = 4.718310
        25        44     1        0.109477   308256.276611    ;  uncertainty r = 0.000021, k = 2.245969
        25        45     1        0.109477   308256.276611    ;  uncertainty r = 0.000021, k = 2.245969
        26        27     1        0.142361   276005.563330    ;  uncertainty r = 0.000033, k = 2.914980
        26        46     1        0.109826   309629.075000    ;  uncertainty r = 0.000019, k = 1.877640
        26        47     1        0.109826   309629.075000    ;  uncertainty r = 0.000019, k = 1.877640
        27        28     1        0.142361   276005.563330    ;  uncertainty r = 0.000033, k = 2.914980
        28        29     1        0.152681   207263.227319    ;  uncertainty r = 0.000025, k = 4.718310
        28        48     1        0.109826   309629.075000    ;  uncertainty r = 0.000019, k = 1.877640
        28        49     1        0.109826   309629.075000    ;  uncertainty r = 0.000019, k = 1.877640
        29        50     1        0.109477   308256.251074    ;  uncertainty r = 0.000021, k = 2.245982
        29        51     1        0.109477   308256.276611    ;  uncertainty r = 0.000021, k = 2.245969

[ angles ]
;       ai        aj        ak funct           theta             cth
         1         2         3     1      119.956932      436.380743    ;  uncertainty theta = 0.002251, k = 0.087878
         1         2         8     1      119.783157      456.893521    ;  uncertainty theta = 0.001788, k = 0.052342
         2         3         4     1      115.993935      497.625147    ;  uncertainty theta = 0.002658, k = 0.138377
         2         3        31     1      121.421852      286.590976    ;  uncertainty theta = 0.001627, k = 0.114190
         2         8         7     1      120.576317      516.766998    ;  uncertainty theta = 0.002199, k = 0.122632
         2         8        33     1      120.166405      286.264229    ;  uncertainty theta = 0.001383, k = 0.082215
         3         2         8     1      123.447899      386.521101    ;  uncertainty theta = 0.001731, k = 0.093259
         3         4         5     1      119.403183      373.683181    ;  uncertainty theta = 0.004520, k = 0.104845
         3         4        30     1      128.002411      376.363460    ;  uncertainty theta = 0.006079, k = 0.137778
         4         3        31     1      122.714844      288.946487    ;  uncertainty theta = 0.001446, k = 0.081847
         4         5         6     1      115.288635      681.875551    ;  uncertainty theta = 0.002886, k = 0.152990
         4         5         7     1      117.655273      382.723445    ;  uncertainty theta = 0.004388, k = 0.158411
         4        30         9     1       87.647949     1142.651064    ;  uncertainty theta = 0.005540, k = 0.088317
         5         4        30     1      109.844925      524.042521    ;  uncertainty theta = 0.003776, k = 0.175546
         5         6         9     1      110.463486      636.739859    ;  uncertainty theta = 0.003335, k = 0.216494
         5         7         8     1      118.210220      517.502371    ;  uncertainty theta = 0.002901, k = 0.173716
         5         7        32     1      120.386131      276.584004    ;  uncertainty theta = 0.003447, k = 0.035278
         6         5         7     1      125.894119      446.847223    ;  uncertainty theta = 0.004331, k = 0.065617
         6         9        10     1      114.695541      314.884880    ;  uncertainty theta = 0.010887, k = 0.332351
         6         9        30     1      118.697250      601.846336    ;  uncertainty theta = 0.006233, k = 0.417098
         7         8        33     1      120.621399      283.879861    ;  uncertainty theta = 0.001488, k = 0.064702
         8         7        32     1      121.075745      276.291253    ;  uncertainty theta = 0.003453, k = 0.028732
         9        10        11     1      110.731689      484.767627    ;  uncertainty theta = 0.003514, k = 0.030967
         9        10        12     1      110.731689      484.767627    ;  uncertainty theta = 0.003514, k = 0.030967
         9        10        13     1      101.536919      569.156857    ;  uncertainty theta = 0.005339, k = 0.351728
        10         9        30     1      116.790565      291.819380    ;  uncertainty theta = 0.004685, k = 0.940467
        10        13        14     1      110.021812      421.273244    ;  uncertainty theta = 0.007739, k = 0.171071
        10        13        34     1      111.727844      437.565537    ;  uncertainty theta = 0.005501, k = 0.130743
        11        10        12     1      125.725967      822.894214    ;  uncertainty theta = 0.002088, k = 0.032518
        11        10        13     1      114.353149      830.932977    ;  uncertainty theta = 0.002465, k = 0.123289
        12        10        13     1      114.353149      830.932977    ;  uncertainty theta = 0.002465, k = 0.123289
        13        14        15     1      110.812660      582.121026    ;  uncertainty theta = 0.002627, k = 0.224423
        13        14        17     1      103.313766      508.416363    ;  uncertainty theta = 0.006684, k = 0.113286
        13        14        35     1      105.847244      409.963209    ;  uncertainty theta = 0.006337, k = 0.154225
        14        13        34     1      110.772461      391.212778    ;  uncertainty theta = 0.003423, k = 0.157379
        14        15        16     1      105.076576      704.497344    ;  uncertainty theta = 0.002548, k = 0.165951
        14        15        36     1      108.389992      386.685017    ;  uncertainty theta = 0.000544, k = 0.060332
        14        15        37     1      108.389992      386.685017    ;  uncertainty theta = 0.000544, k = 0.060332
        14        17        18     1      125.979538      461.093131    ;  uncertainty theta = 0.002904, k = 0.149391
        14        17        19     1      111.578903      487.629476    ;  uncertainty theta = 0.004409, k = 0.113615
        15        14        17     1      105.877762      714.174440    ;  uncertainty theta = 0.003460, k = 0.113008
        15        14        35     1      109.340347      381.994233    ;  uncertainty theta = 0.004303, k = 0.170898
        15        16        19     1      104.783669      782.725809    ;  uncertainty theta = 0.002755, k = 0.099545
        15        16        38     1      110.273422      402.520132    ;  uncertainty theta = 0.001363, k = 0.041871
        15        16        39     1      110.273422      402.520132    ;  uncertainty theta = 0.001363, k = 0.041871
        16        15        36     1      109.696510      408.338730    ;  uncertainty theta = 0.001401, k = 0.098939
        16        15        37     1      109.696510      408.338730    ;  uncertainty theta = 0.001401, k = 0.098939
        16        19        17     1      113.800400      558.185412    ;  uncertainty theta = 0.004051, k = 0.196713
        16        19        20     1      116.627670      418.914317    ;  uncertainty theta = 0.004736, k = 0.139254
        17        14        35     1      108.431541      374.305169    ;  uncertainty theta = 0.002218, k = 0.145582
        17        19        20     1      115.859238      394.898134    ;  uncertainty theta = 0.005834, k = 0.223208
        18        17        19     1      126.441208      689.779605    ;  uncertainty theta = 0.003327, k = 0.081511
        19        16        38     1      108.898422      451.460182    ;  uncertainty theta = 0.000848, k = 0.056988
        19        16        39     1      108.898422      451.460182    ;  uncertainty theta = 0.000848, k = 0.056988
        19        20        21     1      110.632401      680.881263    ;  uncertainty theta = 0.005659, k = 0.187610
        19        20        22     1      106.307907      510.576611    ;  uncertainty theta = 0.004206, k = 0.177546
        19        20        40     1      104.193527      439.162245    ;  uncertainty theta = 0.004577, k = 0.070621
        20        21        41     1      107.700577      390.638257    ;  uncertainty theta = 0.001974, k = 0.049172
        20        21        42     1      107.700577      390.638257    ;  uncertainty theta = 0.001974, k = 0.049172
        20        21        43     1      107.700577      390.638257    ;  uncertainty theta = 0.001974, k = 0.049172
        20        22        23     1      123.488663      491.647772    ;  uncertainty theta = 0.006202, k = 0.099047
        20        22        24     1      112.431114      386.828280    ;  uncertainty theta = 0.005821, k = 0.248360
        21        20        22     1      107.996933      498.807419    ;  uncertainty theta = 0.002482, k = 0.128252
        21        20        40     1      108.264465      418.620896    ;  uncertainty theta = 0.003532, k = 0.103854
        22        20        40     1      108.421043      367.404340    ;  uncertainty theta = 0.006220, k = 0.162230
        22        24        25     1      116.829430      363.497960    ;  uncertainty theta = 0.002063, k = 0.124181
        22        24        29     1      116.829430      363.497960    ;  uncertainty theta = 0.002063, k = 0.124181
        23        22        24     1      124.422546      748.757049    ;  uncertainty theta = 0.002982, k = 0.183298
        24        25        26     1      110.182350      714.010875    ;  uncertainty theta = 0.000722, k = 0.109108
        24        25        44     1      108.304482      458.396540    ;  uncertainty theta = 0.000957, k = 0.042005
        24        25        45     1      108.304482      458.396540    ;  uncertainty theta = 0.000957, k = 0.042005
        24        29        28     1      110.182350      714.010875    ;  uncertainty theta = 0.000722, k = 0.109108
        24        29        50     1      108.304482      458.396540    ;  uncertainty theta = 0.000957, k = 0.042005
        24        29        51     1      108.304482      458.396540    ;  uncertainty theta = 0.000957, k = 0.042005
        25        24        29     1      115.684769      415.199370    ;  uncertainty theta = 0.005388, k = 0.132019
        25        26        27     1      111.287369      644.552363    ;  uncertainty theta = 0.002689, k = 0.032587
        25        26        46     1      109.515793      404.665536    ;  uncertainty theta = 0.000894, k = 0.016388
        25        26        47     1      109.515793      404.665536    ;  uncertainty theta = 0.000894, k = 0.016388
        26        25        44     1      109.080734      409.167122    ;  uncertainty theta = 0.000740, k = 0.033495
        26        25        45     1      109.080734      409.167122    ;  uncertainty theta = 0.000740, k = 0.033495
        26        27        28     1      110.179764      541.020197    ;  uncertainty theta = 0.002124, k = 0.077936
        27        26        46     1      107.084984      465.302572    ;  uncertainty theta = 0.000967, k = 0.023146
        27        26        47     1      107.084984      465.302572    ;  uncertainty theta = 0.000967, k = 0.023146
        27        28        29     1      111.287369      644.552363    ;  uncertainty theta = 0.002689, k = 0.032587
        27        28        48     1      107.084984      465.302572    ;  uncertainty theta = 0.000967, k = 0.023146
        27        28        49     1      107.084984      465.302572    ;  uncertainty theta = 0.000967, k = 0.023146
        28        29        50     1      109.080734      409.167122    ;  uncertainty theta = 0.000740, k = 0.033495
        28        29        51     1      109.080734      409.167122    ;  uncertainty theta = 0.000740, k = 0.033495
        29        28        48     1      109.515793      404.665536    ;  uncertainty theta = 0.000894, k = 0.016388
        29        28        49     1      109.515793      404.665536    ;  uncertainty theta = 0.000894, k = 0.016388
        36        15        37     1      106.440086      304.816109    ;  uncertainty theta = 0.003856, k = 0.068106
        38        16        39     1      105.856216      304.101580    ;  uncertainty theta = 0.002097, k = 0.072369
        41        21        42     1      105.685402      315.694087    ;  uncertainty theta = 0.001842, k = 0.014287
        41        21        43     1      105.685402      315.694087    ;  uncertainty theta = 0.001842, k = 0.014287
        42        21        43     1      105.685402      315.694087    ;  uncertainty theta = 0.001842, k = 0.014287
        44        25        45     1      105.962692      319.495222    ;  uncertainty theta = 0.000795, k = 0.039018
        46        26        47     1      107.529320      317.902537    ;  uncertainty theta = 0.001237, k = 0.038568
        48        28        49     1      107.529320      317.902537    ;  uncertainty theta = 0.001237, k = 0.038569
        50        29        51     1      105.962692      319.495222    ;  uncertainty theta = 0.000795, k = 0.039019

[ dihedrals ] ; propers for gromacs 4.5 or higher, use funct 9
;       ai        aj        ak        al funct           phase               k        pn
         1         2         3         4     9        0.000000       -0.093535         1    ;  uncertainty k = 0.140130
         1         2         3         4     9      180.000000       11.314105         2    ;  uncertainty k = 0.286892
         1         2         3         4     9        0.000000        1.396554         3    ;  uncertainty k = 0.312648
         1         2         3         4     9      180.000000        1.581738         4    ;  uncertainty k = 0.174032
         1         2         3        31     9        0.000000       -0.217387         1    ;  uncertainty k = 0.459138
         1         2         3        31     9      180.000000        7.954493         2    ;  uncertainty k = 0.471883
         1         2         3        31     9        0.000000        0.698256         3    ;  uncertainty k = 0.355555
         1         2         3        31     9      180.000000        0.938182         4    ;  uncertainty k = 0.285269
         1         2         8         7     9        0.000000        0.147857         1    ;  uncertainty k = 0.077175
         1         2         8         7     9      180.000000        8.472804         2    ;  uncertainty k = 0.620184
         1         2         8         7     9        0.000000        1.536797         3    ;  uncertainty k = 0.460011
         1         2         8         7     9      180.000000        1.607719         4    ;  uncertainty k = 0.175650
         1         2         8        33     9        0.000000       -0.061586         1    ;  uncertainty k = 0.230238
         1         2         8        33     9      180.000000        7.202124         2    ;  uncertainty k = 0.376249
         1         2         8        33     9        0.000000        0.618348         3    ;  uncertainty k = 0.323881
         1         2         8        33     9      180.000000        0.890612         4    ;  uncertainty k = 0.162271
         2         3         4         5     9        0.000000       -0.071238         1    ;  uncertainty k = 0.565450
         2         3         4         5     9      180.000000       12.555973         2    ;  uncertainty k = 0.453870
         2         3         4         5     9        0.000000       -1.016354         3    ;  uncertainty k = 0.178661
         2         3         4         5     9      180.000000        0.923559         4    ;  uncertainty k = 0.274328
         2         3         4        30     9        0.000000        0.345506         1    ;  uncertainty k = 0.440051
         2         3         4        30     9      180.000000        8.988993         2    ;  uncertainty k = 0.458735
         2         3         4        30     9        0.000000        1.133626         3    ;  uncertainty k = 0.266292
         2         3         4        30     9      180.000000        1.375341         4    ;  uncertainty k = 0.348713
         2         8         7         5     9        0.000000       -0.019980         1    ;  uncertainty k = 0.213433
         2         8         7         5     9      180.000000       15.836208         2    ;  uncertainty k = 0.151273
         2         8         7         5     9        0.000000       -0.250395         3    ;  uncertainty k = 0.378342
         2         8         7         5     9      180.000000        0.889926         4    ;  uncertainty k = 0.311728
         2         8         7        32     9        0.000000        0.117510         1    ;  uncertainty k = 0.144452
         2         8         7        32     9      180.000000        8.616927         2    ;  uncertainty k = 0.339724
         2         8         7        32     9        0.000000        1.542128         3    ;  uncertainty k = 0.329175
         2         8         7        32     9      180.000000        1.971706         4    ;  uncertainty k = 0.325197
         3         2         8         7     9        0.000000        0.046106         1    ;  uncertainty k = 0.256441
         3         2         8         7     9      180.000000        8.846906         2    ;  uncertainty k = 0.466519
         3         2         8         7     9        0.000000       -0.053500         3    ;  uncertainty k = 0.471084
         3         2         8         7     9      180.000000        1.188180         4    ;  uncertainty k = 0.278793
         3         2         8        33     9        0.000000       -0.030840         1    ;  uncertainty k = 0.130301
         3         2         8        33     9      180.000000        5.825181         2    ;  uncertainty k = 0.579924
         3         2         8        33     9        0.000000        1.334320         3    ;  uncertainty k = 0.284024
         3         2         8        33     9      180.000000        1.445012         4    ;  uncertainty k = 0.125406
         3         4         5         6     9        0.000000       -0.017322         1    ;  uncertainty k = 0.714666
         3         4         5         6     9      180.000000       10.458773         2    ;  uncertainty k = 0.572025
         3         4         5         6     9        0.000000        0.064617         3    ;  uncertainty k = 0.545402
         3         4         5         6     9      180.000000        1.402280         4    ;  uncertainty k = 0.339818
         3         4         5         7     9        0.000000       -0.205226         1    ;  uncertainty k = 0.564183
         3         4         5         7     9      180.000000        8.748497         2    ;  uncertainty k = 1.048267
         3         4         5         7     9        0.000000        0.014057         3    ;  uncertainty k = 0.292204
         3         4         5         7     9      180.000000        1.086671         4    ;  uncertainty k = 0.255389
         3         4        30         9     9        0.000000       -1.168701         1    ;  uncertainty k = 2.684743
         3         4        30         9     9      180.000000        6.830501         2    ;  uncertainty k = 1.706537
         3         4        30         9     9        0.000000        0.499833         3    ;  uncertainty k = 0.451951
         3         4        30         9     9      180.000000        0.615092         4    ;  uncertainty k = 0.581488
         4         3         2         8     9        0.000000        0.010819         1    ;  uncertainty k = 0.172048
         4         3         2         8     9      180.000000       11.221899         2    ;  uncertainty k = 0.463796
         4         3         2         8     9        0.000000        0.108222         3    ;  uncertainty k = 0.500171
         4         3         2         8     9      180.000000        1.141949         4    ;  uncertainty k = 0.412233
         4         5         6         9     9        0.000000        0.040513         1    ;  uncertainty k = 1.327077
         4         5         6         9     9      180.000000       13.086506         2    ;  uncertainty k = 0.672298
         4         5         6         9     9        0.000000       -2.798178         3    ;  uncertainty k = 1.052043
         4         5         6         9     9      180.000000        1.816652         4    ;  uncertainty k = 0.316323
         4         5         7         8     9        0.000000        0.028031         1    ;  uncertainty k = 0.386640
         4         5         7         8     9      180.000000       12.298320         2    ;  uncertainty k = 0.569028
         4         5         7         8     9        0.000000       -1.160133         3    ;  uncertainty k = 0.183144
         4         5         7         8     9      180.000000        0.713007         4    ;  uncertainty k = 0.246878
         4         5         7        32     9        0.000000       -0.036315         1    ;  uncertainty k = 0.331192
         4         5         7        32     9      180.000000        6.225368         2    ;  uncertainty k = 0.663394
         4         5         7        32     9        0.000000        1.107178         3    ;  uncertainty k = 0.264841
         4         5         7        32     9      180.000000        1.250616         4    ;  uncertainty k = 0.235807
         4        30         9         6     9        0.000000       -0.055173         1    ;  uncertainty k = 0.734904
         4        30         9         6     9      180.000000       16.658413         2    ;  uncertainty k = 0.429413
         4        30         9         6     9        0.000000       -7.644321         3    ;  uncertainty k = 1.178912
         4        30         9         6     9      180.000000        1.208209         4    ;  uncertainty k = 0.567016
         4        30         9        10     9        0.000000        2.831862         1    ;  uncertainty k = 3.552523
         4        30         9        10     9      180.000000        7.776345         2    ;  uncertainty k = 0.603404
         4        30         9        10     9        0.000000        1.244254         3    ;  uncertainty k = 0.516372
         4        30         9        10     9      180.000000        0.240004         4    ;  uncertainty k = 0.323287
         5         4         3        31     9        0.000000        0.044966         1    ;  uncertainty k = 0.293598
         5         4         3        31     9      180.000000        6.793658         2    ;  uncertainty k = 0.875986
         5         4         3        31     9        0.000000        1.408978         3    ;  uncertainty k = 0.092547
         5         4         3        31     9      180.000000        1.357065         4    ;  uncertainty k = 0.292775
         5         4        30         9     9        0.000000       -0.316509         1    ;  uncertainty k = 0.300224
         5         4        30         9     9      180.000000       14.972572         2    ;  uncertainty k = 0.878249
         5         4        30         9     9        0.000000       -6.248628         3    ;  uncertainty k = 0.345971
         5         4        30         9     9      180.000000        0.425339         4    ;  uncertainty k = 0.730221
         5         6         9        10     9        0.000000        1.136279         1    ;  uncertainty k = 2.217989
         5         6         9        10     9      180.000000       22.092740         2    ;  uncertainty k = 0.530286
         5         6         9        10     9        0.000000        2.511321         3    ;  uncertainty k = 0.834919
         5         6         9        10     9      180.000000        0.601551         4    ;  uncertainty k = 0.744148
         5         6         9        30     9        0.000000       -0.034571         1    ;  uncertainty k = 0.405107
         5         6         9        30     9      180.000000       20.437764         2    ;  uncertainty k = 0.451963
         5         6         9        30     9        0.000000       -1.129623         3    ;  uncertainty k = 1.592611
         5         6         9        30     9      180.000000        1.770896         4    ;  uncertainty k = 0.387025
         5         7         8        33     9        0.000000        0.160430         1    ;  uncertainty k = 0.238723
         5         7         8        33     9      180.000000       10.515157         2    ;  uncertainty k = 0.245900
         5         7         8        33     9        0.000000        1.463731         3    ;  uncertainty k = 0.233464
         5         7         8        33     9      180.000000        1.691473         4    ;  uncertainty k = 0.101223
         6         5         4        30     9        0.000000        0.485659         1    ;  uncertainty k = 0.631758
         6         5         4        30     9      180.000000       13.516435         2    ;  uncertainty k = 0.703773
         6         5         4        30     9        0.000000       -1.137452         3    ;  uncertainty k = 0.538125
         6         5         4        30     9      180.000000        1.302227         4    ;  uncertainty k = 0.377877
         6         5         7         8     9        0.000000        0.381521         1    ;  uncertainty k = 0.407860
         6         5         7         8     9      180.000000       10.878820         2    ;  uncertainty k = 0.296722
         6         5         7         8     9        0.000000        0.874088         3    ;  uncertainty k = 0.182451
         6         5         7         8     9      180.000000        1.342692         4    ;  uncertainty k = 0.252536
         6         5         7        32     9        0.000000       -0.123292         1    ;  uncertainty k = 0.489182
         6         5         7        32     9      180.000000        6.972320         2    ;  uncertainty k = 0.566384
         6         5         7        32     9        0.000000        1.097831         3    ;  uncertainty k = 0.396651
         6         5         7        32     9      180.000000        1.135644         4    ;  uncertainty k = 0.252338
         6         9        10        11     9        0.000000        5.917638         1    ;  uncertainty k = 1.350602
         6         9        10        11     9      180.000000        0.206194         2    ;  uncertainty k = 0.428536
         6         9        10        11     9        0.000000        0.620318         3    ;  uncertainty k = 0.327722
         6         9        10        11     9      180.000000        0.201563         4    ;  uncertainty k = 0.056386
         6         9        10        12     9        0.000000        5.917638         1    ;  uncertainty k = 1.350602
         6         9        10        12     9      180.000000        0.206194         2    ;  uncertainty k = 0.428536
         6         9        10        12     9        0.000000        0.620318         3    ;  uncertainty k = 0.327722
         6         9        10        12     9      180.000000        0.201563         4    ;  uncertainty k = 0.056386
         6         9        10        13     9        0.000000        9.480538         1    ;  uncertainty k = 0.158978
         6         9        10        13     9      180.000000       -0.368809         2    ;  uncertainty k = 1.074260
         6         9        10        13     9        0.000000        0.163950         3    ;  uncertainty k = 0.303616
         6         9        10        13     9      180.000000        0.245353         4    ;  uncertainty k = 0.198952
         7         5         4        30     9        0.000000       -0.130379         1    ;  uncertainty k = 0.412490
         7         5         4        30     9      180.000000        8.061641         2    ;  uncertainty k = 0.263419
         7         5         4        30     9        0.000000        0.238895         3    ;  uncertainty k = 0.479245
         7         5         4        30     9      180.000000        1.123657         4    ;  uncertainty k = 0.221414
         7         5         6         9     9        0.000000        0.165613         1    ;  uncertainty k = 0.688152
         7         5         6         9     9      180.000000        8.630402         2    ;  uncertainty k = 0.855133
         7         5         6         9     9        0.000000        1.107796         3    ;  uncertainty k = 0.650292
         7         5         6         9     9      180.000000        0.660739         4    ;  uncertainty k = 0.416347
         8         2         3        31     9        0.000000        0.155873         1    ;  uncertainty k = 0.212133
         8         2         3        31     9      180.000000        6.816683         2    ;  uncertainty k = 0.468959
         8         2         3        31     9        0.000000        1.539913         3    ;  uncertainty k = 0.270154
         8         2         3        31     9      180.000000        1.552463         4    ;  uncertainty k = 0.103676
         9        10        13        14     9        0.000000       -6.478395         1    ;  uncertainty k = 0.969061
         9        10        13        14     9      180.000000       -5.474233         2    ;  uncertainty k = 0.601494
         9        10        13        14     9        0.000000        1.601631         3    ;  uncertainty k = 0.651213
         9        10        13        14     9      180.000000       -0.070092         4    ;  uncertainty k = 0.565484
         9        10        13        34     9        0.000000       -0.987659         1    ;  uncertainty k = 2.482807
         9        10        13        34     9      180.000000       -7.063363         2    ;  uncertainty k = 0.763006
         9        10        13        34     9        0.000000       -1.179016         3    ;  uncertainty k = 0.689830
         9        10        13        34     9      180.000000       -0.192324         4    ;  uncertainty k = 0.368388
        10        13        14        15     9        0.000000       -3.056151         1    ;  uncertainty k = 1.608374
        10        13        14        15     9      180.000000       -1.424709         2    ;  uncertainty k = 1.105638
        10        13        14        15     9        0.000000        0.528289         3    ;  uncertainty k = 0.228169
        10        13        14        15     9      180.000000       -0.005264         4    ;  uncertainty k = 0.157739
        10        13        14        17     9        0.000000        3.294663         1    ;  uncertainty k = 1.826760
        10        13        14        17     9      180.000000       -3.352529         2    ;  uncertainty k = 0.972370
        10        13        14        17     9        0.000000       -0.128977         3    ;  uncertainty k = 0.158499
        10        13        14        17     9      180.000000        0.211347         4    ;  uncertainty k = 0.207810
        10        13        14        35     9        0.000000        2.565667         1    ;  uncertainty k = 1.913942
        10        13        14        35     9      180.000000       -3.151882         2    ;  uncertainty k = 1.326756
        10        13        14        35     9        0.000000        0.266379         3    ;  uncertainty k = 0.321456
        10        13        14        35     9      180.000000        0.021630         4    ;  uncertainty k = 0.095356
        11        10         9        30     9        0.000000       -6.110412         1    ;  uncertainty k = 2.261238
        11        10         9        30     9      180.000000        0.440386         2    ;  uncertainty k = 0.812069
        11        10         9        30     9        0.000000       -0.070132         3    ;  uncertainty k = 0.312894
        11        10         9        30     9      180.000000        0.137354         4    ;  uncertainty k = 0.156350
        11        10        13        14     9        0.000000        1.322146         1    ;  uncertainty k = 1.584063
        11        10        13        14     9      180.000000        2.703993         2    ;  uncertainty k = 1.374656
        11        10        13        14     9        0.000000        1.421283         3    ;  uncertainty k = 0.354496
        11        10        13        14     9      180.000000       -0.327606         4    ;  uncertainty k = 0.371918
        11        10        13        34     9        0.000000        7.598272         1    ;  uncertainty k = 1.165516
        11        10        13        34     9      180.000000        1.048293         2    ;  uncertainty k = 1.007053
        11        10        13        34     9        0.000000       -0.686916         3    ;  uncertainty k = 0.247450
        11        10        13        34     9      180.000000       -0.093941         4    ;  uncertainty k = 0.203308
        12        10         9        30     9        0.000000       -6.110412         1    ;  uncertainty k = 2.261238
        12        10         9        30     9      180.000000        0.440386         2    ;  uncertainty k = 0.812069
        12        10         9        30     9        0.000000       -0.070132         3    ;  uncertainty k = 0.312894
        12        10         9        30     9      180.000000        0.137354         4    ;  uncertainty k = 0.156350
        12        10        13        14     9        0.000000        1.322146         1    ;  uncertainty k = 1.584063
        12        10        13        14     9      180.000000        2.703993         2    ;  uncertainty k = 1.374656
        12        10        13        14     9        0.000000        1.421283         3    ;  uncertainty k = 0.354496
        12        10        13        14     9      180.000000       -0.327606         4    ;  uncertainty k = 0.371918
        12        10        13        34     9        0.000000        7.598272         1    ;  uncertainty k = 1.165516
        12        10        13        34     9      180.000000        1.048293         2    ;  uncertainty k = 1.007053
        12        10        13        34     9        0.000000       -0.686916         3    ;  uncertainty k = 0.247450
        12        10        13        34     9      180.000000       -0.093941         4    ;  uncertainty k = 0.203308
        13        10         9        30     9        0.000000       -3.582995         1    ;  uncertainty k = 2.078789
        13        10         9        30     9      180.000000        0.069707         2    ;  uncertainty k = 1.033618
        13        10         9        30     9        0.000000       -0.251237         3    ;  uncertainty k = 0.566813
        13        10         9        30     9      180.000000        0.048436         4    ;  uncertainty k = 0.317842
        13        14        15        16     9        0.000000       -2.685605         1    ;  uncertainty k = 2.015605
        13        14        15        16     9      180.000000       -0.026434         2    ;  uncertainty k = 0.412596
        13        14        15        16     9        0.000000        1.197339         3    ;  uncertainty k = 0.329634
        13        14        15        16     9      180.000000       -0.056806         4    ;  uncertainty k = 0.114040
        13        14        15        36     9        0.000000       -0.044179         1    ;  uncertainty k = 0.473162
        13        14        15        36     9      180.000000       -0.147078         2    ;  uncertainty k = 0.254454
        13        14        15        36     9        0.000000        1.198739         3    ;  uncertainty k = 0.190552
        13        14        15        36     9      180.000000        0.012021         4    ;  uncertainty k = 0.168326
        13        14        15        37     9        0.000000       -0.044179         1    ;  uncertainty k = 0.473162
        13        14        15        37     9      180.000000       -0.147078         2    ;  uncertainty k = 0.254454
        13        14        15        37     9        0.000000        1.198739         3    ;  uncertainty k = 0.190552
        13        14        15        37     9      180.000000        0.012021         4    ;  uncertainty k = 0.168326
        13        14        17        18     9        0.000000        1.146432         1    ;  uncertainty k = 1.598314
        13        14        17        18     9      180.000000        5.399699         2    ;  uncertainty k = 0.700440
        13        14        17        18     9        0.000000        0.590117         3    ;  uncertainty k = 0.352636
        13        14        17        18     9      180.000000        0.248215         4    ;  uncertainty k = 0.205045
        13        14        17        19     9        0.000000       -0.733977         1    ;  uncertainty k = 0.913323
        13        14        17        19     9      180.000000        3.528612         2    ;  uncertainty k = 0.682370
        13        14        17        19     9        0.000000        1.132994         3    ;  uncertainty k = 0.349457
        13        14        17        19     9      180.000000        0.400242         4    ;  uncertainty k = 0.198904
        14        15        16        19     9        0.000000       -0.888438         1    ;  uncertainty k = 0.834930
        14        15        16        19     9      180.000000        2.818657         2    ;  uncertainty k = 1.029376
        14        15        16        19     9        0.000000        0.578930         3    ;  uncertainty k = 0.446132
        14        15        16        19     9      180.000000       -1.561480         4    ;  uncertainty k = 0.408128
        14        15        16        38     9        0.000000        0.493361         1    ;  uncertainty k = 0.388753
        14        15        16        38     9      180.000000       -1.461688         2    ;  uncertainty k = 0.273049
        14        15        16        38     9        0.000000       -0.246739         3    ;  uncertainty k = 0.202220
        14        15        16        38     9      180.000000        0.086332         4    ;  uncertainty k = 0.134925
        14        15        16        39     9        0.000000        0.493361         1    ;  uncertainty k = 0.388753
        14        15        16        39     9      180.000000       -1.461688         2    ;  uncertainty k = 0.273049
        14        15        16        39     9        0.000000       -0.246739         3    ;  uncertainty k = 0.202220
        14        15        16        39     9      180.000000        0.086332         4    ;  uncertainty k = 0.134925
        14        17        19        16     9        0.000000        2.421090         1    ;  uncertainty k = 3.349590
        14        17        19        16     9      180.000000        7.719446         2    ;  uncertainty k = 1.172411
        14        17        19        16     9        0.000000        0.561172         3    ;  uncertainty k = 0.581178
        14        17        19        16     9      180.000000        0.261535         4    ;  uncertainty k = 0.392078
        14        17        19        20     9        0.000000        6.245404         1    ;  uncertainty k = 0.724587
        14        17        19        20     9      180.000000        8.669402         2    ;  uncertainty k = 0.733105
        14        17        19        20     9        0.000000        1.735321         3    ;  uncertainty k = 0.558387
        14        17        19        20     9      180.000000       -0.104334         4    ;  uncertainty k = 0.361450
        15        14        13        34     9        0.000000        4.125035         1    ;  uncertainty k = 1.239462
        15        14        13        34     9      180.000000       -3.683552         2    ;  uncertainty k = 0.746864
        15        14        13        34     9        0.000000        0.456130         3    ;  uncertainty k = 0.214309
        15        14        13        34     9      180.000000       -0.012382         4    ;  uncertainty k = 0.128846
        15        14        17        18     9        0.000000       -2.050598         1    ;  uncertainty k = 0.981647
        15        14        17        18     9      180.000000        2.981963         2    ;  uncertainty k = 0.800804
        15        14        17        18     9        0.000000        0.799465         3    ;  uncertainty k = 0.341977
        15        14        17        18     9      180.000000        0.505498         4    ;  uncertainty k = 0.172409
        15        14        17        19     9        0.000000       -3.378935         1    ;  uncertainty k = 1.832403
        15        14        17        19     9      180.000000        5.270414         2    ;  uncertainty k = 1.526381
        15        14        17        19     9        0.000000        0.086099         3    ;  uncertainty k = 0.514783
        15        14        17        19     9      180.000000        0.658370         4    ;  uncertainty k = 0.269593
        15        16        19        17     9        0.000000       -1.271696         1    ;  uncertainty k = 1.646556
        15        16        19        17     9      180.000000        3.031980         2    ;  uncertainty k = 0.927563
        15        16        19        17     9        0.000000       -0.420830         3    ;  uncertainty k = 0.323621
        15        16        19        17     9      180.000000        0.331591         4    ;  uncertainty k = 0.299174
        15        16        19        20     9        0.000000       -0.500053         1    ;  uncertainty k = 1.100375
        15        16        19        20     9      180.000000        1.256366         2    ;  uncertainty k = 0.392406
        15        16        19        20     9        0.000000        1.672566         3    ;  uncertainty k = 0.563027
        15        16        19        20     9      180.000000       -0.085895         4    ;  uncertainty k = 0.253752
        16        15        14        17     9        0.000000       -0.490338         1    ;  uncertainty k = 0.528204
        16        15        14        17     9      180.000000        3.688921         2    ;  uncertainty k = 1.307263
        16        15        14        17     9        0.000000       -0.081969         3    ;  uncertainty k = 0.295879
        16        15        14        17     9      180.000000       -0.138866         4    ;  uncertainty k = 0.241659
        16        15        14        35     9        0.000000       -1.061453         1    ;  uncertainty k = 0.685471
        16        15        14        35     9      180.000000        0.217179         2    ;  uncertainty k = 0.500690
        16        15        14        35     9        0.000000        0.196770         3    ;  uncertainty k = 0.167166
        16        15        14        35     9      180.000000       -0.010915         4    ;  uncertainty k = 0.033130
        16        19        17        18     9        0.000000        1.706007         1    ;  uncertainty k = 1.828933
        16        19        17        18     9      180.000000       15.708326         2    ;  uncertainty k = 0.448233
        16        19        17        18     9        0.000000        1.023144         3    ;  uncertainty k = 0.259184
        16        19        17        18     9      180.000000       -0.722973         4    ;  uncertainty k = 0.243370
        16        19        20        21     9        0.000000       -0.688492         1    ;  uncertainty k = 0.671699
        16        19        20        21     9      180.000000        0.533676         2    ;  uncertainty k = 0.436027
        16        19        20        21     9        0.000000        1.107179         3    ;  uncertainty k = 0.173282
        16        19        20        21     9      180.000000        0.093772         4    ;  uncertainty k = 0.021274
        16        19        20        22     9        0.000000       -0.395089         1    ;  uncertainty k = 0.653414
        16        19        20        22     9      180.000000       -0.350453         2    ;  uncertainty k = 0.414882
        16        19        20        22     9        0.000000        1.165686         3    ;  uncertainty k = 0.166063
        16        19        20        22     9      180.000000        0.181576         4    ;  uncertainty k = 0.126992
        16        19        20        40     9        0.000000       -2.305625         1    ;  uncertainty k = 0.822179
        16        19        20        40     9      180.000000        0.234101         2    ;  uncertainty k = 0.379196
        16        19        20        40     9        0.000000        0.742947         3    ;  uncertainty k = 0.268478
        16        19        20        40     9      180.000000        0.126564         4    ;  uncertainty k = 0.061018
        17        14        13        34     9        0.000000        6.549703         1    ;  uncertainty k = 0.863547
        17        14        13        34     9      180.000000       -4.873259         2    ;  uncertainty k = 0.602018
        17        14        13        34     9        0.000000        0.296844         3    ;  uncertainty k = 0.232284
        17        14        13        34     9      180.000000       -0.014369         4    ;  uncertainty k = 0.174252
        17        14        15        36     9        0.000000       -0.432004         1    ;  uncertainty k = 0.650783
        17        14        15        36     9      180.000000       -0.497852         2    ;  uncertainty k = 0.347069
        17        14        15        36     9        0.000000        0.474247         3    ;  uncertainty k = 0.069589
        17        14        15        36     9      180.000000        0.036041         4    ;  uncertainty k = 0.080912
        17        14        15        37     9        0.000000       -0.432004         1    ;  uncertainty k = 0.650783
        17        14        15        37     9      180.000000       -0.497852         2    ;  uncertainty k = 0.347069
        17        14        15        37     9        0.000000        0.474247         3    ;  uncertainty k = 0.069589
        17        14        15        37     9      180.000000        0.036041         4    ;  uncertainty k = 0.080912
        17        19        16        38     9        0.000000       -0.126021         1    ;  uncertainty k = 0.747628
        17        19        16        38     9      180.000000        0.293972         2    ;  uncertainty k = 0.484269
        17        19        16        38     9        0.000000        0.164615         3    ;  uncertainty k = 0.183342
        17        19        16        38     9      180.000000        0.417669         4    ;  uncertainty k = 0.109232
        17        19        16        39     9        0.000000       -0.126021         1    ;  uncertainty k = 0.747628
        17        19        16        39     9      180.000000        0.293972         2    ;  uncertainty k = 0.484269
        17        19        16        39     9        0.000000        0.164615         3    ;  uncertainty k = 0.183342
        17        19        16        39     9      180.000000        0.417669         4    ;  uncertainty k = 0.109232
        17        19        20        21     9        0.000000        0.832869         1    ;  uncertainty k = 0.469341
        17        19        20        21     9      180.000000        0.390728         2    ;  uncertainty k = 0.304508
        17        19        20        21     9        0.000000        0.474399         3    ;  uncertainty k = 0.139969
        17        19        20        21     9      180.000000        0.242619         4    ;  uncertainty k = 0.127693
        17        19        20        22     9        0.000000        1.833407         1    ;  uncertainty k = 0.853465
        17        19        20        22     9      180.000000        0.209535         2    ;  uncertainty k = 0.537380
        17        19        20        22     9        0.000000       -0.592888         3    ;  uncertainty k = 0.163296
        17        19        20        22     9      180.000000        0.840729         4    ;  uncertainty k = 0.057254
        17        19        20        40     9        0.000000       -0.205144         1    ;  uncertainty k = 0.599169
        17        19        20        40     9      180.000000        0.004804         2    ;  uncertainty k = 0.153471
        17        19        20        40     9        0.000000       -0.044376         3    ;  uncertainty k = 0.129015
        17        19        20        40     9      180.000000        0.266747         4    ;  uncertainty k = 0.031692
        18        17        14        35     9        0.000000       -0.934044         1    ;  uncertainty k = 0.944492
        18        17        14        35     9      180.000000        3.324777         2    ;  uncertainty k = 0.469257
        18        17        14        35     9        0.000000        0.042396         3    ;  uncertainty k = 0.552963
        18        17        14        35     9      180.000000        0.116746         4    ;  uncertainty k = 0.277823
        18        17        19        20     9        0.000000        2.731142         1    ;  uncertainty k = 1.962138
        18        17        19        20     9      180.000000       14.178956         2    ;  uncertainty k = 0.588436
        18        17        19        20     9        0.000000        0.947456         3    ;  uncertainty k = 0.406074
        18        17        19        20     9      180.000000       -0.454871         4    ;  uncertainty k = 0.414263
        19        16        15        36     9        0.000000       -1.829510         1    ;  uncertainty k = 0.456616
        19        16        15        36     9      180.000000        0.325894         2    ;  uncertainty k = 0.435580
        19        16        15        36     9        0.000000        1.355353         3    ;  uncertainty k = 0.143785
        19        16        15        36     9      180.000000        0.074444         4    ;  uncertainty k = 0.249644
        19        16        15        37     9        0.000000       -1.829510         1    ;  uncertainty k = 0.456616
        19        16        15        37     9      180.000000        0.325894         2    ;  uncertainty k = 0.435580
        19        16        15        37     9        0.000000        1.355353         3    ;  uncertainty k = 0.143785
        19        16        15        37     9      180.000000        0.074444         4    ;  uncertainty k = 0.249644
        19        17        14        35     9        0.000000       -2.151420         1    ;  uncertainty k = 2.523551
        19        17        14        35     9      180.000000        2.389038         2    ;  uncertainty k = 0.651646
        19        17        14        35     9        0.000000        0.964023         3    ;  uncertainty k = 0.293574
        19        17        14        35     9      180.000000        0.482538         4    ;  uncertainty k = 0.134256
        19        20        21        41     9        0.000000       -0.041715         1    ;  uncertainty k = 0.086802
        19        20        21        41     9      180.000000       -2.055705         2    ;  uncertainty k = 0.151824
        19        20        21        41     9        0.000000        1.070157         3    ;  uncertainty k = 0.088658
        19        20        21        41     9      180.000000       -0.169755         4    ;  uncertainty k = 0.104081
        19        20        21        42     9        0.000000       -0.041715         1    ;  uncertainty k = 0.086802
        19        20        21        42     9      180.000000       -2.055705         2    ;  uncertainty k = 0.151824
        19        20        21        42     9        0.000000        1.070157         3    ;  uncertainty k = 0.088658
        19        20        21        42     9      180.000000       -0.169755         4    ;  uncertainty k = 0.104081
        19        20        21        43     9        0.000000       -0.041715         1    ;  uncertainty k = 0.086802
        19        20        21        43     9      180.000000       -2.055705         2    ;  uncertainty k = 0.151824
        19        20        21        43     9        0.000000        1.070157         3    ;  uncertainty k = 0.088658
        19        20        21        43     9      180.000000       -0.169755         4    ;  uncertainty k = 0.104081
        19        20        22        23     9        0.000000        0.499396         1    ;  uncertainty k = 0.966558
        19        20        22        23     9      180.000000        6.109033         2    ;  uncertainty k = 0.130985
        19        20        22        23     9        0.000000        1.318031         3    ;  uncertainty k = 0.293046
        19        20        22        23     9      180.000000        0.376941         4    ;  uncertainty k = 0.128880
        19        20        22        24     9        0.000000        1.298771         1    ;  uncertainty k = 0.762727
        19        20        22        24     9      180.000000        3.730132         2    ;  uncertainty k = 0.411538
        19        20        22        24     9        0.000000        0.531949         3    ;  uncertainty k = 0.139911
        19        20        22        24     9      180.000000        0.104606         4    ;  uncertainty k = 0.060875
        20        19        16        38     9        0.000000       -0.171023         1    ;  uncertainty k = 0.466144
        20        19        16        38     9      180.000000       -0.753502         2    ;  uncertainty k = 0.394766
        20        19        16        38     9        0.000000        0.990987         3    ;  uncertainty k = 0.142757
        20        19        16        38     9      180.000000        0.391063         4    ;  uncertainty k = 0.162132
        20        19        16        39     9        0.000000       -0.171023         1    ;  uncertainty k = 0.466144
        20        19        16        39     9      180.000000       -0.753502         2    ;  uncertainty k = 0.394766
        20        19        16        39     9        0.000000        0.990987         3    ;  uncertainty k = 0.142757
        20        19        16        39     9      180.000000        0.391063         4    ;  uncertainty k = 0.162132
        20        22        24        25     9        0.000000        8.299487         1    ;  uncertainty k = 0.269860
        20        22        24        25     9      180.000000        6.005714         2    ;  uncertainty k = 0.421476
        20        22        24        25     9        0.000000        1.159671         3    ;  uncertainty k = 0.227098
        20        22        24        25     9      180.000000        0.103306         4    ;  uncertainty k = 0.158474
        20        22        24        29     9        0.000000        8.299487         1    ;  uncertainty k = 0.269860
        20        22        24        29     9      180.000000        6.005714         2    ;  uncertainty k = 0.421476
        20        22        24        29     9        0.000000        1.159671         3    ;  uncertainty k = 0.227098
        20        22        24        29     9      180.000000        0.103306         4    ;  uncertainty k = 0.158474
        21        20        22        23     9        0.000000       -0.918609         1    ;  uncertainty k = 0.498844
        21        20        22        23     9      180.000000        5.582712         2    ;  uncertainty k = 0.540220
        21        20        22        23     9        0.000000        1.479882         3    ;  uncertainty k = 0.175097
        21        20        22        23     9      180.000000        0.507220         4    ;  uncertainty k = 0.051889
        21        20        22        24     9        0.000000       -2.003223         1    ;  uncertainty k = 0.395192
        21        20        22        24     9      180.000000        3.012685         2    ;  uncertainty k = 0.516173
        21        20        22        24     9        0.000000        0.475109         3    ;  uncertainty k = 0.119059
        21        20        22        24     9      180.000000        0.075564         4    ;  uncertainty k = 0.082587
        22        20        21        41     9        0.000000        1.150537         1    ;  uncertainty k = 0.677576
        22        20        21        41     9      180.000000       -0.924040         2    ;  uncertainty k = 0.241314
        22        20        21        41     9        0.000000        0.735120         3    ;  uncertainty k = 0.069732
        22        20        21        41     9      180.000000       -0.019774         4    ;  uncertainty k = 0.058125
        22        20        21        42     9        0.000000        1.150537         1    ;  uncertainty k = 0.677576
        22        20        21        42     9      180.000000       -0.924040         2    ;  uncertainty k = 0.241314
        22        20        21        42     9        0.000000        0.735120         3    ;  uncertainty k = 0.069732
        22        20        21        42     9      180.000000       -0.019774         4    ;  uncertainty k = 0.058125
        22        20        21        43     9        0.000000        1.150537         1    ;  uncertainty k = 0.677576
        22        20        21        43     9      180.000000       -0.924040         2    ;  uncertainty k = 0.241314
        22        20        21        43     9        0.000000        0.735120         3    ;  uncertainty k = 0.069732
        22        20        21        43     9      180.000000       -0.019774         4    ;  uncertainty k = 0.058125
        22        24        25        26     9        0.000000        0.224961         1    ;  uncertainty k = 0.687788
        22        24        25        26     9      180.000000        0.114129         2    ;  uncertainty k = 0.146198
        22        24        25        26     9        0.000000       -0.233453         3    ;  uncertainty k = 0.126504
        22        24        25        26     9      180.000000        0.299264         4    ;  uncertainty k = 0.131991
        22        24        25        44     9        0.000000        1.489642         1    ;  uncertainty k = 0.595508
        22        24        25        44     9      180.000000       -0.191425         2    ;  uncertainty k = 0.136241
        22        24        25        44     9        0.000000        0.111797         3    ;  uncertainty k = 0.096189
        22        24        25        44     9      180.000000        0.140722         4    ;  uncertainty k = 0.049493
        22        24        25        45     9        0.000000        1.489642         1    ;  uncertainty k = 0.595508
        22        24        25        45     9      180.000000       -0.191425         2    ;  uncertainty k = 0.136241
        22        24        25        45     9        0.000000        0.111797         3    ;  uncertainty k = 0.096189
        22        24        25        45     9      180.000000        0.140722         4    ;  uncertainty k = 0.049493
        22        24        29        28     9        0.000000        0.224961         1    ;  uncertainty k = 0.687788
        22        24        29        28     9      180.000000        0.114129         2    ;  uncertainty k = 0.146198
        22        24        29        28     9        0.000000       -0.233453         3    ;  uncertainty k = 0.126504
        22        24        29        28     9      180.000000        0.299264         4    ;  uncertainty k = 0.131991
        22        24        29        50     9        0.000000        1.489642         1    ;  uncertainty k = 0.595508
        22        24        29        50     9      180.000000       -0.191425         2    ;  uncertainty k = 0.136241
        22        24        29        50     9        0.000000        0.111797         3    ;  uncertainty k = 0.096189
        22        24        29        50     9      180.000000        0.140722         4    ;  uncertainty k = 0.049493
        22        24        29        51     9        0.000000        1.489642         1    ;  uncertainty k = 0.595508
        22        24        29        51     9      180.000000       -0.191425         2    ;  uncertainty k = 0.136241
        22        24        29        51     9        0.000000        0.111797         3    ;  uncertainty k = 0.096189
        22        24        29        51     9      180.000000        0.140722         4    ;  uncertainty k = 0.049493
        23        22        20        40     9        0.000000       -1.193527         1    ;  uncertainty k = 0.618000
        23        22        20        40     9      180.000000        2.843837         2    ;  uncertainty k = 0.359543
        23        22        20        40     9        0.000000        0.832219         3    ;  uncertainty k = 0.209632
        23        22        20        40     9      180.000000        0.162966         4    ;  uncertainty k = 0.077189
        23        22        24        25     9        0.000000        6.603517         1    ;  uncertainty k = 0.334857
        23        22        24        25     9      180.000000       20.577585         2    ;  uncertainty k = 0.086866
        23        22        24        25     9        0.000000        0.266672         3    ;  uncertainty k = 0.142095
        23        22        24        25     9      180.000000       -1.495398         4    ;  uncertainty k = 0.102425
        23        22        24        29     9        0.000000        6.603517         1    ;  uncertainty k = 0.334857
        23        22        24        29     9      180.000000       20.577585         2    ;  uncertainty k = 0.086866
        23        22        24        29     9        0.000000        0.266672         3    ;  uncertainty k = 0.142095
        23        22        24        29     9      180.000000       -1.495398         4    ;  uncertainty k = 0.102425
        24        22        20        40     9        0.000000       -0.546567         1    ;  uncertainty k = 0.607387
        24        22        20        40     9      180.000000        2.439825         2    ;  uncertainty k = 0.362200
        24        22        20        40     9        0.000000        0.108278         3    ;  uncertainty k = 0.047116
        24        22        20        40     9      180.000000        0.170383         4    ;  uncertainty k = 0.050292
        24        25        26        27     9        0.000000        5.353992         1    ;  uncertainty k = 0.675529
        24        25        26        27     9      180.000000       -8.857338         2    ;  uncertainty k = 0.692100
        24        25        26        27     9        0.000000        3.059860         3    ;  uncertainty k = 0.495205
        24        25        26        27     9      180.000000       -0.099186         4    ;  uncertainty k = 0.227903
        24        25        26        46     9        0.000000        4.810866         1    ;  uncertainty k = 0.569234
        24        25        26        46     9      180.000000       -4.025620         2    ;  uncertainty k = 0.699778
        24        25        26        46     9        0.000000        0.136668         3    ;  uncertainty k = 0.307514
        24        25        26        46     9      180.000000        0.448548         4    ;  uncertainty k = 0.208534
        24        25        26        47     9        0.000000        4.810866         1    ;  uncertainty k = 0.569234
        24        25        26        47     9      180.000000       -4.025620         2    ;  uncertainty k = 0.699778
        24        25        26        47     9        0.000000        0.136668         3    ;  uncertainty k = 0.307514
        24        25        26        47     9      180.000000        0.448548         4    ;  uncertainty k = 0.208534
        24        29        28        27     9        0.000000        5.353992         1    ;  uncertainty k = 0.675529
        24        29        28        27     9      180.000000       -8.857338         2    ;  uncertainty k = 0.692100
        24        29        28        27     9        0.000000        3.059860         3    ;  uncertainty k = 0.495205
        24        29        28        27     9      180.000000       -0.099186         4    ;  uncertainty k = 0.227903
        24        29        28        48     9        0.000000        4.810866         1    ;  uncertainty k = 0.569234
        24        29        28        48     9      180.000000       -4.025620         2    ;  uncertainty k = 0.699778
        24        29        28        48     9        0.000000        0.136668         3    ;  uncertainty k = 0.307514
        24        29        28        48     9      180.000000        0.448548         4    ;  uncertainty k = 0.208534
        24        29        28        49     9        0.000000        4.810866         1    ;  uncertainty k = 0.569234
        24        29        28        49     9      180.000000       -4.025620         2    ;  uncertainty k = 0.699778
        24        29        28        49     9        0.000000        0.136668         3    ;  uncertainty k = 0.307514
        24        29        28        49     9      180.000000        0.448548         4    ;  uncertainty k = 0.208534
        25        24        29        28     9        0.000000       -5.632507         1    ;  uncertainty k = 1.372901
        25        24        29        28     9      180.000000        0.820042         2    ;  uncertainty k = 0.457968
        25        24        29        28     9        0.000000        1.551394         3    ;  uncertainty k = 0.353572
        25        24        29        28     9      180.000000       -0.465199         4    ;  uncertainty k = 0.242804
        25        24        29        50     9        0.000000       -5.630831         1    ;  uncertainty k = 1.116973
        25        24        29        50     9      180.000000        1.096405         2    ;  uncertainty k = 0.268716
        25        24        29        50     9        0.000000        1.209015         3    ;  uncertainty k = 0.133163
        25        24        29        50     9      180.000000       -0.230019         4    ;  uncertainty k = 0.154441
        25        24        29        51     9        0.000000       -5.630831         1    ;  uncertainty k = 1.116973
        25        24        29        51     9      180.000000        1.096405         2    ;  uncertainty k = 0.268716
        25        24        29        51     9        0.000000        1.209015         3    ;  uncertainty k = 0.133163
        25        24        29        51     9      180.000000       -0.230019         4    ;  uncertainty k = 0.154441
        25        26        27        28     9        0.000000       -4.283460         1    ;  uncertainty k = 1.346568
        25        26        27        28     9      180.000000        0.019562         2    ;  uncertainty k = 1.048764
        25        26        27        28     9        0.000000        0.786756         3    ;  uncertainty k = 0.331644
        25        26        27        28     9      180.000000       -0.317148         4    ;  uncertainty k = 0.268089
        26        25        24        29     9        0.000000       -5.632507         1    ;  uncertainty k = 1.372901
        26        25        24        29     9      180.000000        0.820042         2    ;  uncertainty k = 0.457968
        26        25        24        29     9        0.000000        1.551394         3    ;  uncertainty k = 0.353572
        26        25        24        29     9      180.000000       -0.465199         4    ;  uncertainty k = 0.242804
        26        27        28        29     9        0.000000       -4.283460         1    ;  uncertainty k = 1.346568
        26        27        28        29     9      180.000000        0.019562         2    ;  uncertainty k = 1.048764
        26        27        28        29     9        0.000000        0.786756         3    ;  uncertainty k = 0.331644
        26        27        28        29     9      180.000000       -0.317148         4    ;  uncertainty k = 0.268089
        26        27        28        48     9        0.000000       -5.824736         1    ;  uncertainty k = 1.874994
        26        27        28        48     9      180.000000        0.612519         2    ;  uncertainty k = 0.237167
        26        27        28        48     9        0.000000        0.759446         3    ;  uncertainty k = 0.174537
        26        27        28        48     9      180.000000       -0.645283         4    ;  uncertainty k = 0.153493
        26        27        28        49     9        0.000000       -5.824736         1    ;  uncertainty k = 1.874994
        26        27        28        49     9      180.000000        0.612519         2    ;  uncertainty k = 0.237167
        26        27        28        49     9        0.000000        0.759446         3    ;  uncertainty k = 0.174537
        26        27        28        49     9      180.000000       -0.645283         4    ;  uncertainty k = 0.153493
        27        26        25        44     9        0.000000        0.912216         1    ;  uncertainty k = 0.334790
        27        26        25        44     9      180.000000       -0.812586         2    ;  uncertainty k = 0.665020
        27        26        25        44     9        0.000000        1.061498         3    ;  uncertainty k = 0.198448
        27        26        25        44     9      180.000000        0.211215         4    ;  uncertainty k = 0.255400
        27        26        25        45     9        0.000000        0.912216         1    ;  uncertainty k = 0.334790
        27        26        25        45     9      180.000000       -0.812586         2    ;  uncertainty k = 0.665020
        27        26        25        45     9        0.000000        1.061498         3    ;  uncertainty k = 0.198448
        27        26        25        45     9      180.000000        0.211215         4    ;  uncertainty k = 0.255400
        27        28        29        50     9        0.000000        0.912216         1    ;  uncertainty k = 0.334790
        27        28        29        50     9      180.000000       -0.812586         2    ;  uncertainty k = 0.665020
        27        28        29        50     9        0.000000        1.061498         3    ;  uncertainty k = 0.198448
        27        28        29        50     9      180.000000        0.211215         4    ;  uncertainty k = 0.255400
        27        28        29        51     9        0.000000        0.912216         1    ;  uncertainty k = 0.334790
        27        28        29        51     9      180.000000       -0.812586         2    ;  uncertainty k = 0.665020
        27        28        29        51     9        0.000000        1.061498         3    ;  uncertainty k = 0.198448
        27        28        29        51     9      180.000000        0.211215         4    ;  uncertainty k = 0.255400
        28        27        26        46     9        0.000000       -5.824736         1    ;  uncertainty k = 1.874994
        28        27        26        46     9      180.000000        0.612519         2    ;  uncertainty k = 0.237167
        28        27        26        46     9        0.000000        0.759446         3    ;  uncertainty k = 0.174537
        28        27        26        46     9      180.000000       -0.645283         4    ;  uncertainty k = 0.153493
        28        27        26        47     9        0.000000       -5.824736         1    ;  uncertainty k = 1.874994
        28        27        26        47     9      180.000000        0.612519         2    ;  uncertainty k = 0.237167
        28        27        26        47     9        0.000000        0.759446         3    ;  uncertainty k = 0.174537
        28        27        26        47     9      180.000000       -0.645283         4    ;  uncertainty k = 0.153493
        29        24        25        44     9        0.000000       -5.630831         1    ;  uncertainty k = 1.116973
        29        24        25        44     9      180.000000        1.096405         2    ;  uncertainty k = 0.268716
        29        24        25        44     9        0.000000        1.209015         3    ;  uncertainty k = 0.133163
        29        24        25        44     9      180.000000       -0.230019         4    ;  uncertainty k = 0.154441
        29        24        25        45     9        0.000000       -5.630831         1    ;  uncertainty k = 1.116973
        29        24        25        45     9      180.000000        1.096405         2    ;  uncertainty k = 0.268716
        29        24        25        45     9        0.000000        1.209015         3    ;  uncertainty k = 0.133163
        29        24        25        45     9      180.000000       -0.230019         4    ;  uncertainty k = 0.154441
        30         4         3        31     9        0.000000       -0.095646         1    ;  uncertainty k = 0.341607
        30         4         3        31     9      180.000000        4.995797         2    ;  uncertainty k = 0.766402
        30         4         3        31     9        0.000000        0.912564         3    ;  uncertainty k = 0.332294
        30         4         3        31     9      180.000000        0.712118         4    ;  uncertainty k = 0.276312
        32         7         8        33     9        0.000000       -0.152618         1    ;  uncertainty k = 0.177453
        32         7         8        33     9      180.000000        7.879584         2    ;  uncertainty k = 0.431873
        32         7         8        33     9        0.000000       -0.237560         3    ;  uncertainty k = 0.217892
        32         7         8        33     9      180.000000        0.177357         4    ;  uncertainty k = 0.177234
        34        13        14        35     9        0.000000        4.183032         1    ;  uncertainty k = 1.302386
        34        13        14        35     9      180.000000       -2.391297         2    ;  uncertainty k = 0.510309
        34        13        14        35     9        0.000000        0.279950         3    ;  uncertainty k = 0.233897
        34        13        14        35     9      180.000000        0.158372         4    ;  uncertainty k = 0.113153
        35        14        15        36     9        0.000000        0.651024         1    ;  uncertainty k = 0.239750
        35        14        15        36     9      180.000000       -0.595802         2    ;  uncertainty k = 0.144636
        35        14        15        36     9        0.000000        0.567138         3    ;  uncertainty k = 0.096894
        35        14        15        36     9      180.000000        0.057379         4    ;  uncertainty k = 0.063506
        35        14        15        37     9        0.000000        0.651024         1    ;  uncertainty k = 0.239750
        35        14        15        37     9      180.000000       -0.595802         2    ;  uncertainty k = 0.144636
        35        14        15        37     9        0.000000        0.567138         3    ;  uncertainty k = 0.096894
        35        14        15        37     9      180.000000        0.057379         4    ;  uncertainty k = 0.063506
        36        15        16        38     9        0.000000        0.823414         1    ;  uncertainty k = 0.215557
        36        15        16        38     9      180.000000       -0.170976         2    ;  uncertainty k = 0.266678
        36        15        16        38     9        0.000000        0.469348         3    ;  uncertainty k = 0.038030
        36        15        16        38     9      180.000000        0.043270         4    ;  uncertainty k = 0.022809
        36        15        16        39     9        0.000000        0.823414         1    ;  uncertainty k = 0.215557
        36        15        16        39     9      180.000000       -0.170976         2    ;  uncertainty k = 0.266678
        36        15        16        39     9        0.000000        0.469348         3    ;  uncertainty k = 0.038030
        36        15        16        39     9      180.000000        0.043270         4    ;  uncertainty k = 0.022809
        37        15        16        38     9        0.000000        0.823414         1    ;  uncertainty k = 0.215557
        37        15        16        38     9      180.000000       -0.170976         2    ;  uncertainty k = 0.266678
        37        15        16        38     9        0.000000        0.469348         3    ;  uncertainty k = 0.038030
        37        15        16        38     9      180.000000        0.043270         4    ;  uncertainty k = 0.022809
        37        15        16        39     9        0.000000        0.823414         1    ;  uncertainty k = 0.215557
        37        15        16        39     9      180.000000       -0.170976         2    ;  uncertainty k = 0.266678
        37        15        16        39     9        0.000000        0.469348         3    ;  uncertainty k = 0.038030
        37        15        16        39     9      180.000000        0.043270         4    ;  uncertainty k = 0.022809
        40        20        21        41     9        0.000000        0.143668         1    ;  uncertainty k = 0.287689
        40        20        21        41     9      180.000000       -0.308389         2    ;  uncertainty k = 0.120561
        40        20        21        41     9        0.000000        0.423570         3    ;  uncertainty k = 0.126378
        40        20        21        41     9      180.000000       -0.021121         4    ;  uncertainty k = 0.092887
        40        20        21        42     9        0.000000        0.143668         1    ;  uncertainty k = 0.287689
        40        20        21        42     9      180.000000       -0.308389         2    ;  uncertainty k = 0.120561
        40        20        21        42     9        0.000000        0.423570         3    ;  uncertainty k = 0.126378
        40        20        21        42     9      180.000000       -0.021121         4    ;  uncertainty k = 0.092887
        40        20        21        43     9        0.000000        0.143668         1    ;  uncertainty k = 0.287689
        40        20        21        43     9      180.000000       -0.308389         2    ;  uncertainty k = 0.120561
        40        20        21        43     9        0.000000        0.423570         3    ;  uncertainty k = 0.126378
        40        20        21        43     9      180.000000       -0.021121         4    ;  uncertainty k = 0.092887
        44        25        26        46     9        0.000000       -2.278074         1    ;  uncertainty k = 1.043178
        44        25        26        46     9      180.000000        1.532748         2    ;  uncertainty k = 0.718723
        44        25        26        46     9        0.000000       -0.092826         3    ;  uncertainty k = 0.085920
        44        25        26        46     9      180.000000       -0.789690         4    ;  uncertainty k = 0.177408
        44        25        26        47     9        0.000000       -2.278074         1    ;  uncertainty k = 1.043178
        44        25        26        47     9      180.000000        1.532748         2    ;  uncertainty k = 0.718723
        44        25        26        47     9        0.000000       -0.092826         3    ;  uncertainty k = 0.085920
        44        25        26        47     9      180.000000       -0.789690         4    ;  uncertainty k = 0.177408
        45        25        26        46     9        0.000000       -2.278074         1    ;  uncertainty k = 1.043178
        45        25        26        46     9      180.000000        1.532748         2    ;  uncertainty k = 0.718723
        45        25        26        46     9        0.000000       -0.092826         3    ;  uncertainty k = 0.085920
        45        25        26        46     9      180.000000       -0.789690         4    ;  uncertainty k = 0.177408
        45        25        26        47     9        0.000000       -2.278074         1    ;  uncertainty k = 1.043178
        45        25        26        47     9      180.000000        1.532748         2    ;  uncertainty k = 0.718723
        45        25        26        47     9        0.000000       -0.092826         3    ;  uncertainty k = 0.085920
        45        25        26        47     9      180.000000       -0.789690         4    ;  uncertainty k = 0.177408
        48        28        29        50     9        0.000000       -2.278074         1    ;  uncertainty k = 1.043178
        48        28        29        50     9      180.000000        1.532748         2    ;  uncertainty k = 0.718723
        48        28        29        50     9        0.000000       -0.092826         3    ;  uncertainty k = 0.085920
        48        28        29        50     9      180.000000       -0.789690         4    ;  uncertainty k = 0.177408
        48        28        29        51     9        0.000000       -2.278074         1    ;  uncertainty k = 1.043178
        48        28        29        51     9      180.000000        1.532748         2    ;  uncertainty k = 0.718723
        48        28        29        51     9        0.000000       -0.092826         3    ;  uncertainty k = 0.085920
        48        28        29        51     9      180.000000       -0.789690         4    ;  uncertainty k = 0.177408
        49        28        29        50     9        0.000000       -2.278074         1    ;  uncertainty k = 1.043178
        49        28        29        50     9      180.000000        1.532748         2    ;  uncertainty k = 0.718723
        49        28        29        50     9        0.000000       -0.092826         3    ;  uncertainty k = 0.085920
        49        28        29        50     9      180.000000       -0.789690         4    ;  uncertainty k = 0.177408
        49        28        29        51     9        0.000000       -2.278074         1    ;  uncertainty k = 1.043178
        49        28        29        51     9      180.000000        1.532748         2    ;  uncertainty k = 0.718723
        49        28        29        51     9        0.000000       -0.092826         3    ;  uncertainty k = 0.085920
        49        28        29        51     9      180.000000       -0.789690         4    ;  uncertainty k = 0.177408

[ dihedrals ] ; impropers
;       ai        aj        ak        al funct           phase               k        pn
         2         1         3         8     4      180.000000       13.008186         2    ;  uncertainty k = 0.044420
         2         3         8         1     4      180.000000       13.008186         2    ;  uncertainty k = 0.044420
         2         8         1         3     4      180.000000       13.008186         2    ;  uncertainty k = 0.044420
         3         2         4        31     4      180.000000        4.139122         2    ;  uncertainty k = 0.143445
         3         4        31         2     4      180.000000        4.139122         2    ;  uncertainty k = 0.143445
         3        31         2         4     4      180.000000        4.139122         2    ;  uncertainty k = 0.143445
         4         3         5        30     4      180.000000        0.867791         2    ;  uncertainty k = 0.846172
         4         5        30         3     4      180.000000        0.867791         2    ;  uncertainty k = 0.846172
         4        30         3         5     4      180.000000        0.867791         2    ;  uncertainty k = 0.846172
         5         4         6         7     4      180.000000        3.677753         2    ;  uncertainty k = 0.659759
         5         6         7         4     4      180.000000        3.677753         2    ;  uncertainty k = 0.659759
         5         7         4         6     4      180.000000        3.677753         2    ;  uncertainty k = 0.659759
         7         5         8        32     4      180.000000        4.461972         2    ;  uncertainty k = 0.232594
         7         8        32         5     4      180.000000        4.461972         2    ;  uncertainty k = 0.232594
         7        32         5         8     4      180.000000        4.461972         2    ;  uncertainty k = 0.232594
         8         2         7        33     4      180.000000        3.662662         2    ;  uncertainty k = 0.203657
         8         7        33         2     4      180.000000        3.662662         2    ;  uncertainty k = 0.203657
         8        33         2         7     4      180.000000        3.662662         2    ;  uncertainty k = 0.203657
         9         6        10        30     4      180.000000        4.946582         2    ;  uncertainty k = 0.312644
         9        10        30         6     4      180.000000        4.946582         2    ;  uncertainty k = 0.312644
         9        30         6        10     4      180.000000        4.946582         2    ;  uncertainty k = 0.312644
        17        14        18        19     4      180.000000       48.829257         2    ;  uncertainty k = 0.040622
        17        18        19        14     4      180.000000       48.829257         2    ;  uncertainty k = 0.040622
        17        19        14        18     4      180.000000       48.829257         2    ;  uncertainty k = 0.040622
        22        20        23        24     4      180.000000       50.108480         2    ;  uncertainty k = 0.051863
        22        23        24        20     4      180.000000       50.108480         2    ;  uncertainty k = 0.051863
        22        24        20        23     4      180.000000       50.108480         2    ;  uncertainty k = 0.051863

[ pairs ]
;       ai        aj funct
         1         4     1
         1         7     1
         1        31     1
         1        33     1
         2         5     1
         2        30     1
         2        32     1
         3         6     1
         3         7     1
         3         9     1
         3        33     1
         4         8     1
         4        10     1
         4        32     1
         5        10     1
         5        31     1
         5        33     1
         6         8     1
         6        11     1
         6        12     1
         6        13     1
         6        32     1
         7         9     1
         7        30     1
         8        31     1
         9        14     1
         9        34     1
        10        15     1
        10        17     1
        10        35     1
        11        14     1
        11        30     1
        11        34     1
        12        14     1
        12        30     1
        12        34     1
        13        16     1
        13        18     1
        13        19     1
        13        30     1
        13        36     1
        13        37     1
        14        20     1
        14        38     1
        14        39     1
        15        18     1
        15        20     1
        15        34     1
        16        18     1
        16        21     1
        16        22     1
        16        35     1
        16        40     1
        17        21     1
        17        22     1
        17        34     1
        17        36     1
        17        37     1
        17        38     1
        17        39     1
        17        40     1
        18        20     1
        18        35     1
        19        23     1
        19        24     1
        19        35     1
        19        36     1
        19        37     1
        19        41     1
        19        42     1
        19        43     1
        20        25     1
        20        29     1
        20        38     1
        20        39     1
        21        23     1
        21        24     1
        22        26     1
        22        28     1
        22        41     1
        22        42     1
        22        43     1
        22        44     1
        22        45     1
        22        50     1
        22        51     1
        23        25     1
        23        29     1
        23        40     1
        24        27     1
        24        40     1
        24        46     1
        24        47     1
        24        48     1
        24        49     1
        25        28     1
        25        50     1
        25        51     1
        26        29     1
        26        48     1
        26        49     1
        27        44     1
        27        45     1
        27        50     1
        27        51     1
        28        46     1
        28        47     1
        29        44     1
        29        45     1
        30        31     1
        32        33     1
        34        35     1
        35        36     1
        35        37     1
        36        38     1
        36        39     1
        37        38     1
        37        39     1
        40        41     1
        40        42     1
        40        43     1
        44        46     1
        44        47     1
        45        46     1
        45        47     1
        48        50     1
        48        51     1
        49        50     1
        49        51     1
