; ITP file created by ByteFF-joint-25, 2025-07-14 11:37:27.095939

[ atomtypes ]
;name           bonded.type        at.num        mass        charge   ptype           sigma         epsilon
 cl0bf                                 17      0.0000       0.00000       A     3.46619e-01     1.10433e+00    ;  uncertainty sigma = 0.000017, epsilon = 0.000825
 c1bf                                   6      0.0000       0.00000       A     3.31528e-01     4.13119e-01    ;  uncertainty sigma = 0.000005, epsilon = 0.000611
 c2bf                                   6      0.0000       0.00000       A     3.31520e-01     4.13436e-01    ;  uncertainty sigma = 0.000010, epsilon = 0.000704
 c3bf                                   6      0.0000       0.00000       A     3.31505e-01     4.13057e-01    ;  uncertainty sigma = 0.000012, epsilon = 0.000592
 c4bf                                   6      0.0000       0.00000       A     3.31533e-01     4.13164e-01    ;  uncertainty sigma = 0.000009, epsilon = 0.000879
 o5bf                                   8      0.0000       0.00000       A     3.15615e-01     3.00246e-01    ;  uncertainty sigma = 0.000044, epsilon = 0.001644
 c6bf                                   6      0.0000       0.00000       A     3.31528e-01     4.13301e-01    ;  uncertainty sigma = 0.000007, epsilon = 0.000770
 c7bf                                   6      0.0000       0.00000       A     3.31524e-01     4.13557e-01    ;  uncertainty sigma = 0.000006, epsilon = 0.000558
 c8bf                                   6      0.0000       0.00000       A     3.31536e-01     4.13825e-01    ;  uncertainty sigma = 0.000028, epsilon = 0.002033
 s9bf                                  16      0.0000       0.00000       A     4.05804e-01     2.57182e-01    ;  uncertainty sigma = 0.000028, epsilon = 0.001566
 o10bf                                  8      0.0000       0.00000       A     3.04888e-01     6.11835e-01    ;  uncertainty sigma = 0.000024, epsilon = 0.001333
 o11bf                                  8      0.0000       0.00000       A     3.04888e-01     6.11835e-01    ;  uncertainty sigma = 0.000024, epsilon = 0.001333
 n12bf                                  7      0.0000       0.00000       A     3.50696e-01     2.18381e-01    ;  uncertainty sigma = 0.000099, epsilon = 0.004116
 c13bf                                  6      0.0000       0.00000       A     3.39783e-01     4.51054e-01    ;  uncertainty sigma = 0.000012, epsilon = 0.001008
 c14bf                                  6      0.0000       0.00000       A     3.39783e-01     4.50616e-01    ;  uncertainty sigma = 0.000012, epsilon = 0.000870
 c15bf                                  6      0.0000       0.00000       A     3.39778e-01     4.51121e-01    ;  uncertainty sigma = 0.000011, epsilon = 0.000952
 c16bf                                  6      0.0000       0.00000       A     3.31503e-01     4.14103e-01    ;  uncertainty sigma = 0.000019, epsilon = 0.001327
 o17bf                                  8      0.0000       0.00000       A     3.04856e-01     6.12000e-01    ;  uncertainty sigma = 0.000014, epsilon = 0.001679
 n18bf                                  7      0.0000       0.00000       A     3.18104e-01     6.84089e-01    ;  uncertainty sigma = 0.000026, epsilon = 0.002216
 c19bf                                  6      0.0000       0.00000       A     3.39765e-01     4.50085e-01    ;  uncertainty sigma = 0.000013, epsilon = 0.000893
 c20bf                                  6      0.0000       0.00000       A     3.39757e-01     4.50850e-01    ;  uncertainty sigma = 0.000009, epsilon = 0.000447
 c21bf                                  6      0.0000       0.00000       A     3.31517e-01     4.12537e-01    ;  uncertainty sigma = 0.000018, epsilon = 0.001350
 o22bf                                  8      0.0000       0.00000       A     3.04822e-01     6.12836e-01    ;  uncertainty sigma = 0.000014, epsilon = 0.000674
 n23bf                                  7      0.0000       0.00000       A     3.18074e-01     6.83799e-01    ;  uncertainty sigma = 0.000019, epsilon = 0.001496
 c24bf                                  6      0.0000       0.00000       A     3.39785e-01     4.50976e-01    ;  uncertainty sigma = 0.000006, epsilon = 0.000726
 c25bf                                  6      0.0000       0.00000       A     3.39786e-01     4.50778e-01    ;  uncertainty sigma = 0.000006, epsilon = 0.000813
 o26bf                                  8      0.0000       0.00000       A     3.15603e-01     3.03473e-01    ;  uncertainty sigma = 0.000014, epsilon = 0.001064
 c27bf                                  6      0.0000       0.00000       A     3.39786e-01     4.50778e-01    ;  uncertainty sigma = 0.000006, epsilon = 0.000813
 c28bf                                  6      0.0000       0.00000       A     3.39785e-01     4.50976e-01    ;  uncertainty sigma = 0.000006, epsilon = 0.000726
 c29bf                                  6      0.0000       0.00000       A     3.31529e-01     4.13631e-01    ;  uncertainty sigma = 0.000022, epsilon = 0.001236
 h30bf                                  1      0.0000       0.00000       A     2.62564e-01     6.70013e-02    ;  uncertainty sigma = 0.000014, epsilon = 0.000590
 h31bf                                  1      0.0000       0.00000       A     2.62562e-01     6.70303e-02    ;  uncertainty sigma = 0.000008, epsilon = 0.000581
 h32bf                                  1      0.0000       0.00000       A     2.62553e-01     6.70964e-02    ;  uncertainty sigma = 0.000010, epsilon = 0.000694
 h33bf                                  1      0.0000       0.00000       A     1.10630e-01     4.09905e-02    ;  uncertainty sigma = 0.000093, epsilon = 0.002195
 h34bf                                  1      0.0000       0.00000       A     2.42030e-01     8.68574e-02    ;  uncertainty sigma = 0.000019, epsilon = 0.001232
 h35bf                                  1      0.0000       0.00000       A     2.60025e-01     8.63275e-02    ;  uncertainty sigma = 0.000013, epsilon = 0.000679
 h36bf                                  1      0.0000       0.00000       A     2.60025e-01     8.63275e-02    ;  uncertainty sigma = 0.000013, epsilon = 0.000679
 h37bf                                  1      0.0000       0.00000       A     2.42200e-01     8.64335e-02    ;  uncertainty sigma = 0.000011, epsilon = 0.000932
 h38bf                                  1      0.0000       0.00000       A     2.42200e-01     8.64335e-02    ;  uncertainty sigma = 0.000011, epsilon = 0.000932
 h39bf                                  1      0.0000       0.00000       A     2.42203e-01     8.69613e-02    ;  uncertainty sigma = 0.000061, epsilon = 0.001014
 h40bf                                  1      0.0000       0.00000       A     2.60028e-01     8.67689e-02    ;  uncertainty sigma = 0.000014, epsilon = 0.000406
 h41bf                                  1      0.0000       0.00000       A     2.60028e-01     8.67689e-02    ;  uncertainty sigma = 0.000014, epsilon = 0.000406
 h42bf                                  1      0.0000       0.00000       A     2.60028e-01     8.67689e-02    ;  uncertainty sigma = 0.000014, epsilon = 0.000406
 h43bf                                  1      0.0000       0.00000       A     2.42216e-01     8.67300e-02    ;  uncertainty sigma = 0.000014, epsilon = 0.000623
 h44bf                                  1      0.0000       0.00000       A     2.42216e-01     8.67300e-02    ;  uncertainty sigma = 0.000014, epsilon = 0.000623
 h45bf                                  1      0.0000       0.00000       A     2.42211e-01     8.67300e-02    ;  uncertainty sigma = 0.000015, epsilon = 0.000752
 h46bf                                  1      0.0000       0.00000       A     2.42211e-01     8.67300e-02    ;  uncertainty sigma = 0.000015, epsilon = 0.000752
 h47bf                                  1      0.0000       0.00000       A     2.42211e-01     8.67300e-02    ;  uncertainty sigma = 0.000015, epsilon = 0.000752
 h48bf                                  1      0.0000       0.00000       A     2.42211e-01     8.67300e-02    ;  uncertainty sigma = 0.000015, epsilon = 0.000752
 h49bf                                  1      0.0000       0.00000       A     2.42216e-01     8.67300e-02    ;  uncertainty sigma = 0.000014, epsilon = 0.000623
 h50bf                                  1      0.0000       0.00000       A     2.42216e-01     8.67300e-02    ;  uncertainty sigma = 0.000014, epsilon = 0.000623
 h51bf                                  1      0.0000       0.00000       A     2.62564e-01     6.67652e-02    ;  uncertainty sigma = 0.000034, epsilon = 0.000943

[ moleculetype ]
;name             nrexcl
 MOL                   3

[ atoms ]
;       nr            type      resi   res      atom      cgnr      charge          mass ; qtot
         1           cl0bf         1   UNL       cl0         1    -0.12133       35.4530 ; qtot   -0.121
         2            c1bf         1   UNL        c1         2     0.01517       12.0110 ; qtot   -0.106
         3            c2bf         1   UNL        c2         3    -0.05287       12.0110 ; qtot   -0.159
         4            c3bf         1   UNL        c3         4    -0.12472       12.0110 ; qtot   -0.284
         5            c4bf         1   UNL        c4         5     0.08987       12.0110 ; qtot   -0.194
         6            o5bf         1   UNL        o5         6    -0.13208       15.9990 ; qtot   -0.326
         7            c6bf         1   UNL        c6         7    -0.10619       12.0110 ; qtot   -0.432
         8            c7bf         1   UNL        c7         8    -0.09972       12.0110 ; qtot   -0.532
         9            c8bf         1   UNL        c8         9    -0.13832       12.0110 ; qtot   -0.670
        10            s9bf         1   UNL        s9        10     1.26269       32.0670 ; qtot    0.593
        11           o10bf         1   UNL       o10        11    -0.58395       15.9990 ; qtot    0.009
        12           o11bf         1   UNL       o11        12    -0.58395       15.9990 ; qtot   -0.575
        13           n12bf         1   UNL       n12        13    -0.77529       14.0070 ; qtot   -1.351
        14           c13bf         1   UNL       c13        14     0.13069       12.0110 ; qtot   -1.220
        15           c14bf         1   UNL       c14        15    -0.09689       12.0110 ; qtot   -1.317
        16           c15bf         1   UNL       c15        16     0.09835       12.0110 ; qtot   -1.219
        17           c16bf         1   UNL       c16        17     0.69386       12.0110 ; qtot   -0.525
        18           o17bf         1   UNL       o17        18    -0.62440       15.9990 ; qtot   -1.149
        19           n18bf         1   UNL       n18        19    -0.46819       14.0070 ; qtot   -1.617
        20           c19bf         1   UNL       c19        20     0.05357       12.0110 ; qtot   -1.564
        21           c20bf         1   UNL       c20        21    -0.09682       12.0110 ; qtot   -1.661
        22           c21bf         1   UNL       c21        22     0.65569       12.0110 ; qtot   -1.005
        23           o22bf         1   UNL       o22        23    -0.59852       15.9990 ; qtot   -1.603
        24           n23bf         1   UNL       n23        24    -0.48329       14.0070 ; qtot   -2.087
        25           c24bf         1   UNL       c24        25     0.06631       12.0110 ; qtot   -2.020
        26           c25bf         1   UNL       c25        26     0.11525       12.0110 ; qtot   -1.905
        27           o26bf         1   UNL       o26        27    -0.41112       15.9990 ; qtot   -2.316
        28           c27bf         1   UNL       c27        28     0.11525       12.0110 ; qtot   -2.201
        29           c28bf         1   UNL       c28        29     0.06631       12.0110 ; qtot   -2.135
        30           c29bf         1   UNL       c29        30    -0.02703       12.0110 ; qtot   -2.162
        31           h30bf         1   UNL       h30        31     0.15677        1.0080 ; qtot   -2.005
        32           h31bf         1   UNL       h31        32     0.15712        1.0080 ; qtot   -1.848
        33           h32bf         1   UNL       h32        33     0.15188        1.0080 ; qtot   -1.696
        34           h33bf         1   UNL       h33        34     0.43666        1.0080 ; qtot   -1.259
        35           h34bf         1   UNL       h34        35     0.09198        1.0080 ; qtot   -1.167
        36           h35bf         1   UNL       h35        36     0.07326        1.0080 ; qtot   -1.094
        37           h36bf         1   UNL       h36        37     0.07326        1.0080 ; qtot   -1.021
        38           h37bf         1   UNL       h37        38     0.05597        1.0080 ; qtot   -0.965
        39           h38bf         1   UNL       h38        39     0.05597        1.0080 ; qtot   -0.909
        40           h39bf         1   UNL       h39        40     0.08023        1.0080 ; qtot   -0.829
        41           h40bf         1   UNL       h40        41     0.05231        1.0080 ; qtot   -0.776
        42           h41bf         1   UNL       h41        42     0.05231        1.0080 ; qtot   -0.724
        43           h42bf         1   UNL       h42        43     0.05231        1.0080 ; qtot   -0.672
        44           h43bf         1   UNL       h43        44     0.06503        1.0080 ; qtot   -0.607
        45           h44bf         1   UNL       h44        45     0.06503        1.0080 ; qtot   -0.542
        46           h45bf         1   UNL       h45        46     0.05533        1.0080 ; qtot   -0.486
        47           h46bf         1   UNL       h46        47     0.05533        1.0080 ; qtot   -0.431
        48           h47bf         1   UNL       h47        48     0.05533        1.0080 ; qtot   -0.376
        49           h48bf         1   UNL       h48        49     0.05533        1.0080 ; qtot   -0.320
        50           h49bf         1   UNL       h49        50     0.06503        1.0080 ; qtot   -0.255
        51           h50bf         1   UNL       h50        51     0.06503        1.0080 ; qtot   -0.190
        52           h51bf         1   UNL       h51        52     0.19020        1.0080 ; qtot    0.000

[ bonds ]
;       ai        aj funct               r               k
         1         2     1        0.176043   195583.447290    ;  uncertainty r = 0.000040, k = 4.584997
         2         3     1        0.138922   358261.001221    ;  uncertainty r = 0.000052, k = 2.269371
         2         8     1        0.140869   343413.649219    ;  uncertainty r = 0.000040, k = 1.545831
         3         4     1        0.140266   362325.257715    ;  uncertainty r = 0.000066, k = 5.394774
         3        31     1        0.108706   335241.901904    ;  uncertainty r = 0.000018, k = 1.335487
         4         5     1        0.141023   369900.790137    ;  uncertainty r = 0.000060, k = 11.218478
         4        30     1        0.144465   288708.564258    ;  uncertainty r = 0.000115, k = 4.727216
         5         6     1        0.137701   306814.783398    ;  uncertainty r = 0.000168, k = 10.334568
         5         7     1        0.138878   365723.404248    ;  uncertainty r = 0.000035, k = 5.351419
         6         9     1        0.137409   262999.283691    ;  uncertainty r = 0.000256, k = 25.609014
         7         8     1        0.139306   378957.577051    ;  uncertainty r = 0.000053, k = 5.223428
         7        32     1        0.108743   336751.374902    ;  uncertainty r = 0.000012, k = 0.980422
         8        33     1        0.108665   335591.862451    ;  uncertainty r = 0.000020, k = 1.407540
         9        10     1        0.176768   188546.543579    ;  uncertainty r = 0.000105, k = 28.822721
         9        30     1        0.136035   410295.262061    ;  uncertainty r = 0.000094, k = 13.484624
        10        11     1        0.146671   504423.131934    ;  uncertainty r = 0.000073, k = 4.181890
        10        12     1        0.146671   504423.131934    ;  uncertainty r = 0.000073, k = 4.181890
        10        13     1        0.170196   156310.501367    ;  uncertainty r = 0.000521, k = 25.640619
        13        14     1        0.145840   327636.210156    ;  uncertainty r = 0.000236, k = 23.759638
        13        34     1        0.102521   451907.854102    ;  uncertainty r = 0.000077, k = 4.408696
        14        15     1        0.153638   217423.102441    ;  uncertainty r = 0.000063, k = 11.264919
        14        17     1        0.152888   205350.714893    ;  uncertainty r = 0.000204, k = 16.716688
        14        35     1        0.109643   310666.596680    ;  uncertainty r = 0.000042, k = 2.363269
        15        16     1        0.154051   219214.019922    ;  uncertainty r = 0.000061, k = 4.273335
        15        36     1        0.109299   310844.386035    ;  uncertainty r = 0.000017, k = 1.748840
        15        37     1        0.109299   310844.386035    ;  uncertainty r = 0.000017, k = 1.748840
        16        19     1        0.146768   246650.400732    ;  uncertainty r = 0.000221, k = 12.930896
        16        38     1        0.109541   305996.165820    ;  uncertainty r = 0.000033, k = 2.444509
        16        39     1        0.109541   305996.165820    ;  uncertainty r = 0.000033, k = 2.444509
        17        18     1        0.123417   694917.965430    ;  uncertainty r = 0.000090, k = 12.430423
        17        19     1        0.136349   286304.756152    ;  uncertainty r = 0.000078, k = 23.105244
        19        20     1        0.145555   281517.671777    ;  uncertainty r = 0.000222, k = 19.681971
        20        21     1        0.153460   212444.030078    ;  uncertainty r = 0.000030, k = 6.319440
        20        22     1        0.154403   218642.780322    ;  uncertainty r = 0.000018, k = 16.462715
        20        40     1        0.109460   310823.190234    ;  uncertainty r = 0.000049, k = 2.513796
        21        41     1        0.109409   312861.000488    ;  uncertainty r = 0.000017, k = 1.141259
        21        42     1        0.109409   312861.000488    ;  uncertainty r = 0.000017, k = 1.141259
        21        43     1        0.109409   312861.000488    ;  uncertainty r = 0.000017, k = 1.141259
        22        23     1        0.123332   703381.882813    ;  uncertainty r = 0.000097, k = 9.602494
        22        24     1        0.136706   308486.621338    ;  uncertainty r = 0.000033, k = 12.395068
        24        25     1        0.146392   254501.759473    ;  uncertainty r = 0.000091, k = 8.526718
        24        29     1        0.146392   254501.759473    ;  uncertainty r = 0.000091, k = 8.526718
        25        26     1        0.152681   207263.227319    ;  uncertainty r = 0.000025, k = 4.718310
        25        44     1        0.109477   308256.276611    ;  uncertainty r = 0.000021, k = 2.245969
        25        45     1        0.109477   308256.276611    ;  uncertainty r = 0.000021, k = 2.245969
        26        27     1        0.142361   276005.563330    ;  uncertainty r = 0.000033, k = 2.914980
        26        46     1        0.109826   309629.075000    ;  uncertainty r = 0.000019, k = 1.877640
        26        47     1        0.109826   309629.075000    ;  uncertainty r = 0.000019, k = 1.877640
        27        28     1        0.142361   276005.563330    ;  uncertainty r = 0.000033, k = 2.914980
        28        29     1        0.152681   207263.227319    ;  uncertainty r = 0.000025, k = 4.718310
        28        48     1        0.109826   309629.075000    ;  uncertainty r = 0.000019, k = 1.877640
        28        49     1        0.109826   309629.075000    ;  uncertainty r = 0.000019, k = 1.877640
        29        50     1        0.109477   308256.251074    ;  uncertainty r = 0.000021, k = 2.245982
        29        51     1        0.109477   308256.276611    ;  uncertainty r = 0.000021, k = 2.245969
        30        52     1        0.108134   338126.165186    ;  uncertainty r = 0.000050, k = 2.278433

[ angles ]
;       ai        aj        ak funct           theta             cth
         1         2         3     1      120.243126      439.270107    ;  uncertainty theta = 0.001749, k = 0.072041
         1         2         8     1      119.356163      454.951105    ;  uncertainty theta = 0.001655, k = 0.093014
         2         3         4     1      116.544434      517.368142    ;  uncertainty theta = 0.003495, k = 0.099325
         2         3        31     1      121.313744      288.975472    ;  uncertainty theta = 0.002632, k = 0.096530
         2         8         7     1      121.462364      509.560937    ;  uncertainty theta = 0.001829, k = 0.101716
         2         8        33     1      120.139542      286.812606    ;  uncertainty theta = 0.001832, k = 0.062531
         3         2         8     1      123.707031      388.416976    ;  uncertainty theta = 0.003228, k = 0.039408
         3         4         5     1      116.772743      396.908543    ;  uncertainty theta = 0.003366, k = 0.130919
         3         4        30     1      132.860794      373.907812    ;  uncertainty theta = 0.002854, k = 0.139424
         4         3        31     1      121.880249      291.951662    ;  uncertainty theta = 0.003201, k = 0.079432
         4         5         6     1      111.049393      680.751790    ;  uncertainty theta = 0.004273, k = 0.145185
         4         5         7     1      121.899796      358.401615    ;  uncertainty theta = 0.002477, k = 0.193676
         4        30         9     1      104.927124      797.953715    ;  uncertainty theta = 0.002477, k = 0.133804
         4        30        52     1      126.549377      248.878763    ;  uncertainty theta = 0.005630, k = 0.034043
         5         4        30     1      105.415359      670.798830    ;  uncertainty theta = 0.002609, k = 0.123707
         5         6         9     1      106.800171      999.582345    ;  uncertainty theta = 0.005154, k = 0.112000
         5         7         8     1      116.166336      512.139259    ;  uncertainty theta = 0.002222, k = 0.130493
         5         7        32     1      122.731369      290.885137    ;  uncertainty theta = 0.003197, k = 0.031989
         6         5         7     1      124.544327      430.457442    ;  uncertainty theta = 0.002943, k = 0.137132
         6         9        10     1      110.645164      349.698696    ;  uncertainty theta = 0.007590, k = 0.360208
         6         9        30     1      114.992386      607.866454    ;  uncertainty theta = 0.006601, k = 0.251626
         7         8        33     1      120.222412      281.677094    ;  uncertainty theta = 0.002264, k = 0.055946
         8         7        32     1      121.256897      276.351744    ;  uncertainty theta = 0.001739, k = 0.037464
         9        10        11     1      111.964844      539.594652    ;  uncertainty theta = 0.006251, k = 0.127658
         9        10        12     1      111.964844      539.594652    ;  uncertainty theta = 0.006251, k = 0.127658
         9        10        13     1      103.100670      640.798663    ;  uncertainty theta = 0.005952, k = 0.283067
         9        30        52     1      124.619240      235.426196    ;  uncertainty theta = 0.004991, k = 0.179962
        10         9        30     1      125.673912      262.363106    ;  uncertainty theta = 0.008805, k = 0.445556
        10        13        14     1      110.290054      422.189579    ;  uncertainty theta = 0.007368, k = 0.149027
        10        13        34     1      111.334496      441.027858    ;  uncertainty theta = 0.004233, k = 0.131286
        11        10        12     1      125.551392      795.754843    ;  uncertainty theta = 0.003347, k = 0.063754
        11        10        13     1      114.335709      822.537014    ;  uncertainty theta = 0.003023, k = 0.063617
        12        10        13     1      114.335709      822.537014    ;  uncertainty theta = 0.003023, k = 0.063617
        13        14        15     1      110.737343      580.238749    ;  uncertainty theta = 0.002456, k = 0.227699
        13        14        17     1      103.338394      506.561060    ;  uncertainty theta = 0.005490, k = 0.108805
        13        14        35     1      105.939819      410.756584    ;  uncertainty theta = 0.005437, k = 0.162144
        14        13        34     1      110.567345      394.715448    ;  uncertainty theta = 0.003906, k = 0.185161
        14        15        16     1      105.080711      704.659951    ;  uncertainty theta = 0.002528, k = 0.166433
        14        15        36     1      108.404762      386.634645    ;  uncertainty theta = 0.000496, k = 0.061888
        14        15        37     1      108.404762      386.634645    ;  uncertainty theta = 0.000496, k = 0.061888
        14        17        18     1      125.974953      461.344320    ;  uncertainty theta = 0.003008, k = 0.150863
        14        17        19     1      111.580551      487.723452    ;  uncertainty theta = 0.004434, k = 0.112665
        15        14        17     1      105.879440      714.704654    ;  uncertainty theta = 0.003411, k = 0.114954
        15        14        35     1      109.316452      381.980188    ;  uncertainty theta = 0.004245, k = 0.168586
        15        16        19     1      104.783669      782.725809    ;  uncertainty theta = 0.002755, k = 0.099545
        15        16        38     1      110.273422      402.520132    ;  uncertainty theta = 0.001363, k = 0.041871
        15        16        39     1      110.273422      402.520132    ;  uncertainty theta = 0.001363, k = 0.041871
        16        15        36     1      109.696510      408.338730    ;  uncertainty theta = 0.001401, k = 0.098939
        16        15        37     1      109.696510      408.338730    ;  uncertainty theta = 0.001401, k = 0.098939
        16        19        17     1      113.800400      558.185412    ;  uncertainty theta = 0.004051, k = 0.196713
        16        19        20     1      116.627670      418.914317    ;  uncertainty theta = 0.004736, k = 0.139254
        17        14        35     1      108.409386      374.080411    ;  uncertainty theta = 0.002074, k = 0.147848
        17        19        20     1      115.859238      394.898134    ;  uncertainty theta = 0.005834, k = 0.223208
        18        17        19     1      126.441208      689.779605    ;  uncertainty theta = 0.003327, k = 0.081511
        19        16        38     1      108.898422      451.460182    ;  uncertainty theta = 0.000848, k = 0.056988
        19        16        39     1      108.898422      451.460182    ;  uncertainty theta = 0.000848, k = 0.056988
        19        20        21     1      110.632401      680.881263    ;  uncertainty theta = 0.005659, k = 0.187610
        19        20        22     1      106.307907      510.576611    ;  uncertainty theta = 0.004206, k = 0.177546
        19        20        40     1      104.193527      439.162245    ;  uncertainty theta = 0.004577, k = 0.070621
        20        21        41     1      107.700577      390.638257    ;  uncertainty theta = 0.001974, k = 0.049172
        20        21        42     1      107.700577      390.638257    ;  uncertainty theta = 0.001974, k = 0.049172
        20        21        43     1      107.700577      390.638257    ;  uncertainty theta = 0.001974, k = 0.049172
        20        22        23     1      123.488663      491.647772    ;  uncertainty theta = 0.006202, k = 0.099047
        20        22        24     1      112.431114      386.828280    ;  uncertainty theta = 0.005821, k = 0.248360
        21        20        22     1      107.996933      498.807419    ;  uncertainty theta = 0.002482, k = 0.128252
        21        20        40     1      108.264465      418.620896    ;  uncertainty theta = 0.003532, k = 0.103854
        22        20        40     1      108.421043      367.404340    ;  uncertainty theta = 0.006220, k = 0.162230
        22        24        25     1      116.829430      363.497960    ;  uncertainty theta = 0.002063, k = 0.124181
        22        24        29     1      116.829430      363.497960    ;  uncertainty theta = 0.002063, k = 0.124181
        23        22        24     1      124.422546      748.757049    ;  uncertainty theta = 0.002982, k = 0.183298
        24        25        26     1      110.182350      714.010875    ;  uncertainty theta = 0.000722, k = 0.109108
        24        25        44     1      108.304482      458.396540    ;  uncertainty theta = 0.000957, k = 0.042005
        24        25        45     1      108.304482      458.396540    ;  uncertainty theta = 0.000957, k = 0.042005
        24        29        28     1      110.182350      714.010875    ;  uncertainty theta = 0.000722, k = 0.109108
        24        29        50     1      108.304482      458.396540    ;  uncertainty theta = 0.000957, k = 0.042005
        24        29        51     1      108.304482      458.396540    ;  uncertainty theta = 0.000957, k = 0.042005
        25        24        29     1      115.684769      415.199370    ;  uncertainty theta = 0.005388, k = 0.132019
        25        26        27     1      111.287369      644.552363    ;  uncertainty theta = 0.002689, k = 0.032587
        25        26        46     1      109.515793      404.665536    ;  uncertainty theta = 0.000894, k = 0.016388
        25        26        47     1      109.515793      404.665536    ;  uncertainty theta = 0.000894, k = 0.016388
        26        25        44     1      109.080734      409.167122    ;  uncertainty theta = 0.000740, k = 0.033495
        26        25        45     1      109.080734      409.167122    ;  uncertainty theta = 0.000740, k = 0.033495
        26        27        28     1      110.179764      541.020197    ;  uncertainty theta = 0.002124, k = 0.077936
        27        26        46     1      107.084984      465.302572    ;  uncertainty theta = 0.000967, k = 0.023146
        27        26        47     1      107.084984      465.302572    ;  uncertainty theta = 0.000967, k = 0.023146
        27        28        29     1      111.287369      644.552363    ;  uncertainty theta = 0.002689, k = 0.032587
        27        28        48     1      107.084984      465.302572    ;  uncertainty theta = 0.000967, k = 0.023146
        27        28        49     1      107.084984      465.302572    ;  uncertainty theta = 0.000967, k = 0.023146
        28        29        50     1      109.080734      409.167122    ;  uncertainty theta = 0.000740, k = 0.033495
        28        29        51     1      109.080734      409.167122    ;  uncertainty theta = 0.000740, k = 0.033495
        29        28        48     1      109.515793      404.665536    ;  uncertainty theta = 0.000894, k = 0.016388
        29        28        49     1      109.515793      404.665536    ;  uncertainty theta = 0.000894, k = 0.016388
        36        15        37     1      106.440086      304.816109    ;  uncertainty theta = 0.003856, k = 0.068106
        38        16        39     1      105.856216      304.101580    ;  uncertainty theta = 0.002097, k = 0.072369
        41        21        42     1      105.685402      315.694087    ;  uncertainty theta = 0.001842, k = 0.014287
        41        21        43     1      105.685402      315.694087    ;  uncertainty theta = 0.001842, k = 0.014287
        42        21        43     1      105.685410      315.694087    ;  uncertainty theta = 0.001842, k = 0.014287
        44        25        45     1      105.962692      319.495222    ;  uncertainty theta = 0.000795, k = 0.039018
        46        26        47     1      107.529320      317.902537    ;  uncertainty theta = 0.001237, k = 0.038568
        48        28        49     1      107.529320      317.902537    ;  uncertainty theta = 0.001237, k = 0.038568
        50        29        51     1      105.962692      319.495222    ;  uncertainty theta = 0.000795, k = 0.039019

[ dihedrals ] ; propers for gromacs 4.5 or higher, use funct 9
;       ai        aj        ak        al funct           phase               k        pn
         1         2         3         4     9        0.000000       -0.072801         1    ;  uncertainty k = 0.198214
         1         2         3         4     9      180.000000       12.812208         2    ;  uncertainty k = 0.424540
         1         2         3         4     9        0.000000        1.625237         3    ;  uncertainty k = 0.260446
         1         2         3         4     9      180.000000        1.437181         4    ;  uncertainty k = 0.256028
         1         2         3        31     9        0.000000       -0.282597         1    ;  uncertainty k = 0.351137
         1         2         3        31     9      180.000000        8.375535         2    ;  uncertainty k = 0.464761
         1         2         3        31     9        0.000000        0.765235         3    ;  uncertainty k = 0.245090
         1         2         3        31     9      180.000000        1.022712         4    ;  uncertainty k = 0.269608
         1         2         8         7     9        0.000000        0.154978         1    ;  uncertainty k = 0.116786
         1         2         8         7     9      180.000000        8.841589         2    ;  uncertainty k = 0.679001
         1         2         8         7     9        0.000000        1.544356         3    ;  uncertainty k = 0.460628
         1         2         8         7     9      180.000000        1.620871         4    ;  uncertainty k = 0.222589
         1         2         8        33     9        0.000000       -0.020952         1    ;  uncertainty k = 0.143205
         1         2         8        33     9      180.000000        7.197559         2    ;  uncertainty k = 0.306866
         1         2         8        33     9        0.000000        0.665921         3    ;  uncertainty k = 0.321647
         1         2         8        33     9      180.000000        0.928099         4    ;  uncertainty k = 0.168200
         2         3         4         5     9        0.000000        0.119576         1    ;  uncertainty k = 0.278978
         2         3         4         5     9      180.000000       13.770961         2    ;  uncertainty k = 0.127471
         2         3         4         5     9        0.000000       -1.943214         3    ;  uncertainty k = 0.535265
         2         3         4         5     9      180.000000        0.708515         4    ;  uncertainty k = 0.207332
         2         3         4        30     9        0.000000        0.076726         1    ;  uncertainty k = 0.465946
         2         3         4        30     9      180.000000        8.719839         2    ;  uncertainty k = 0.300591
         2         3         4        30     9        0.000000        0.812427         3    ;  uncertainty k = 0.208288
         2         3         4        30     9      180.000000        1.321008         4    ;  uncertainty k = 0.200640
         2         8         7         5     9        0.000000        0.060704         1    ;  uncertainty k = 0.235367
         2         8         7         5     9      180.000000       15.652336         2    ;  uncertainty k = 0.243592
         2         8         7         5     9        0.000000       -0.489578         3    ;  uncertainty k = 0.489180
         2         8         7         5     9      180.000000        0.848837         4    ;  uncertainty k = 0.372558
         2         8         7        32     9        0.000000        0.121323         1    ;  uncertainty k = 0.189954
         2         8         7        32     9      180.000000        8.398008         2    ;  uncertainty k = 0.375176
         2         8         7        32     9        0.000000        1.613186         3    ;  uncertainty k = 0.291911
         2         8         7        32     9      180.000000        1.917479         4    ;  uncertainty k = 0.283585
         3         2         8         7     9        0.000000       -0.021089         1    ;  uncertainty k = 0.257248
         3         2         8         7     9      180.000000        8.810125         2    ;  uncertainty k = 0.512191
         3         2         8         7     9        0.000000       -0.052112         3    ;  uncertainty k = 0.519064
         3         2         8         7     9      180.000000        1.164204         4    ;  uncertainty k = 0.328561
         3         2         8        33     9        0.000000       -0.116550         1    ;  uncertainty k = 0.136879
         3         2         8        33     9      180.000000        5.596888         2    ;  uncertainty k = 0.563199
         3         2         8        33     9        0.000000        1.309470         3    ;  uncertainty k = 0.272168
         3         2         8        33     9      180.000000        1.424293         4    ;  uncertainty k = 0.174704
         3         4         5         6     9        0.000000        0.197389         1    ;  uncertainty k = 0.173601
         3         4         5         6     9      180.000000        9.534580         2    ;  uncertainty k = 0.181697
         3         4         5         6     9        0.000000        0.104911         3    ;  uncertainty k = 0.426689
         3         4         5         6     9      180.000000        1.317225         4    ;  uncertainty k = 0.421533
         3         4         5         7     9        0.000000       -0.710470         1    ;  uncertainty k = 0.777331
         3         4         5         7     9      180.000000        7.615726         2    ;  uncertainty k = 0.765685
         3         4         5         7     9        0.000000       -0.193299         3    ;  uncertainty k = 0.290585
         3         4         5         7     9      180.000000        1.046817         4    ;  uncertainty k = 0.320631
         3         4        30         9     9        0.000000       -0.129908         1    ;  uncertainty k = 1.017396
         3         4        30         9     9      180.000000        6.320526         2    ;  uncertainty k = 0.769030
         3         4        30         9     9        0.000000        0.561505         3    ;  uncertainty k = 0.294219
         3         4        30         9     9      180.000000        0.691280         4    ;  uncertainty k = 0.251562
         3         4        30        52     9        0.000000        0.468480         1    ;  uncertainty k = 0.827138
         3         4        30        52     9      180.000000        4.197844         2    ;  uncertainty k = 0.803817
         3         4        30        52     9        0.000000        1.409564         3    ;  uncertainty k = 0.253925
         3         4        30        52     9      180.000000        0.117401         4    ;  uncertainty k = 0.131544
         4         3         2         8     9        0.000000        0.069241         1    ;  uncertainty k = 0.346041
         4         3         2         8     9      180.000000       11.665348         2    ;  uncertainty k = 0.500115
         4         3         2         8     9        0.000000        0.242277         3    ;  uncertainty k = 0.535651
         4         3         2         8     9      180.000000        1.119044         4    ;  uncertainty k = 0.473459
         4         5         6         9     9        0.000000       -0.022403         1    ;  uncertainty k = 0.997465
         4         5         6         9     9      180.000000       14.354671         2    ;  uncertainty k = 0.481961
         4         5         6         9     9        0.000000       -5.456770         3    ;  uncertainty k = 1.351143
         4         5         6         9     9      180.000000        0.869772         4    ;  uncertainty k = 0.513479
         4         5         7         8     9        0.000000        0.110825         1    ;  uncertainty k = 0.262257
         4         5         7         8     9      180.000000       12.098739         2    ;  uncertainty k = 0.264692
         4         5         7         8     9        0.000000       -1.267223         3    ;  uncertainty k = 0.244423
         4         5         7         8     9      180.000000        0.815093         4    ;  uncertainty k = 0.254443
         4         5         7        32     9        0.000000        0.181204         1    ;  uncertainty k = 0.205367
         4         5         7        32     9      180.000000        6.411627         2    ;  uncertainty k = 0.747699
         4         5         7        32     9        0.000000        1.363410         3    ;  uncertainty k = 0.213920
         4         5         7        32     9      180.000000        1.347081         4    ;  uncertainty k = 0.273489
         4        30         9         6     9        0.000000       -0.501018         1    ;  uncertainty k = 0.412352
         4        30         9         6     9      180.000000       21.715742         2    ;  uncertainty k = 0.491003
         4        30         9         6     9        0.000000       -4.818487         3    ;  uncertainty k = 0.539121
         4        30         9         6     9      180.000000        1.295575         4    ;  uncertainty k = 0.704052
         4        30         9        10     9        0.000000        1.030672         1    ;  uncertainty k = 1.128098
         4        30         9        10     9      180.000000       12.799644         2    ;  uncertainty k = 0.256477
         4        30         9        10     9        0.000000        2.407992         3    ;  uncertainty k = 0.412455
         4        30         9        10     9      180.000000        0.573515         4    ;  uncertainty k = 0.406302
         5         4         3        31     9        0.000000       -0.047614         1    ;  uncertainty k = 0.441538
         5         4         3        31     9      180.000000        7.479364         2    ;  uncertainty k = 0.882816
         5         4         3        31     9        0.000000        1.364958         3    ;  uncertainty k = 0.233458
         5         4         3        31     9      180.000000        1.251489         4    ;  uncertainty k = 0.318595
         5         4        30         9     9        0.000000        0.616375         1    ;  uncertainty k = 1.428793
         5         4        30         9     9      180.000000       13.574094         2    ;  uncertainty k = 0.821839
         5         4        30         9     9        0.000000       -9.537598         3    ;  uncertainty k = 1.930772
         5         4        30         9     9      180.000000        1.628449         4    ;  uncertainty k = 0.573568
         5         4        30        52     9        0.000000       -0.193916         1    ;  uncertainty k = 1.290574
         5         4        30        52     9      180.000000        8.735142         2    ;  uncertainty k = 1.102414
         5         4        30        52     9        0.000000        0.920239         3    ;  uncertainty k = 0.710099
         5         4        30        52     9      180.000000        0.221028         4    ;  uncertainty k = 0.145976
         5         6         9        10     9        0.000000        0.390055         1    ;  uncertainty k = 0.530282
         5         6         9        10     9      180.000000        2.968585         2    ;  uncertainty k = 1.203537
         5         6         9        10     9        0.000000        1.600075         3    ;  uncertainty k = 0.289307
         5         6         9        10     9      180.000000        0.255894         4    ;  uncertainty k = 0.305739
         5         6         9        30     9        0.000000       -0.622479         1    ;  uncertainty k = 0.691377
         5         6         9        30     9      180.000000       13.893129         2    ;  uncertainty k = 0.594576
         5         6         9        30     9        0.000000       -5.053040         3    ;  uncertainty k = 1.462003
         5         6         9        30     9      180.000000        1.109490         4    ;  uncertainty k = 0.411657
         5         7         8        33     9        0.000000       -0.086408         1    ;  uncertainty k = 0.191374
         5         7         8        33     9      180.000000       10.604900         2    ;  uncertainty k = 0.425136
         5         7         8        33     9        0.000000        1.389225         3    ;  uncertainty k = 0.318637
         5         7         8        33     9      180.000000        1.648465         4    ;  uncertainty k = 0.265672
         6         5         4        30     9        0.000000       -0.297679         1    ;  uncertainty k = 0.501481
         6         5         4        30     9      180.000000       13.990780         2    ;  uncertainty k = 0.882443
         6         5         4        30     9        0.000000       -3.200352         3    ;  uncertainty k = 0.898249
         6         5         4        30     9      180.000000        1.475225         4    ;  uncertainty k = 0.791519
         6         5         7         8     9        0.000000        0.598309         1    ;  uncertainty k = 0.649941
         6         5         7         8     9      180.000000       10.051213         2    ;  uncertainty k = 0.442154
         6         5         7         8     9        0.000000        1.368861         3    ;  uncertainty k = 0.199134
         6         5         7         8     9      180.000000        1.535357         4    ;  uncertainty k = 0.301190
         6         5         7        32     9        0.000000        0.321215         1    ;  uncertainty k = 0.135356
         6         5         7        32     9      180.000000        6.602484         2    ;  uncertainty k = 0.303657
         6         5         7        32     9        0.000000        1.117362         3    ;  uncertainty k = 0.447844
         6         5         7        32     9      180.000000        0.913361         4    ;  uncertainty k = 0.410280
         6         9        10        11     9        0.000000        1.144463         1    ;  uncertainty k = 2.860429
         6         9        10        11     9      180.000000        0.705636         2    ;  uncertainty k = 0.213062
         6         9        10        11     9        0.000000        0.940828         3    ;  uncertainty k = 0.236681
         6         9        10        11     9      180.000000        0.164029         4    ;  uncertainty k = 0.138734
         6         9        10        12     9        0.000000        1.144463         1    ;  uncertainty k = 2.860429
         6         9        10        12     9      180.000000        0.705636         2    ;  uncertainty k = 0.213062
         6         9        10        12     9        0.000000        0.940828         3    ;  uncertainty k = 0.236681
         6         9        10        12     9      180.000000        0.164029         4    ;  uncertainty k = 0.138734
         6         9        10        13     9        0.000000        3.612879         1    ;  uncertainty k = 2.051270
         6         9        10        13     9      180.000000       -0.196703         2    ;  uncertainty k = 0.517811
         6         9        10        13     9        0.000000        1.004001         3    ;  uncertainty k = 0.612674
         6         9        10        13     9      180.000000       -0.165574         4    ;  uncertainty k = 0.128628
         6         9        30        52     9        0.000000        0.487800         1    ;  uncertainty k = 0.607436
         6         9        30        52     9      180.000000       15.168822         2    ;  uncertainty k = 0.258097
         6         9        30        52     9        0.000000        1.722214         3    ;  uncertainty k = 0.705760
         6         9        30        52     9      180.000000        1.084603         4    ;  uncertainty k = 0.173147
         7         5         4        30     9        0.000000       -0.265309         1    ;  uncertainty k = 0.377924
         7         5         4        30     9      180.000000        7.645325         2    ;  uncertainty k = 0.433434
         7         5         4        30     9        0.000000        0.165352         3    ;  uncertainty k = 0.506101
         7         5         4        30     9      180.000000        1.261393         4    ;  uncertainty k = 0.256380
         7         5         6         9     9        0.000000        0.783875         1    ;  uncertainty k = 1.730057
         7         5         6         9     9      180.000000        6.339416         2    ;  uncertainty k = 0.280967
         7         5         6         9     9        0.000000        0.973224         3    ;  uncertainty k = 0.430234
         7         5         6         9     9      180.000000        0.391340         4    ;  uncertainty k = 0.319469
         8         2         3        31     9        0.000000        0.065121         1    ;  uncertainty k = 0.249283
         8         2         3        31     9      180.000000        6.918498         2    ;  uncertainty k = 0.567169
         8         2         3        31     9        0.000000        1.532052         3    ;  uncertainty k = 0.298157
         8         2         3        31     9      180.000000        1.638570         4    ;  uncertainty k = 0.137471
         9        10        13        14     9        0.000000       -4.516812         1    ;  uncertainty k = 1.970485
         9        10        13        14     9      180.000000       -4.488756         2    ;  uncertainty k = 0.469611
         9        10        13        14     9        0.000000        2.081824         3    ;  uncertainty k = 0.751817
         9        10        13        14     9      180.000000       -0.008179         4    ;  uncertainty k = 0.345207
         9        10        13        34     9        0.000000        3.206526         1    ;  uncertainty k = 1.617723
         9        10        13        34     9      180.000000       -5.638395         2    ;  uncertainty k = 1.110496
         9        10        13        34     9        0.000000       -0.977641         3    ;  uncertainty k = 0.771126
         9        10        13        34     9      180.000000       -0.138945         4    ;  uncertainty k = 0.258311
        10         9        30        52     9        0.000000        0.034676         1    ;  uncertainty k = 0.862697
        10         9        30        52     9      180.000000        6.355301         2    ;  uncertainty k = 0.663279
        10         9        30        52     9        0.000000        1.710306         3    ;  uncertainty k = 0.241048
        10         9        30        52     9      180.000000        0.460155         4    ;  uncertainty k = 0.259271
        10        13        14        15     9        0.000000       -3.246742         1    ;  uncertainty k = 1.541471
        10        13        14        15     9      180.000000       -1.463918         2    ;  uncertainty k = 0.893208
        10        13        14        15     9        0.000000        0.532937         3    ;  uncertainty k = 0.245251
        10        13        14        15     9      180.000000        0.004640         4    ;  uncertainty k = 0.169377
        10        13        14        17     9        0.000000        3.474419         1    ;  uncertainty k = 1.557430
        10        13        14        17     9      180.000000       -3.442525         2    ;  uncertainty k = 0.860827
        10        13        14        17     9        0.000000       -0.083173         3    ;  uncertainty k = 0.131202
        10        13        14        17     9      180.000000        0.209630         4    ;  uncertainty k = 0.192242
        10        13        14        35     9        0.000000        2.607194         1    ;  uncertainty k = 1.679864
        10        13        14        35     9      180.000000       -3.156701         2    ;  uncertainty k = 1.184162
        10        13        14        35     9        0.000000        0.291757         3    ;  uncertainty k = 0.358016
        10        13        14        35     9      180.000000        0.054579         4    ;  uncertainty k = 0.087281
        11        10         9        30     9        0.000000       -0.113964         1    ;  uncertainty k = 1.903915
        11        10         9        30     9      180.000000        0.772755         2    ;  uncertainty k = 0.547846
        11        10         9        30     9        0.000000        0.163978         3    ;  uncertainty k = 0.082561
        11        10         9        30     9      180.000000        0.096017         4    ;  uncertainty k = 0.234692
        11        10        13        14     9        0.000000        1.436856         1    ;  uncertainty k = 1.398171
        11        10        13        14     9      180.000000        2.445283         2    ;  uncertainty k = 1.006758
        11        10        13        14     9        0.000000        1.486447         3    ;  uncertainty k = 0.508929
        11        10        13        14     9      180.000000       -0.302850         4    ;  uncertainty k = 0.344703
        11        10        13        34     9        0.000000        7.984567         1    ;  uncertainty k = 0.791122
        11        10        13        34     9      180.000000        0.757858         2    ;  uncertainty k = 0.979774
        11        10        13        34     9        0.000000       -0.586903         3    ;  uncertainty k = 0.243988
        11        10        13        34     9      180.000000       -0.145699         4    ;  uncertainty k = 0.212897
        12        10         9        30     9        0.000000       -0.113964         1    ;  uncertainty k = 1.903915
        12        10         9        30     9      180.000000        0.772755         2    ;  uncertainty k = 0.547846
        12        10         9        30     9        0.000000        0.163978         3    ;  uncertainty k = 0.082561
        12        10         9        30     9      180.000000        0.096017         4    ;  uncertainty k = 0.234692
        12        10        13        14     9        0.000000        1.436856         1    ;  uncertainty k = 1.398171
        12        10        13        14     9      180.000000        2.445283         2    ;  uncertainty k = 1.006758
        12        10        13        14     9        0.000000        1.486447         3    ;  uncertainty k = 0.508929
        12        10        13        14     9      180.000000       -0.302850         4    ;  uncertainty k = 0.344703
        12        10        13        34     9        0.000000        7.984567         1    ;  uncertainty k = 0.791122
        12        10        13        34     9      180.000000        0.757858         2    ;  uncertainty k = 0.979774
        12        10        13        34     9        0.000000       -0.586903         3    ;  uncertainty k = 0.243988
        12        10        13        34     9      180.000000       -0.145699         4    ;  uncertainty k = 0.212897
        13        10         9        30     9        0.000000        1.160866         1    ;  uncertainty k = 1.020039
        13        10         9        30     9      180.000000        0.973214         2    ;  uncertainty k = 0.527989
        13        10         9        30     9        0.000000       -0.182356         3    ;  uncertainty k = 0.349177
        13        10         9        30     9      180.000000       -0.038152         4    ;  uncertainty k = 0.181587
        13        14        15        16     9        0.000000       -2.759626         1    ;  uncertainty k = 2.015477
        13        14        15        16     9      180.000000        0.091805         2    ;  uncertainty k = 0.479543
        13        14        15        16     9        0.000000        1.184984         3    ;  uncertainty k = 0.351527
        13        14        15        16     9      180.000000       -0.060203         4    ;  uncertainty k = 0.104185
        13        14        15        36     9        0.000000       -0.055760         1    ;  uncertainty k = 0.440229
        13        14        15        36     9      180.000000       -0.116538         2    ;  uncertainty k = 0.245863
        13        14        15        36     9        0.000000        1.213441         3    ;  uncertainty k = 0.208762
        13        14        15        36     9      180.000000        0.028170         4    ;  uncertainty k = 0.161052
        13        14        15        37     9        0.000000       -0.055760         1    ;  uncertainty k = 0.440229
        13        14        15        37     9      180.000000       -0.116538         2    ;  uncertainty k = 0.245863
        13        14        15        37     9        0.000000        1.213441         3    ;  uncertainty k = 0.208762
        13        14        15        37     9      180.000000        0.028170         4    ;  uncertainty k = 0.161052
        13        14        17        18     9        0.000000        0.904180         1    ;  uncertainty k = 1.307518
        13        14        17        18     9      180.000000        5.305142         2    ;  uncertainty k = 0.706473
        13        14        17        18     9        0.000000        0.604077         3    ;  uncertainty k = 0.365826
        13        14        17        18     9      180.000000        0.234753         4    ;  uncertainty k = 0.197670
        13        14        17        19     9        0.000000       -0.885952         1    ;  uncertainty k = 1.095142
        13        14        17        19     9      180.000000        3.478728         2    ;  uncertainty k = 0.714575
        13        14        17        19     9        0.000000        1.144090         3    ;  uncertainty k = 0.341217
        13        14        17        19     9      180.000000        0.413609         4    ;  uncertainty k = 0.198880
        14        15        16        19     9        0.000000       -0.891177         1    ;  uncertainty k = 0.827669
        14        15        16        19     9      180.000000        2.797533         2    ;  uncertainty k = 1.025952
        14        15        16        19     9        0.000000        0.577105         3    ;  uncertainty k = 0.452627
        14        15        16        19     9      180.000000       -1.563583         4    ;  uncertainty k = 0.410086
        14        15        16        38     9        0.000000        0.504662         1    ;  uncertainty k = 0.389245
        14        15        16        38     9      180.000000       -1.457373         2    ;  uncertainty k = 0.271340
        14        15        16        38     9        0.000000       -0.249624         3    ;  uncertainty k = 0.202884
        14        15        16        38     9      180.000000        0.084792         4    ;  uncertainty k = 0.135557
        14        15        16        39     9        0.000000        0.504662         1    ;  uncertainty k = 0.389245
        14        15        16        39     9      180.000000       -1.457373         2    ;  uncertainty k = 0.271340
        14        15        16        39     9        0.000000       -0.249624         3    ;  uncertainty k = 0.202884
        14        15        16        39     9      180.000000        0.084792         4    ;  uncertainty k = 0.135557
        14        17        19        16     9        0.000000        2.429674         1    ;  uncertainty k = 3.342841
        14        17        19        16     9      180.000000        7.699497         2    ;  uncertainty k = 1.167989
        14        17        19        16     9        0.000000        0.568323         3    ;  uncertainty k = 0.589808
        14        17        19        16     9      180.000000        0.261059         4    ;  uncertainty k = 0.391586
        14        17        19        20     9        0.000000        6.255719         1    ;  uncertainty k = 0.722386
        14        17        19        20     9      180.000000        8.672436         2    ;  uncertainty k = 0.733965
        14        17        19        20     9        0.000000        1.740461         3    ;  uncertainty k = 0.552087
        14        17        19        20     9      180.000000       -0.110688         4    ;  uncertainty k = 0.366271
        15        14        13        34     9        0.000000        4.040293         1    ;  uncertainty k = 1.312220
        15        14        13        34     9      180.000000       -3.683483         2    ;  uncertainty k = 0.710021
        15        14        13        34     9        0.000000        0.433478         3    ;  uncertainty k = 0.214486
        15        14        13        34     9      180.000000       -0.026407         4    ;  uncertainty k = 0.108017
        15        14        17        18     9        0.000000       -2.051858         1    ;  uncertainty k = 0.998917
        15        14        17        18     9      180.000000        2.972952         2    ;  uncertainty k = 0.804213
        15        14        17        18     9        0.000000        0.796781         3    ;  uncertainty k = 0.341606
        15        14        17        18     9      180.000000        0.505603         4    ;  uncertainty k = 0.175400
        15        14        17        19     9        0.000000       -3.398114         1    ;  uncertainty k = 1.874462
        15        14        17        19     9      180.000000        5.259115         2    ;  uncertainty k = 1.534947
        15        14        17        19     9        0.000000        0.089699         3    ;  uncertainty k = 0.515034
        15        14        17        19     9      180.000000        0.659145         4    ;  uncertainty k = 0.269774
        15        16        19        17     9        0.000000       -1.271696         1    ;  uncertainty k = 1.646556
        15        16        19        17     9      180.000000        3.031980         2    ;  uncertainty k = 0.927563
        15        16        19        17     9        0.000000       -0.420830         3    ;  uncertainty k = 0.323621
        15        16        19        17     9      180.000000        0.331591         4    ;  uncertainty k = 0.299174
        15        16        19        20     9        0.000000       -0.500053         1    ;  uncertainty k = 1.100375
        15        16        19        20     9      180.000000        1.256366         2    ;  uncertainty k = 0.392406
        15        16        19        20     9        0.000000        1.672566         3    ;  uncertainty k = 0.563027
        15        16        19        20     9      180.000000       -0.085895         4    ;  uncertainty k = 0.253752
        16        15        14        17     9        0.000000       -0.488467         1    ;  uncertainty k = 0.535238
        16        15        14        17     9      180.000000        3.666029         2    ;  uncertainty k = 1.313688
        16        15        14        17     9        0.000000       -0.082916         3    ;  uncertainty k = 0.296345
        16        15        14        17     9      180.000000       -0.135559         4    ;  uncertainty k = 0.240046
        16        15        14        35     9        0.000000       -1.049579         1    ;  uncertainty k = 0.684469
        16        15        14        35     9      180.000000        0.205003         2    ;  uncertainty k = 0.500971
        16        15        14        35     9        0.000000        0.194909         3    ;  uncertainty k = 0.165459
        16        15        14        35     9      180.000000       -0.008334         4    ;  uncertainty k = 0.030143
        16        19        17        18     9        0.000000        1.706007         1    ;  uncertainty k = 1.828933
        16        19        17        18     9      180.000000       15.708326         2    ;  uncertainty k = 0.448233
        16        19        17        18     9        0.000000        1.023144         3    ;  uncertainty k = 0.259184
        16        19        17        18     9      180.000000       -0.722973         4    ;  uncertainty k = 0.243370
        16        19        20        21     9        0.000000       -0.688492         1    ;  uncertainty k = 0.671699
        16        19        20        21     9      180.000000        0.533676         2    ;  uncertainty k = 0.436027
        16        19        20        21     9        0.000000        1.107179         3    ;  uncertainty k = 0.173282
        16        19        20        21     9      180.000000        0.093772         4    ;  uncertainty k = 0.021274
        16        19        20        22     9        0.000000       -0.395089         1    ;  uncertainty k = 0.653414
        16        19        20        22     9      180.000000       -0.350453         2    ;  uncertainty k = 0.414882
        16        19        20        22     9        0.000000        1.165686         3    ;  uncertainty k = 0.166063
        16        19        20        22     9      180.000000        0.181576         4    ;  uncertainty k = 0.126992
        16        19        20        40     9        0.000000       -2.305625         1    ;  uncertainty k = 0.822179
        16        19        20        40     9      180.000000        0.234101         2    ;  uncertainty k = 0.379196
        16        19        20        40     9        0.000000        0.742947         3    ;  uncertainty k = 0.268478
        16        19        20        40     9      180.000000        0.126564         4    ;  uncertainty k = 0.061018
        17        14        13        34     9        0.000000        6.476211         1    ;  uncertainty k = 0.784043
        17        14        13        34     9      180.000000       -5.026707         2    ;  uncertainty k = 0.610110
        17        14        13        34     9        0.000000        0.271760         3    ;  uncertainty k = 0.211757
        17        14        13        34     9      180.000000       -0.031830         4    ;  uncertainty k = 0.171273
        17        14        15        36     9        0.000000       -0.429582         1    ;  uncertainty k = 0.664380
        17        14        15        36     9      180.000000       -0.500021         2    ;  uncertainty k = 0.346121
        17        14        15        36     9        0.000000        0.473993         3    ;  uncertainty k = 0.069614
        17        14        15        36     9      180.000000        0.036040         4    ;  uncertainty k = 0.079720
        17        14        15        37     9        0.000000       -0.429582         1    ;  uncertainty k = 0.664380
        17        14        15        37     9      180.000000       -0.500021         2    ;  uncertainty k = 0.346121
        17        14        15        37     9        0.000000        0.473993         3    ;  uncertainty k = 0.069614
        17        14        15        37     9      180.000000        0.036040         4    ;  uncertainty k = 0.079720
        17        19        16        38     9        0.000000       -0.126021         1    ;  uncertainty k = 0.747628
        17        19        16        38     9      180.000000        0.293972         2    ;  uncertainty k = 0.484269
        17        19        16        38     9        0.000000        0.164615         3    ;  uncertainty k = 0.183342
        17        19        16        38     9      180.000000        0.417669         4    ;  uncertainty k = 0.109232
        17        19        16        39     9        0.000000       -0.126021         1    ;  uncertainty k = 0.747628
        17        19        16        39     9      180.000000        0.293972         2    ;  uncertainty k = 0.484269
        17        19        16        39     9        0.000000        0.164615         3    ;  uncertainty k = 0.183342
        17        19        16        39     9      180.000000        0.417669         4    ;  uncertainty k = 0.109232
        17        19        20        21     9        0.000000        0.832869         1    ;  uncertainty k = 0.469341
        17        19        20        21     9      180.000000        0.390728         2    ;  uncertainty k = 0.304508
        17        19        20        21     9        0.000000        0.474399         3    ;  uncertainty k = 0.139969
        17        19        20        21     9      180.000000        0.242619         4    ;  uncertainty k = 0.127693
        17        19        20        22     9        0.000000        1.833407         1    ;  uncertainty k = 0.853465
        17        19        20        22     9      180.000000        0.209535         2    ;  uncertainty k = 0.537380
        17        19        20        22     9        0.000000       -0.592888         3    ;  uncertainty k = 0.163296
        17        19        20        22     9      180.000000        0.840729         4    ;  uncertainty k = 0.057254
        17        19        20        40     9        0.000000       -0.205144         1    ;  uncertainty k = 0.599169
        17        19        20        40     9      180.000000        0.004804         2    ;  uncertainty k = 0.153471
        17        19        20        40     9        0.000000       -0.044376         3    ;  uncertainty k = 0.129015
        17        19        20        40     9      180.000000        0.266747         4    ;  uncertainty k = 0.031692
        18        17        14        35     9        0.000000       -0.932555         1    ;  uncertainty k = 0.936679
        18        17        14        35     9      180.000000        3.316784         2    ;  uncertainty k = 0.473482
        18        17        14        35     9        0.000000        0.040211         3    ;  uncertainty k = 0.548182
        18        17        14        35     9      180.000000        0.118488         4    ;  uncertainty k = 0.275278
        18        17        19        20     9        0.000000        2.731142         1    ;  uncertainty k = 1.962138
        18        17        19        20     9      180.000000       14.178956         2    ;  uncertainty k = 0.588436
        18        17        19        20     9        0.000000        0.947456         3    ;  uncertainty k = 0.406074
        18        17        19        20     9      180.000000       -0.454871         4    ;  uncertainty k = 0.414263
        19        16        15        36     9        0.000000       -1.829510         1    ;  uncertainty k = 0.456616
        19        16        15        36     9      180.000000        0.325894         2    ;  uncertainty k = 0.435580
        19        16        15        36     9        0.000000        1.355353         3    ;  uncertainty k = 0.143785
        19        16        15        36     9      180.000000        0.074444         4    ;  uncertainty k = 0.249644
        19        16        15        37     9        0.000000       -1.829510         1    ;  uncertainty k = 0.456616
        19        16        15        37     9      180.000000        0.325894         2    ;  uncertainty k = 0.435580
        19        16        15        37     9        0.000000        1.355353         3    ;  uncertainty k = 0.143785
        19        16        15        37     9      180.000000        0.074444         4    ;  uncertainty k = 0.249644
        19        17        14        35     9        0.000000       -2.123556         1    ;  uncertainty k = 2.519288
        19        17        14        35     9      180.000000        2.387444         2    ;  uncertainty k = 0.664596
        19        17        14        35     9        0.000000        0.966558         3    ;  uncertainty k = 0.295403
        19        17        14        35     9      180.000000        0.481990         4    ;  uncertainty k = 0.135683
        19        20        21        41     9        0.000000       -0.041715         1    ;  uncertainty k = 0.086802
        19        20        21        41     9      180.000000       -2.055705         2    ;  uncertainty k = 0.151824
        19        20        21        41     9        0.000000        1.070157         3    ;  uncertainty k = 0.088658
        19        20        21        41     9      180.000000       -0.169755         4    ;  uncertainty k = 0.104081
        19        20        21        42     9        0.000000       -0.041715         1    ;  uncertainty k = 0.086802
        19        20        21        42     9      180.000000       -2.055705         2    ;  uncertainty k = 0.151824
        19        20        21        42     9        0.000000        1.070157         3    ;  uncertainty k = 0.088658
        19        20        21        42     9      180.000000       -0.169755         4    ;  uncertainty k = 0.104081
        19        20        21        43     9        0.000000       -0.041715         1    ;  uncertainty k = 0.086802
        19        20        21        43     9      180.000000       -2.055705         2    ;  uncertainty k = 0.151824
        19        20        21        43     9        0.000000        1.070157         3    ;  uncertainty k = 0.088658
        19        20        21        43     9      180.000000       -0.169755         4    ;  uncertainty k = 0.104081
        19        20        22        23     9        0.000000        0.499396         1    ;  uncertainty k = 0.966558
        19        20        22        23     9      180.000000        6.109033         2    ;  uncertainty k = 0.130985
        19        20        22        23     9        0.000000        1.318031         3    ;  uncertainty k = 0.293046
        19        20        22        23     9      180.000000        0.376941         4    ;  uncertainty k = 0.128880
        19        20        22        24     9        0.000000        1.298771         1    ;  uncertainty k = 0.762727
        19        20        22        24     9      180.000000        3.730132         2    ;  uncertainty k = 0.411538
        19        20        22        24     9        0.000000        0.531949         3    ;  uncertainty k = 0.139911
        19        20        22        24     9      180.000000        0.104606         4    ;  uncertainty k = 0.060875
        20        19        16        38     9        0.000000       -0.171023         1    ;  uncertainty k = 0.466144
        20        19        16        38     9      180.000000       -0.753502         2    ;  uncertainty k = 0.394766
        20        19        16        38     9        0.000000        0.990987         3    ;  uncertainty k = 0.142757
        20        19        16        38     9      180.000000        0.391063         4    ;  uncertainty k = 0.162132
        20        19        16        39     9        0.000000       -0.171023         1    ;  uncertainty k = 0.466144
        20        19        16        39     9      180.000000       -0.753502         2    ;  uncertainty k = 0.394766
        20        19        16        39     9        0.000000        0.990987         3    ;  uncertainty k = 0.142757
        20        19        16        39     9      180.000000        0.391063         4    ;  uncertainty k = 0.162132
        20        22        24        25     9        0.000000        8.299487         1    ;  uncertainty k = 0.269860
        20        22        24        25     9      180.000000        6.005714         2    ;  uncertainty k = 0.421476
        20        22        24        25     9        0.000000        1.159671         3    ;  uncertainty k = 0.227098
        20        22        24        25     9      180.000000        0.103306         4    ;  uncertainty k = 0.158474
        20        22        24        29     9        0.000000        8.299487         1    ;  uncertainty k = 0.269860
        20        22        24        29     9      180.000000        6.005714         2    ;  uncertainty k = 0.421476
        20        22        24        29     9        0.000000        1.159671         3    ;  uncertainty k = 0.227098
        20        22        24        29     9      180.000000        0.103306         4    ;  uncertainty k = 0.158474
        21        20        22        23     9        0.000000       -0.918609         1    ;  uncertainty k = 0.498844
        21        20        22        23     9      180.000000        5.582712         2    ;  uncertainty k = 0.540220
        21        20        22        23     9        0.000000        1.479882         3    ;  uncertainty k = 0.175097
        21        20        22        23     9      180.000000        0.507220         4    ;  uncertainty k = 0.051889
        21        20        22        24     9        0.000000       -2.003223         1    ;  uncertainty k = 0.395192
        21        20        22        24     9      180.000000        3.012685         2    ;  uncertainty k = 0.516173
        21        20        22        24     9        0.000000        0.475109         3    ;  uncertainty k = 0.119059
        21        20        22        24     9      180.000000        0.075564         4    ;  uncertainty k = 0.082587
        22        20        21        41     9        0.000000        1.150537         1    ;  uncertainty k = 0.677576
        22        20        21        41     9      180.000000       -0.924040         2    ;  uncertainty k = 0.241314
        22        20        21        41     9        0.000000        0.735120         3    ;  uncertainty k = 0.069732
        22        20        21        41     9      180.000000       -0.019774         4    ;  uncertainty k = 0.058125
        22        20        21        42     9        0.000000        1.150537         1    ;  uncertainty k = 0.677576
        22        20        21        42     9      180.000000       -0.924040         2    ;  uncertainty k = 0.241314
        22        20        21        42     9        0.000000        0.735120         3    ;  uncertainty k = 0.069732
        22        20        21        42     9      180.000000       -0.019774         4    ;  uncertainty k = 0.058125
        22        20        21        43     9        0.000000        1.150537         1    ;  uncertainty k = 0.677576
        22        20        21        43     9      180.000000       -0.924040         2    ;  uncertainty k = 0.241314
        22        20        21        43     9        0.000000        0.735120         3    ;  uncertainty k = 0.069732
        22        20        21        43     9      180.000000       -0.019774         4    ;  uncertainty k = 0.058125
        22        24        25        26     9        0.000000        0.224961         1    ;  uncertainty k = 0.687788
        22        24        25        26     9      180.000000        0.114129         2    ;  uncertainty k = 0.146198
        22        24        25        26     9        0.000000       -0.233453         3    ;  uncertainty k = 0.126504
        22        24        25        26     9      180.000000        0.299264         4    ;  uncertainty k = 0.131991
        22        24        25        44     9        0.000000        1.489642         1    ;  uncertainty k = 0.595508
        22        24        25        44     9      180.000000       -0.191425         2    ;  uncertainty k = 0.136241
        22        24        25        44     9        0.000000        0.111797         3    ;  uncertainty k = 0.096189
        22        24        25        44     9      180.000000        0.140722         4    ;  uncertainty k = 0.049493
        22        24        25        45     9        0.000000        1.489642         1    ;  uncertainty k = 0.595508
        22        24        25        45     9      180.000000       -0.191425         2    ;  uncertainty k = 0.136241
        22        24        25        45     9        0.000000        0.111797         3    ;  uncertainty k = 0.096189
        22        24        25        45     9      180.000000        0.140722         4    ;  uncertainty k = 0.049493
        22        24        29        28     9        0.000000        0.224961         1    ;  uncertainty k = 0.687788
        22        24        29        28     9      180.000000        0.114129         2    ;  uncertainty k = 0.146198
        22        24        29        28     9        0.000000       -0.233453         3    ;  uncertainty k = 0.126504
        22        24        29        28     9      180.000000        0.299264         4    ;  uncertainty k = 0.131991
        22        24        29        50     9        0.000000        1.489642         1    ;  uncertainty k = 0.595508
        22        24        29        50     9      180.000000       -0.191425         2    ;  uncertainty k = 0.136241
        22        24        29        50     9        0.000000        0.111797         3    ;  uncertainty k = 0.096189
        22        24        29        50     9      180.000000        0.140722         4    ;  uncertainty k = 0.049493
        22        24        29        51     9        0.000000        1.489642         1    ;  uncertainty k = 0.595508
        22        24        29        51     9      180.000000       -0.191425         2    ;  uncertainty k = 0.136241
        22        24        29        51     9        0.000000        0.111797         3    ;  uncertainty k = 0.096189
        22        24        29        51     9      180.000000        0.140722         4    ;  uncertainty k = 0.049493
        23        22        20        40     9        0.000000       -1.193527         1    ;  uncertainty k = 0.618000
        23        22        20        40     9      180.000000        2.843837         2    ;  uncertainty k = 0.359543
        23        22        20        40     9        0.000000        0.832219         3    ;  uncertainty k = 0.209632
        23        22        20        40     9      180.000000        0.162966         4    ;  uncertainty k = 0.077189
        23        22        24        25     9        0.000000        6.603517         1    ;  uncertainty k = 0.334857
        23        22        24        25     9      180.000000       20.577585         2    ;  uncertainty k = 0.086866
        23        22        24        25     9        0.000000        0.266672         3    ;  uncertainty k = 0.142095
        23        22        24        25     9      180.000000       -1.495398         4    ;  uncertainty k = 0.102425
        23        22        24        29     9        0.000000        6.603517         1    ;  uncertainty k = 0.334857
        23        22        24        29     9      180.000000       20.577585         2    ;  uncertainty k = 0.086866
        23        22        24        29     9        0.000000        0.266672         3    ;  uncertainty k = 0.142095
        23        22        24        29     9      180.000000       -1.495398         4    ;  uncertainty k = 0.102425
        24        22        20        40     9        0.000000       -0.546567         1    ;  uncertainty k = 0.607387
        24        22        20        40     9      180.000000        2.439825         2    ;  uncertainty k = 0.362200
        24        22        20        40     9        0.000000        0.108278         3    ;  uncertainty k = 0.047116
        24        22        20        40     9      180.000000        0.170383         4    ;  uncertainty k = 0.050292
        24        25        26        27     9        0.000000        5.353992         1    ;  uncertainty k = 0.675529
        24        25        26        27     9      180.000000       -8.857338         2    ;  uncertainty k = 0.692100
        24        25        26        27     9        0.000000        3.059860         3    ;  uncertainty k = 0.495205
        24        25        26        27     9      180.000000       -0.099186         4    ;  uncertainty k = 0.227903
        24        25        26        46     9        0.000000        4.810866         1    ;  uncertainty k = 0.569234
        24        25        26        46     9      180.000000       -4.025620         2    ;  uncertainty k = 0.699778
        24        25        26        46     9        0.000000        0.136668         3    ;  uncertainty k = 0.307514
        24        25        26        46     9      180.000000        0.448548         4    ;  uncertainty k = 0.208534
        24        25        26        47     9        0.000000        4.810866         1    ;  uncertainty k = 0.569234
        24        25        26        47     9      180.000000       -4.025620         2    ;  uncertainty k = 0.699778
        24        25        26        47     9        0.000000        0.136668         3    ;  uncertainty k = 0.307514
        24        25        26        47     9      180.000000        0.448548         4    ;  uncertainty k = 0.208534
        24        29        28        27     9        0.000000        5.353992         1    ;  uncertainty k = 0.675529
        24        29        28        27     9      180.000000       -8.857338         2    ;  uncertainty k = 0.692100
        24        29        28        27     9        0.000000        3.059860         3    ;  uncertainty k = 0.495205
        24        29        28        27     9      180.000000       -0.099186         4    ;  uncertainty k = 0.227903
        24        29        28        48     9        0.000000        4.810866         1    ;  uncertainty k = 0.569234
        24        29        28        48     9      180.000000       -4.025620         2    ;  uncertainty k = 0.699778
        24        29        28        48     9        0.000000        0.136668         3    ;  uncertainty k = 0.307514
        24        29        28        48     9      180.000000        0.448548         4    ;  uncertainty k = 0.208534
        24        29        28        49     9        0.000000        4.810866         1    ;  uncertainty k = 0.569234
        24        29        28        49     9      180.000000       -4.025620         2    ;  uncertainty k = 0.699778
        24        29        28        49     9        0.000000        0.136668         3    ;  uncertainty k = 0.307514
        24        29        28        49     9      180.000000        0.448548         4    ;  uncertainty k = 0.208534
        25        24        29        28     9        0.000000       -5.632507         1    ;  uncertainty k = 1.372901
        25        24        29        28     9      180.000000        0.820042         2    ;  uncertainty k = 0.457968
        25        24        29        28     9        0.000000        1.551394         3    ;  uncertainty k = 0.353572
        25        24        29        28     9      180.000000       -0.465199         4    ;  uncertainty k = 0.242804
        25        24        29        50     9        0.000000       -5.630831         1    ;  uncertainty k = 1.116973
        25        24        29        50     9      180.000000        1.096405         2    ;  uncertainty k = 0.268716
        25        24        29        50     9        0.000000        1.209015         3    ;  uncertainty k = 0.133163
        25        24        29        50     9      180.000000       -0.230019         4    ;  uncertainty k = 0.154441
        25        24        29        51     9        0.000000       -5.630831         1    ;  uncertainty k = 1.116973
        25        24        29        51     9      180.000000        1.096405         2    ;  uncertainty k = 0.268716
        25        24        29        51     9        0.000000        1.209015         3    ;  uncertainty k = 0.133163
        25        24        29        51     9      180.000000       -0.230019         4    ;  uncertainty k = 0.154441
        25        26        27        28     9        0.000000       -4.283460         1    ;  uncertainty k = 1.346568
        25        26        27        28     9      180.000000        0.019562         2    ;  uncertainty k = 1.048764
        25        26        27        28     9        0.000000        0.786756         3    ;  uncertainty k = 0.331644
        25        26        27        28     9      180.000000       -0.317148         4    ;  uncertainty k = 0.268089
        26        25        24        29     9        0.000000       -5.632507         1    ;  uncertainty k = 1.372901
        26        25        24        29     9      180.000000        0.820042         2    ;  uncertainty k = 0.457968
        26        25        24        29     9        0.000000        1.551394         3    ;  uncertainty k = 0.353572
        26        25        24        29     9      180.000000       -0.465199         4    ;  uncertainty k = 0.242804
        26        27        28        29     9        0.000000       -4.283460         1    ;  uncertainty k = 1.346568
        26        27        28        29     9      180.000000        0.019562         2    ;  uncertainty k = 1.048764
        26        27        28        29     9        0.000000        0.786756         3    ;  uncertainty k = 0.331644
        26        27        28        29     9      180.000000       -0.317148         4    ;  uncertainty k = 0.268089
        26        27        28        48     9        0.000000       -5.824736         1    ;  uncertainty k = 1.874994
        26        27        28        48     9      180.000000        0.612519         2    ;  uncertainty k = 0.237167
        26        27        28        48     9        0.000000        0.759446         3    ;  uncertainty k = 0.174537
        26        27        28        48     9      180.000000       -0.645283         4    ;  uncertainty k = 0.153493
        26        27        28        49     9        0.000000       -5.824736         1    ;  uncertainty k = 1.874994
        26        27        28        49     9      180.000000        0.612519         2    ;  uncertainty k = 0.237167
        26        27        28        49     9        0.000000        0.759446         3    ;  uncertainty k = 0.174537
        26        27        28        49     9      180.000000       -0.645283         4    ;  uncertainty k = 0.153493
        27        26        25        44     9        0.000000        0.912216         1    ;  uncertainty k = 0.334790
        27        26        25        44     9      180.000000       -0.812586         2    ;  uncertainty k = 0.665020
        27        26        25        44     9        0.000000        1.061498         3    ;  uncertainty k = 0.198448
        27        26        25        44     9      180.000000        0.211215         4    ;  uncertainty k = 0.255400
        27        26        25        45     9        0.000000        0.912216         1    ;  uncertainty k = 0.334790
        27        26        25        45     9      180.000000       -0.812586         2    ;  uncertainty k = 0.665020
        27        26        25        45     9        0.000000        1.061498         3    ;  uncertainty k = 0.198448
        27        26        25        45     9      180.000000        0.211215         4    ;  uncertainty k = 0.255400
        27        28        29        50     9        0.000000        0.912216         1    ;  uncertainty k = 0.334790
        27        28        29        50     9      180.000000       -0.812586         2    ;  uncertainty k = 0.665020
        27        28        29        50     9        0.000000        1.061498         3    ;  uncertainty k = 0.198448
        27        28        29        50     9      180.000000        0.211215         4    ;  uncertainty k = 0.255400
        27        28        29        51     9        0.000000        0.912216         1    ;  uncertainty k = 0.334790
        27        28        29        51     9      180.000000       -0.812586         2    ;  uncertainty k = 0.665020
        27        28        29        51     9        0.000000        1.061498         3    ;  uncertainty k = 0.198448
        27        28        29        51     9      180.000000        0.211215         4    ;  uncertainty k = 0.255400
        28        27        26        46     9        0.000000       -5.824736         1    ;  uncertainty k = 1.874994
        28        27        26        46     9      180.000000        0.612519         2    ;  uncertainty k = 0.237167
        28        27        26        46     9        0.000000        0.759446         3    ;  uncertainty k = 0.174537
        28        27        26        46     9      180.000000       -0.645283         4    ;  uncertainty k = 0.153493
        28        27        26        47     9        0.000000       -5.824736         1    ;  uncertainty k = 1.874994
        28        27        26        47     9      180.000000        0.612519         2    ;  uncertainty k = 0.237167
        28        27        26        47     9        0.000000        0.759446         3    ;  uncertainty k = 0.174537
        28        27        26        47     9      180.000000       -0.645283         4    ;  uncertainty k = 0.153493
        29        24        25        44     9        0.000000       -5.630831         1    ;  uncertainty k = 1.116973
        29        24        25        44     9      180.000000        1.096405         2    ;  uncertainty k = 0.268716
        29        24        25        44     9        0.000000        1.209015         3    ;  uncertainty k = 0.133163
        29        24        25        44     9      180.000000       -0.230019         4    ;  uncertainty k = 0.154441
        29        24        25        45     9        0.000000       -5.630831         1    ;  uncertainty k = 1.116973
        29        24        25        45     9      180.000000        1.096405         2    ;  uncertainty k = 0.268716
        29        24        25        45     9        0.000000        1.209015         3    ;  uncertainty k = 0.133163
        29        24        25        45     9      180.000000       -0.230019         4    ;  uncertainty k = 0.154441
        30         4         3        31     9        0.000000        0.006061         1    ;  uncertainty k = 0.458849
        30         4         3        31     9      180.000000        5.588695         2    ;  uncertainty k = 0.588736
        30         4         3        31     9        0.000000        0.932130         3    ;  uncertainty k = 0.339889
        30         4         3        31     9      180.000000        0.738384         4    ;  uncertainty k = 0.347716
        32         7         8        33     9        0.000000       -0.123682         1    ;  uncertainty k = 0.289308
        32         7         8        33     9      180.000000        7.481789         2    ;  uncertainty k = 0.353592
        32         7         8        33     9        0.000000       -0.280055         3    ;  uncertainty k = 0.228073
        32         7         8        33     9      180.000000        0.093682         4    ;  uncertainty k = 0.140948
        34        13        14        35     9        0.000000        4.306250         1    ;  uncertainty k = 1.216596
        34        13        14        35     9      180.000000       -2.465027         2    ;  uncertainty k = 0.437040
        34        13        14        35     9        0.000000        0.255302         3    ;  uncertainty k = 0.222847
        34        13        14        35     9      180.000000        0.149992         4    ;  uncertainty k = 0.112691
        35        14        15        36     9        0.000000        0.651270         1    ;  uncertainty k = 0.240581
        35        14        15        36     9      180.000000       -0.601623         2    ;  uncertainty k = 0.145671
        35        14        15        36     9        0.000000        0.566462         3    ;  uncertainty k = 0.099315
        35        14        15        36     9      180.000000        0.057892         4    ;  uncertainty k = 0.065069
        35        14        15        37     9        0.000000        0.651270         1    ;  uncertainty k = 0.240581
        35        14        15        37     9      180.000000       -0.601623         2    ;  uncertainty k = 0.145671
        35        14        15        37     9        0.000000        0.566462         3    ;  uncertainty k = 0.099315
        35        14        15        37     9      180.000000        0.057892         4    ;  uncertainty k = 0.065069
        36        15        16        38     9        0.000000        0.823414         1    ;  uncertainty k = 0.215557
        36        15        16        38     9      180.000000       -0.170976         2    ;  uncertainty k = 0.266678
        36        15        16        38     9        0.000000        0.469348         3    ;  uncertainty k = 0.038030
        36        15        16        38     9      180.000000        0.043270         4    ;  uncertainty k = 0.022809
        36        15        16        39     9        0.000000        0.823414         1    ;  uncertainty k = 0.215557
        36        15        16        39     9      180.000000       -0.170976         2    ;  uncertainty k = 0.266678
        36        15        16        39     9        0.000000        0.469348         3    ;  uncertainty k = 0.038030
        36        15        16        39     9      180.000000        0.043270         4    ;  uncertainty k = 0.022809
        37        15        16        38     9        0.000000        0.823414         1    ;  uncertainty k = 0.215557
        37        15        16        38     9      180.000000       -0.170976         2    ;  uncertainty k = 0.266678
        37        15        16        38     9        0.000000        0.469348         3    ;  uncertainty k = 0.038030
        37        15        16        38     9      180.000000        0.043270         4    ;  uncertainty k = 0.022809
        37        15        16        39     9        0.000000        0.823414         1    ;  uncertainty k = 0.215557
        37        15        16        39     9      180.000000       -0.170976         2    ;  uncertainty k = 0.266678
        37        15        16        39     9        0.000000        0.469348         3    ;  uncertainty k = 0.038030
        37        15        16        39     9      180.000000        0.043270         4    ;  uncertainty k = 0.022809
        40        20        21        41     9        0.000000        0.143668         1    ;  uncertainty k = 0.287689
        40        20        21        41     9      180.000000       -0.308389         2    ;  uncertainty k = 0.120561
        40        20        21        41     9        0.000000        0.423570         3    ;  uncertainty k = 0.126378
        40        20        21        41     9      180.000000       -0.021121         4    ;  uncertainty k = 0.092887
        40        20        21        42     9        0.000000        0.143668         1    ;  uncertainty k = 0.287689
        40        20        21        42     9      180.000000       -0.308389         2    ;  uncertainty k = 0.120561
        40        20        21        42     9        0.000000        0.423570         3    ;  uncertainty k = 0.126378
        40        20        21        42     9      180.000000       -0.021121         4    ;  uncertainty k = 0.092887
        40        20        21        43     9        0.000000        0.143668         1    ;  uncertainty k = 0.287689
        40        20        21        43     9      180.000000       -0.308389         2    ;  uncertainty k = 0.120561
        40        20        21        43     9        0.000000        0.423570         3    ;  uncertainty k = 0.126378
        40        20        21        43     9      180.000000       -0.021121         4    ;  uncertainty k = 0.092887
        44        25        26        46     9        0.000000       -2.278074         1    ;  uncertainty k = 1.043178
        44        25        26        46     9      180.000000        1.532748         2    ;  uncertainty k = 0.718723
        44        25        26        46     9        0.000000       -0.092826         3    ;  uncertainty k = 0.085920
        44        25        26        46     9      180.000000       -0.789690         4    ;  uncertainty k = 0.177408
        44        25        26        47     9        0.000000       -2.278074         1    ;  uncertainty k = 1.043178
        44        25        26        47     9      180.000000        1.532748         2    ;  uncertainty k = 0.718723
        44        25        26        47     9        0.000000       -0.092826         3    ;  uncertainty k = 0.085920
        44        25        26        47     9      180.000000       -0.789690         4    ;  uncertainty k = 0.177408
        45        25        26        46     9        0.000000       -2.278074         1    ;  uncertainty k = 1.043178
        45        25        26        46     9      180.000000        1.532748         2    ;  uncertainty k = 0.718723
        45        25        26        46     9        0.000000       -0.092826         3    ;  uncertainty k = 0.085920
        45        25        26        46     9      180.000000       -0.789690         4    ;  uncertainty k = 0.177408
        45        25        26        47     9        0.000000       -2.278074         1    ;  uncertainty k = 1.043178
        45        25        26        47     9      180.000000        1.532748         2    ;  uncertainty k = 0.718723
        45        25        26        47     9        0.000000       -0.092826         3    ;  uncertainty k = 0.085920
        45        25        26        47     9      180.000000       -0.789690         4    ;  uncertainty k = 0.177408
        48        28        29        50     9        0.000000       -2.278074         1    ;  uncertainty k = 1.043178
        48        28        29        50     9      180.000000        1.532748         2    ;  uncertainty k = 0.718723
        48        28        29        50     9        0.000000       -0.092826         3    ;  uncertainty k = 0.085920
        48        28        29        50     9      180.000000       -0.789690         4    ;  uncertainty k = 0.177408
        48        28        29        51     9        0.000000       -2.278074         1    ;  uncertainty k = 1.043178
        48        28        29        51     9      180.000000        1.532748         2    ;  uncertainty k = 0.718723
        48        28        29        51     9        0.000000       -0.092826         3    ;  uncertainty k = 0.085920
        48        28        29        51     9      180.000000       -0.789690         4    ;  uncertainty k = 0.177408
        49        28        29        50     9        0.000000       -2.278074         1    ;  uncertainty k = 1.043178
        49        28        29        50     9      180.000000        1.532748         2    ;  uncertainty k = 0.718723
        49        28        29        50     9        0.000000       -0.092826         3    ;  uncertainty k = 0.085920
        49        28        29        50     9      180.000000       -0.789690         4    ;  uncertainty k = 0.177408
        49        28        29        51     9        0.000000       -2.278074         1    ;  uncertainty k = 1.043178
        49        28        29        51     9      180.000000        1.532748         2    ;  uncertainty k = 0.718723
        49        28        29        51     9        0.000000       -0.092826         3    ;  uncertainty k = 0.085920
        49        28        29        51     9      180.000000       -0.789690         4    ;  uncertainty k = 0.177408

[ dihedrals ] ; impropers
;       ai        aj        ak        al funct           phase               k        pn
         2         1         3         8     4      180.000000       12.012390         2    ;  uncertainty k = 0.069594
         2         3         8         1     4      180.000000       12.012390         2    ;  uncertainty k = 0.069594
         2         8         1         3     4      180.000000       12.012390         2    ;  uncertainty k = 0.069594
         3         2         4        31     4      180.000000        4.497652         2    ;  uncertainty k = 0.272451
         3         4        31         2     4      180.000000        4.497652         2    ;  uncertainty k = 0.272451
         3        31         2         4     4      180.000000        4.497652         2    ;  uncertainty k = 0.272451
         5         4         6         7     4      180.000000        1.294336         2    ;  uncertainty k = 0.727114
         5         6         7         4     4      180.000000        1.294336         2    ;  uncertainty k = 0.727114
         5         7         4         6     4      180.000000        1.294336         2    ;  uncertainty k = 0.727114
         7         5         8        32     4      180.000000        3.437168         2    ;  uncertainty k = 0.196319
         7         8        32         5     4      180.000000        3.437168         2    ;  uncertainty k = 0.196319
         7        32         5         8     4      180.000000        3.437168         2    ;  uncertainty k = 0.196319
         8         2         7        33     4      180.000000        3.614028         2    ;  uncertainty k = 0.176998
         8         7        33         2     4      180.000000        3.614028         2    ;  uncertainty k = 0.176998
         8        33         2         7     4      180.000000        3.614028         2    ;  uncertainty k = 0.176998
         9         6        10        30     4      180.000000        1.895559         2    ;  uncertainty k = 0.367213
         9        10        30         6     4      180.000000        1.895559         2    ;  uncertainty k = 0.367213
         9        30         6        10     4      180.000000        1.895559         2    ;  uncertainty k = 0.367213
        17        14        18        19     4      180.000000       48.900319         2    ;  uncertainty k = 0.036870
        17        18        19        14     4      180.000000       48.900319         2    ;  uncertainty k = 0.036870
        17        19        14        18     4      180.000000       48.900319         2    ;  uncertainty k = 0.036870
        22        20        23        24     4      180.000000       50.108480         2    ;  uncertainty k = 0.051863
        22        23        24        20     4      180.000000       50.108480         2    ;  uncertainty k = 0.051863
        22        24        20        23     4      180.000000       50.108480         2    ;  uncertainty k = 0.051863
        30         4         9        52     4      180.000000        1.999665         2    ;  uncertainty k = 0.503924
        30         9        52         4     4      180.000000        1.999665         2    ;  uncertainty k = 0.503924
        30        52         4         9     4      180.000000        1.999665         2    ;  uncertainty k = 0.503924

[ pairs ]
;       ai        aj funct
         1         4     1
         1         7     1
         1        31     1
         1        33     1
         2         5     1
         2        30     1
         2        32     1
         3         6     1
         3         7     1
         3         9     1
         3        33     1
         3        52     1
         4         8     1
         4        10     1
         4        32     1
         5        10     1
         5        31     1
         5        33     1
         5        52     1
         6         8     1
         6        11     1
         6        12     1
         6        13     1
         6        32     1
         6        52     1
         7         9     1
         7        30     1
         8        31     1
         9        14     1
         9        34     1
        10        15     1
        10        17     1
        10        35     1
        10        52     1
        11        14     1
        11        30     1
        11        34     1
        12        14     1
        12        30     1
        12        34     1
        13        16     1
        13        18     1
        13        19     1
        13        30     1
        13        36     1
        13        37     1
        14        20     1
        14        38     1
        14        39     1
        15        18     1
        15        20     1
        15        34     1
        16        18     1
        16        21     1
        16        22     1
        16        35     1
        16        40     1
        17        21     1
        17        22     1
        17        34     1
        17        36     1
        17        37     1
        17        38     1
        17        39     1
        17        40     1
        18        20     1
        18        35     1
        19        23     1
        19        24     1
        19        35     1
        19        36     1
        19        37     1
        19        41     1
        19        42     1
        19        43     1
        20        25     1
        20        29     1
        20        38     1
        20        39     1
        21        23     1
        21        24     1
        22        26     1
        22        28     1
        22        41     1
        22        42     1
        22        43     1
        22        44     1
        22        45     1
        22        50     1
        22        51     1
        23        25     1
        23        29     1
        23        40     1
        24        27     1
        24        40     1
        24        46     1
        24        47     1
        24        48     1
        24        49     1
        25        28     1
        25        50     1
        25        51     1
        26        29     1
        26        48     1
        26        49     1
        27        44     1
        27        45     1
        27        50     1
        27        51     1
        28        46     1
        28        47     1
        29        44     1
        29        45     1
        30        31     1
        32        33     1
        34        35     1
        35        36     1
        35        37     1
        36        38     1
        36        39     1
        37        38     1
        37        39     1
        40        41     1
        40        42     1
        40        43     1
        44        46     1
        44        47     1
        45        46     1
        45        47     1
        48        50     1
        48        51     1
        49        50     1
        49        51     1
