; ITP file created by ByteFF-joint-25, 2025-07-14 11:37:24.894365

[ atomtypes ]
;name           bonded.type        at.num        mass        charge   ptype           sigma         epsilon
 cl0bf                                 17      0.0000       0.00000       A     3.46618e-01     1.10439e+00    ;  uncertainty sigma = 0.000019, epsilon = 0.001243
 c1bf                                   6      0.0000       0.00000       A     3.31525e-01     4.13044e-01    ;  uncertainty sigma = 0.000007, epsilon = 0.000708
 c2bf                                   6      0.0000       0.00000       A     3.31531e-01     4.13404e-01    ;  uncertainty sigma = 0.000013, epsilon = 0.000822
 c3bf                                   6      0.0000       0.00000       A     3.31528e-01     4.13293e-01    ;  uncertainty sigma = 0.000009, epsilon = 0.000974
 c4bf                                   6      0.0000       0.00000       A     3.31509e-01     4.13347e-01    ;  uncertainty sigma = 0.000010, epsilon = 0.000688
 c5bf                                   6      0.0000       0.00000       A     3.31521e-01     4.13677e-01    ;  uncertainty sigma = 0.000020, epsilon = 0.001209
 c6bf                                   6      0.0000       0.00000       A     3.31520e-01     4.13112e-01    ;  uncertainty sigma = 0.000008, epsilon = 0.000438
 c7bf                                   6      0.0000       0.00000       A     3.31525e-01     4.13501e-01    ;  uncertainty sigma = 0.000007, epsilon = 0.000495
 c8bf                                   6      0.0000       0.00000       A     3.31536e-01     4.13825e-01    ;  uncertainty sigma = 0.000028, epsilon = 0.002033
 s9bf                                  16      0.0000       0.00000       A     4.05804e-01     2.57182e-01    ;  uncertainty sigma = 0.000028, epsilon = 0.001566
 o10bf                                  8      0.0000       0.00000       A     3.04888e-01     6.11835e-01    ;  uncertainty sigma = 0.000024, epsilon = 0.001333
 o11bf                                  8      0.0000       0.00000       A     3.04888e-01     6.11835e-01    ;  uncertainty sigma = 0.000024, epsilon = 0.001333
 n12bf                                  7      0.0000       0.00000       A     3.50696e-01     2.18381e-01    ;  uncertainty sigma = 0.000099, epsilon = 0.004115
 c13bf                                  6      0.0000       0.00000       A     3.39783e-01     4.51054e-01    ;  uncertainty sigma = 0.000012, epsilon = 0.001008
 c14bf                                  6      0.0000       0.00000       A     3.39783e-01     4.50616e-01    ;  uncertainty sigma = 0.000012, epsilon = 0.000870
 c15bf                                  6      0.0000       0.00000       A     3.39778e-01     4.51121e-01    ;  uncertainty sigma = 0.000011, epsilon = 0.000952
 c16bf                                  6      0.0000       0.00000       A     3.31503e-01     4.14103e-01    ;  uncertainty sigma = 0.000019, epsilon = 0.001327
 o17bf                                  8      0.0000       0.00000       A     3.04856e-01     6.12000e-01    ;  uncertainty sigma = 0.000014, epsilon = 0.001679
 n18bf                                  7      0.0000       0.00000       A     3.18104e-01     6.84089e-01    ;  uncertainty sigma = 0.000026, epsilon = 0.002216
 c19bf                                  6      0.0000       0.00000       A     3.39765e-01     4.50085e-01    ;  uncertainty sigma = 0.000013, epsilon = 0.000893
 c20bf                                  6      0.0000       0.00000       A     3.39757e-01     4.50850e-01    ;  uncertainty sigma = 0.000009, epsilon = 0.000447
 c21bf                                  6      0.0000       0.00000       A     3.31517e-01     4.12537e-01    ;  uncertainty sigma = 0.000018, epsilon = 0.001350
 o22bf                                  8      0.0000       0.00000       A     3.04822e-01     6.12836e-01    ;  uncertainty sigma = 0.000014, epsilon = 0.000674
 n23bf                                  7      0.0000       0.00000       A     3.18074e-01     6.83799e-01    ;  uncertainty sigma = 0.000019, epsilon = 0.001496
 c24bf                                  6      0.0000       0.00000       A     3.39785e-01     4.50976e-01    ;  uncertainty sigma = 0.000006, epsilon = 0.000726
 c25bf                                  6      0.0000       0.00000       A     3.39786e-01     4.50778e-01    ;  uncertainty sigma = 0.000006, epsilon = 0.000813
 o26bf                                  8      0.0000       0.00000       A     3.15603e-01     3.03473e-01    ;  uncertainty sigma = 0.000014, epsilon = 0.001064
 c27bf                                  6      0.0000       0.00000       A     3.39786e-01     4.50778e-01    ;  uncertainty sigma = 0.000006, epsilon = 0.000813
 c28bf                                  6      0.0000       0.00000       A     3.39785e-01     4.50976e-01    ;  uncertainty sigma = 0.000006, epsilon = 0.000726
 o29bf                                  8      0.0000       0.00000       A     3.15628e-01     3.00074e-01    ;  uncertainty sigma = 0.000047, epsilon = 0.001607
 h30bf                                  1      0.0000       0.00000       A     2.62557e-01     6.70048e-02    ;  uncertainty sigma = 0.000010, epsilon = 0.000489
 h31bf                                  1      0.0000       0.00000       A     2.62564e-01     6.67651e-02    ;  uncertainty sigma = 0.000034, epsilon = 0.000943
 h32bf                                  1      0.0000       0.00000       A     2.62568e-01     6.69799e-02    ;  uncertainty sigma = 0.000010, epsilon = 0.000524
 h33bf                                  1      0.0000       0.00000       A     2.62555e-01     6.70488e-02    ;  uncertainty sigma = 0.000009, epsilon = 0.000697
 h34bf                                  1      0.0000       0.00000       A     1.10630e-01     4.09905e-02    ;  uncertainty sigma = 0.000093, epsilon = 0.002196
 h35bf                                  1      0.0000       0.00000       A     2.42030e-01     8.68574e-02    ;  uncertainty sigma = 0.000019, epsilon = 0.001232
 h36bf                                  1      0.0000       0.00000       A     2.60025e-01     8.63275e-02    ;  uncertainty sigma = 0.000013, epsilon = 0.000679
 h37bf                                  1      0.0000       0.00000       A     2.60025e-01     8.63275e-02    ;  uncertainty sigma = 0.000013, epsilon = 0.000679
 h38bf                                  1      0.0000       0.00000       A     2.42200e-01     8.64335e-02    ;  uncertainty sigma = 0.000011, epsilon = 0.000932
 h39bf                                  1      0.0000       0.00000       A     2.42200e-01     8.64335e-02    ;  uncertainty sigma = 0.000011, epsilon = 0.000932
 h40bf                                  1      0.0000       0.00000       A     2.42203e-01     8.69613e-02    ;  uncertainty sigma = 0.000061, epsilon = 0.001014
 h41bf                                  1      0.0000       0.00000       A     2.60028e-01     8.67689e-02    ;  uncertainty sigma = 0.000014, epsilon = 0.000406
 h42bf                                  1      0.0000       0.00000       A     2.60028e-01     8.67689e-02    ;  uncertainty sigma = 0.000014, epsilon = 0.000406
 h43bf                                  1      0.0000       0.00000       A     2.60028e-01     8.67689e-02    ;  uncertainty sigma = 0.000014, epsilon = 0.000406
 h44bf                                  1      0.0000       0.00000       A     2.42216e-01     8.67300e-02    ;  uncertainty sigma = 0.000014, epsilon = 0.000623
 h45bf                                  1      0.0000       0.00000       A     2.42216e-01     8.67300e-02    ;  uncertainty sigma = 0.000014, epsilon = 0.000623
 h46bf                                  1      0.0000       0.00000       A     2.42211e-01     8.67300e-02    ;  uncertainty sigma = 0.000015, epsilon = 0.000752
 h47bf                                  1      0.0000       0.00000       A     2.42211e-01     8.67300e-02    ;  uncertainty sigma = 0.000015, epsilon = 0.000752
 h48bf                                  1      0.0000       0.00000       A     2.42211e-01     8.67300e-02    ;  uncertainty sigma = 0.000015, epsilon = 0.000752
 h49bf                                  1      0.0000       0.00000       A     2.42211e-01     8.67300e-02    ;  uncertainty sigma = 0.000015, epsilon = 0.000752
 h50bf                                  1      0.0000       0.00000       A     2.42216e-01     8.67300e-02    ;  uncertainty sigma = 0.000014, epsilon = 0.000623
 h51bf                                  1      0.0000       0.00000       A     2.42216e-01     8.67300e-02    ;  uncertainty sigma = 0.000014, epsilon = 0.000623

[ moleculetype ]
;name             nrexcl
 MOL                   3

[ atoms ]
;       nr            type      resi   res      atom      cgnr      charge          mass ; qtot
         1           cl0bf         1   UNL       cl0         1    -0.11690       35.4530 ; qtot   -0.117
         2            c1bf         1   UNL        c1         2     0.05006       12.0110 ; qtot   -0.067
         3            c2bf         1   UNL        c2         3    -0.10540       12.0110 ; qtot   -0.172
         4            c3bf         1   UNL        c3         4     0.09844       12.0110 ; qtot   -0.074
         5            c4bf         1   UNL        c4         5    -0.13184       12.0110 ; qtot   -0.206
         6            c5bf         1   UNL        c5         6    -0.02564       12.0110 ; qtot   -0.231
         7            c6bf         1   UNL        c6         7    -0.05320       12.0110 ; qtot   -0.284
         8            c7bf         1   UNL        c7         8    -0.13795       12.0110 ; qtot   -0.422
         9            c8bf         1   UNL        c8         9    -0.14099       12.0110 ; qtot   -0.563
        10            s9bf         1   UNL        s9        10     1.26269       32.0670 ; qtot    0.699
        11           o10bf         1   UNL       o10        11    -0.58395       15.9990 ; qtot    0.115
        12           o11bf         1   UNL       o11        12    -0.58395       15.9990 ; qtot   -0.469
        13           n12bf         1   UNL       n12        13    -0.77529       14.0070 ; qtot   -1.244
        14           c13bf         1   UNL       c13        14     0.13069       12.0110 ; qtot   -1.113
        15           c14bf         1   UNL       c14        15    -0.09689       12.0110 ; qtot   -1.210
        16           c15bf         1   UNL       c15        16     0.09835       12.0110 ; qtot   -1.112
        17           c16bf         1   UNL       c16        17     0.69386       12.0110 ; qtot   -0.418
        18           o17bf         1   UNL       o17        18    -0.62440       15.9990 ; qtot   -1.042
        19           n18bf         1   UNL       n18        19    -0.46819       14.0070 ; qtot   -1.510
        20           c19bf         1   UNL       c19        20     0.05357       12.0110 ; qtot   -1.457
        21           c20bf         1   UNL       c20        21    -0.09682       12.0110 ; qtot   -1.554
        22           c21bf         1   UNL       c21        22     0.65569       12.0110 ; qtot   -0.898
        23           o22bf         1   UNL       o22        23    -0.59852       15.9990 ; qtot   -1.497
        24           n23bf         1   UNL       n23        24    -0.48329       14.0070 ; qtot   -1.980
        25           c24bf         1   UNL       c24        25     0.06631       12.0110 ; qtot   -1.914
        26           c25bf         1   UNL       c25        26     0.11525       12.0110 ; qtot   -1.798
        27           o26bf         1   UNL       o26        27    -0.41112       15.9990 ; qtot   -2.209
        28           c27bf         1   UNL       c27        28     0.11525       12.0110 ; qtot   -2.094
        29           c28bf         1   UNL       c28        29     0.06631       12.0110 ; qtot   -2.028
        30           o29bf         1   UNL       o29        30    -0.13089       15.9990 ; qtot   -2.159
        31           h30bf         1   UNL       h30        31     0.16915        1.0080 ; qtot   -1.990
        32           h31bf         1   UNL       h31        32     0.18780        1.0080 ; qtot   -1.802
        33           h32bf         1   UNL       h32        33     0.14567        1.0080 ; qtot   -1.656
        34           h33bf         1   UNL       h33        34     0.15046        1.0080 ; qtot   -1.506
        35           h34bf         1   UNL       h34        35     0.43666        1.0080 ; qtot   -1.069
        36           h35bf         1   UNL       h35        36     0.09198        1.0080 ; qtot   -0.977
        37           h36bf         1   UNL       h36        37     0.07326        1.0080 ; qtot   -0.904
        38           h37bf         1   UNL       h37        38     0.07326        1.0080 ; qtot   -0.831
        39           h38bf         1   UNL       h38        39     0.05597        1.0080 ; qtot   -0.775
        40           h39bf         1   UNL       h39        40     0.05597        1.0080 ; qtot   -0.719
        41           h40bf         1   UNL       h40        41     0.08023        1.0080 ; qtot   -0.638
        42           h41bf         1   UNL       h41        42     0.05231        1.0080 ; qtot   -0.586
        43           h42bf         1   UNL       h42        43     0.05231        1.0080 ; qtot   -0.534
        44           h43bf         1   UNL       h43        44     0.05231        1.0080 ; qtot   -0.481
        45           h44bf         1   UNL       h44        45     0.06503        1.0080 ; qtot   -0.416
        46           h45bf         1   UNL       h45        46     0.06503        1.0080 ; qtot   -0.351
        47           h46bf         1   UNL       h46        47     0.05533        1.0080 ; qtot   -0.296
        48           h47bf         1   UNL       h47        48     0.05533        1.0080 ; qtot   -0.241
        49           h48bf         1   UNL       h48        49     0.05533        1.0080 ; qtot   -0.185
        50           h49bf         1   UNL       h49        50     0.05533        1.0080 ; qtot   -0.130
        51           h50bf         1   UNL       h50        51     0.06503        1.0080 ; qtot   -0.065
        52           h51bf         1   UNL       h51        52     0.06501        1.0080 ; qtot    0.000

[ bonds ]
;       ai        aj funct               r               k
         1         2     1        0.175891   195957.412720    ;  uncertainty r = 0.000062, k = 2.915157
         2         3     1        0.139345   363495.214844    ;  uncertainty r = 0.000023, k = 4.678786
         2         8     1        0.140890   343332.415674    ;  uncertainty r = 0.000016, k = 3.175599
         3         4     1        0.138825   364618.643359    ;  uncertainty r = 0.000038, k = 5.646174
         3        31     1        0.108717   336901.737402    ;  uncertainty r = 0.000024, k = 1.096389
         4         5     1        0.141028   368392.747217    ;  uncertainty r = 0.000077, k = 11.878200
         4        30     1        0.137588   307814.152637    ;  uncertainty r = 0.000128, k = 12.950010
         5         6     1        0.144459   287423.690137    ;  uncertainty r = 0.000131, k = 6.020057
         5         7     1        0.140436   363935.142627    ;  uncertainty r = 0.000069, k = 4.377430
         6         9     1        0.136043   410055.366455    ;  uncertainty r = 0.000095, k = 11.595209
         6        32     1        0.108134   338129.178564    ;  uncertainty r = 0.000051, k = 2.134704
         7         8     1        0.139029   373449.299170    ;  uncertainty r = 0.000065, k = 2.980473
         7        33     1        0.108747   334991.050879    ;  uncertainty r = 0.000015, k = 0.487184
         8        34     1        0.108674   336070.453418    ;  uncertainty r = 0.000016, k = 1.485594
         9        10     1        0.176768   188546.543579    ;  uncertainty r = 0.000105, k = 28.822814
         9        30     1        0.137548   261567.673340    ;  uncertainty r = 0.000254, k = 29.095496
        10        11     1        0.146671   504423.131934    ;  uncertainty r = 0.000073, k = 4.181961
        10        12     1        0.146671   504423.131934    ;  uncertainty r = 0.000073, k = 4.181961
        10        13     1        0.170196   156310.475830    ;  uncertainty r = 0.000521, k = 25.640913
        13        14     1        0.145840   327636.210156    ;  uncertainty r = 0.000236, k = 23.759620
        13        35     1        0.102521   451907.854102    ;  uncertainty r = 0.000077, k = 4.408719
        14        15     1        0.153638   217423.076904    ;  uncertainty r = 0.000063, k = 11.264911
        14        17     1        0.152888   205350.714893    ;  uncertainty r = 0.000204, k = 16.716686
        14        36     1        0.109643   310666.647754    ;  uncertainty r = 0.000042, k = 2.363250
        15        16     1        0.154051   219214.019922    ;  uncertainty r = 0.000061, k = 4.273335
        15        37     1        0.109299   310844.386035    ;  uncertainty r = 0.000017, k = 1.748840
        15        38     1        0.109299   310844.386035    ;  uncertainty r = 0.000017, k = 1.748840
        16        19     1        0.146768   246650.400732    ;  uncertainty r = 0.000221, k = 12.930896
        16        39     1        0.109541   305996.165820    ;  uncertainty r = 0.000033, k = 2.444509
        16        40     1        0.109541   305996.165820    ;  uncertainty r = 0.000033, k = 2.444509
        17        18     1        0.123417   694917.965430    ;  uncertainty r = 0.000090, k = 12.430423
        17        19     1        0.136349   286304.756152    ;  uncertainty r = 0.000078, k = 23.105244
        19        20     1        0.145555   281517.671777    ;  uncertainty r = 0.000222, k = 19.681971
        20        21     1        0.153460   212444.030078    ;  uncertainty r = 0.000030, k = 6.319440
        20        22     1        0.154403   218642.780322    ;  uncertainty r = 0.000018, k = 16.462715
        20        41     1        0.109460   310823.190234    ;  uncertainty r = 0.000049, k = 2.513796
        21        42     1        0.109409   312861.000488    ;  uncertainty r = 0.000017, k = 1.141259
        21        43     1        0.109409   312861.000488    ;  uncertainty r = 0.000017, k = 1.141259
        21        44     1        0.109409   312861.000488    ;  uncertainty r = 0.000017, k = 1.141259
        22        23     1        0.123332   703381.882813    ;  uncertainty r = 0.000097, k = 9.602494
        22        24     1        0.136706   308486.621338    ;  uncertainty r = 0.000033, k = 12.395068
        24        25     1        0.146392   254501.759473    ;  uncertainty r = 0.000091, k = 8.526718
        24        29     1        0.146392   254501.759473    ;  uncertainty r = 0.000091, k = 8.526718
        25        26     1        0.152681   207263.227319    ;  uncertainty r = 0.000025, k = 4.718310
        25        45     1        0.109477   308256.276611    ;  uncertainty r = 0.000021, k = 2.245969
        25        46     1        0.109477   308256.276611    ;  uncertainty r = 0.000021, k = 2.245969
        26        27     1        0.142361   276005.563330    ;  uncertainty r = 0.000033, k = 2.914980
        26        47     1        0.109826   309629.075000    ;  uncertainty r = 0.000019, k = 1.877640
        26        48     1        0.109826   309629.075000    ;  uncertainty r = 0.000019, k = 1.877640
        27        28     1        0.142361   276005.563330    ;  uncertainty r = 0.000033, k = 2.914980
        28        29     1        0.152681   207263.227319    ;  uncertainty r = 0.000025, k = 4.718310
        28        49     1        0.109826   309629.075000    ;  uncertainty r = 0.000019, k = 1.877640
        28        50     1        0.109826   309629.100537    ;  uncertainty r = 0.000019, k = 1.877633
        29        51     1        0.109477   308256.276611    ;  uncertainty r = 0.000021, k = 2.245969
        29        52     1        0.109477   308256.251074    ;  uncertainty r = 0.000021, k = 2.245982

[ angles ]
;       ai        aj        ak funct           theta             cth
         1         2         3     1      120.077316      440.760644    ;  uncertainty theta = 0.002018, k = 0.071299
         1         2         8     1      119.621811      454.813939    ;  uncertainty theta = 0.001798, k = 0.082640
         2         3         4     1      114.221642      502.882057    ;  uncertainty theta = 0.002563, k = 0.056325
         2         3        31     1      122.501366      286.973362    ;  uncertainty theta = 0.002890, k = 0.063120
         2         8         7     1      120.929344      509.517587    ;  uncertainty theta = 0.002109, k = 0.098717
         2         8        34     1      119.929764      286.133543    ;  uncertainty theta = 0.001469, k = 0.044632
         3         2         8     1      124.173996      389.861929    ;  uncertainty theta = 0.001519, k = 0.070191
         3         4         5     1      122.882629      352.883492    ;  uncertainty theta = 0.002970, k = 0.150774
         3         4        30     1      124.194107      430.351527    ;  uncertainty theta = 0.002753, k = 0.147261
         4         3        31     1      123.276711      288.637424    ;  uncertainty theta = 0.004517, k = 0.050909
         4         5         6     1      105.283913      678.813268    ;  uncertainty theta = 0.002262, k = 0.109520
         4         5         7     1      115.874985      401.939099    ;  uncertainty theta = 0.003445, k = 0.089163
         4        30         9     1      106.734253      998.944620    ;  uncertainty theta = 0.004928, k = 0.126967
         5         4        30     1      111.076523      683.686068    ;  uncertainty theta = 0.004246, k = 0.146194
         5         6         9     1      105.009201      793.209367    ;  uncertainty theta = 0.002566, k = 0.112522
         5         6        32     1      126.602982      248.289605    ;  uncertainty theta = 0.005824, k = 0.023630
         5         7         8     1      118.718430      537.491543    ;  uncertainty theta = 0.002635, k = 0.161552
         5         7        33     1      121.340927      296.512590    ;  uncertainty theta = 0.002721, k = 0.074835
         6         5         7     1      133.233078      375.585153    ;  uncertainty theta = 0.001879, k = 0.199855
         6         9        10     1      125.705368      261.878747    ;  uncertainty theta = 0.008592, k = 0.477363
         6         9        30     1      114.943260      607.264225    ;  uncertainty theta = 0.006133, k = 0.244559
         7         8        34     1      120.479080      284.209385    ;  uncertainty theta = 0.001578, k = 0.062170
         8         7        33     1      120.159729      280.337544    ;  uncertainty theta = 0.002805, k = 0.043482
         9         6        32     1      124.563759      235.484357    ;  uncertainty theta = 0.005152, k = 0.191643
         9        10        11     1      111.964844      539.594652    ;  uncertainty theta = 0.006251, k = 0.127658
         9        10        12     1      111.964844      539.594652    ;  uncertainty theta = 0.006251, k = 0.127658
         9        10        13     1      103.100670      640.798600    ;  uncertainty theta = 0.005952, k = 0.283067
        10         9        30     1      110.540993      349.533949    ;  uncertainty theta = 0.007639, k = 0.377860
        10        13        14     1      110.290062      422.189611    ;  uncertainty theta = 0.007368, k = 0.149028
        10        13        35     1      111.334496      441.027858    ;  uncertainty theta = 0.004233, k = 0.131286
        11        10        12     1      125.551392      795.754843    ;  uncertainty theta = 0.003348, k = 0.063754
        11        10        13     1      114.335709      822.537014    ;  uncertainty theta = 0.003023, k = 0.063617
        12        10        13     1      114.335709      822.537014    ;  uncertainty theta = 0.003023, k = 0.063617
        13        14        15     1      110.737328      580.238749    ;  uncertainty theta = 0.002456, k = 0.227699
        13        14        17     1      103.338394      506.561060    ;  uncertainty theta = 0.005490, k = 0.108805
        13        14        36     1      105.939819      410.756584    ;  uncertainty theta = 0.005437, k = 0.162143
        14        13        35     1      110.567345      394.715416    ;  uncertainty theta = 0.003906, k = 0.185162
        14        15        16     1      105.080711      704.659887    ;  uncertainty theta = 0.002528, k = 0.166433
        14        15        37     1      108.404762      386.634645    ;  uncertainty theta = 0.000496, k = 0.061889
        14        15        38     1      108.404762      386.634645    ;  uncertainty theta = 0.000496, k = 0.061889
        14        17        18     1      125.974953      461.344288    ;  uncertainty theta = 0.003008, k = 0.150862
        14        17        19     1      111.580551      487.723452    ;  uncertainty theta = 0.004434, k = 0.112665
        15        14        17     1      105.879440      714.704718    ;  uncertainty theta = 0.003411, k = 0.114954
        15        14        36     1      109.316452      381.980188    ;  uncertainty theta = 0.004245, k = 0.168586
        15        16        19     1      104.783669      782.725809    ;  uncertainty theta = 0.002755, k = 0.099545
        15        16        39     1      110.273422      402.520132    ;  uncertainty theta = 0.001363, k = 0.041871
        15        16        40     1      110.273422      402.520132    ;  uncertainty theta = 0.001363, k = 0.041871
        16        15        37     1      109.696510      408.338730    ;  uncertainty theta = 0.001401, k = 0.098939
        16        15        38     1      109.696510      408.338730    ;  uncertainty theta = 0.001401, k = 0.098939
        16        19        17     1      113.800400      558.185412    ;  uncertainty theta = 0.004051, k = 0.196713
        16        19        20     1      116.627670      418.914317    ;  uncertainty theta = 0.004736, k = 0.139254
        17        14        36     1      108.409386      374.080347    ;  uncertainty theta = 0.002074, k = 0.147848
        17        19        20     1      115.859238      394.898134    ;  uncertainty theta = 0.005834, k = 0.223208
        18        17        19     1      126.441208      689.779605    ;  uncertainty theta = 0.003327, k = 0.081511
        19        16        39     1      108.898422      451.460182    ;  uncertainty theta = 0.000848, k = 0.056988
        19        16        40     1      108.898422      451.460182    ;  uncertainty theta = 0.000848, k = 0.056988
        19        20        21     1      110.632401      680.881263    ;  uncertainty theta = 0.005659, k = 0.187610
        19        20        22     1      106.307907      510.576611    ;  uncertainty theta = 0.004206, k = 0.177546
        19        20        41     1      104.193527      439.162245    ;  uncertainty theta = 0.004577, k = 0.070621
        20        21        42     1      107.700577      390.638257    ;  uncertainty theta = 0.001974, k = 0.049172
        20        21        43     1      107.700577      390.638257    ;  uncertainty theta = 0.001974, k = 0.049172
        20        21        44     1      107.700577      390.638257    ;  uncertainty theta = 0.001974, k = 0.049172
        20        22        23     1      123.488663      491.647772    ;  uncertainty theta = 0.006202, k = 0.099047
        20        22        24     1      112.431114      386.828280    ;  uncertainty theta = 0.005821, k = 0.248360
        21        20        22     1      107.996933      498.807419    ;  uncertainty theta = 0.002482, k = 0.128252
        21        20        41     1      108.264465      418.620896    ;  uncertainty theta = 0.003532, k = 0.103854
        22        20        41     1      108.421043      367.404340    ;  uncertainty theta = 0.006220, k = 0.162230
        22        24        25     1      116.829430      363.497960    ;  uncertainty theta = 0.002063, k = 0.124181
        22        24        29     1      116.829430      363.497960    ;  uncertainty theta = 0.002063, k = 0.124181
        23        22        24     1      124.422546      748.757049    ;  uncertainty theta = 0.002982, k = 0.183298
        24        25        26     1      110.182350      714.010875    ;  uncertainty theta = 0.000722, k = 0.109108
        24        25        45     1      108.304482      458.396540    ;  uncertainty theta = 0.000957, k = 0.042005
        24        25        46     1      108.304482      458.396540    ;  uncertainty theta = 0.000957, k = 0.042005
        24        29        28     1      110.182350      714.010875    ;  uncertainty theta = 0.000722, k = 0.109108
        24        29        51     1      108.304482      458.396540    ;  uncertainty theta = 0.000957, k = 0.042005
        24        29        52     1      108.304482      458.396540    ;  uncertainty theta = 0.000957, k = 0.042005
        25        24        29     1      115.684769      415.199370    ;  uncertainty theta = 0.005388, k = 0.132019
        25        26        27     1      111.287369      644.552363    ;  uncertainty theta = 0.002689, k = 0.032587
        25        26        47     1      109.515793      404.665536    ;  uncertainty theta = 0.000894, k = 0.016388
        25        26        48     1      109.515793      404.665536    ;  uncertainty theta = 0.000894, k = 0.016388
        26        25        45     1      109.080734      409.167122    ;  uncertainty theta = 0.000740, k = 0.033495
        26        25        46     1      109.080734      409.167122    ;  uncertainty theta = 0.000740, k = 0.033495
        26        27        28     1      110.179764      541.020197    ;  uncertainty theta = 0.002124, k = 0.077936
        27        26        47     1      107.084984      465.302572    ;  uncertainty theta = 0.000967, k = 0.023146
        27        26        48     1      107.084984      465.302572    ;  uncertainty theta = 0.000967, k = 0.023146
        27        28        29     1      111.287369      644.552363    ;  uncertainty theta = 0.002689, k = 0.032587
        27        28        49     1      107.084984      465.302572    ;  uncertainty theta = 0.000967, k = 0.023146
        27        28        50     1      107.084984      465.302572    ;  uncertainty theta = 0.000967, k = 0.023146
        28        29        51     1      109.080734      409.167122    ;  uncertainty theta = 0.000740, k = 0.033495
        28        29        52     1      109.080734      409.167122    ;  uncertainty theta = 0.000740, k = 0.033495
        29        28        49     1      109.515793      404.665536    ;  uncertainty theta = 0.000894, k = 0.016388
        29        28        50     1      109.515793      404.665536    ;  uncertainty theta = 0.000894, k = 0.016388
        37        15        38     1      106.440086      304.816109    ;  uncertainty theta = 0.003856, k = 0.068106
        39        16        40     1      105.856216      304.101580    ;  uncertainty theta = 0.002097, k = 0.072369
        42        21        43     1      105.685402      315.694087    ;  uncertainty theta = 0.001842, k = 0.014287
        42        21        44     1      105.685402      315.694087    ;  uncertainty theta = 0.001842, k = 0.014287
        43        21        44     1      105.685410      315.694087    ;  uncertainty theta = 0.001842, k = 0.014287
        45        25        46     1      105.962692      319.495222    ;  uncertainty theta = 0.000795, k = 0.039018
        47        26        48     1      107.529320      317.902537    ;  uncertainty theta = 0.001237, k = 0.038568
        49        28        50     1      107.529320      317.902537    ;  uncertainty theta = 0.001237, k = 0.038568
        51        29        52     1      105.962692      319.495222    ;  uncertainty theta = 0.000795, k = 0.039019

[ dihedrals ] ; propers for gromacs 4.5 or higher, use funct 9
;       ai        aj        ak        al funct           phase               k        pn
         1         2         3         4     9        0.000000       -0.100682         1    ;  uncertainty k = 0.172361
         1         2         3         4     9      180.000000       11.500610         2    ;  uncertainty k = 0.454803
         1         2         3         4     9        0.000000        1.512971         3    ;  uncertainty k = 0.392412
         1         2         3         4     9      180.000000        1.573923         4    ;  uncertainty k = 0.164521
         1         2         3        31     9        0.000000       -0.232746         1    ;  uncertainty k = 0.342654
         1         2         3        31     9      180.000000        7.729952         2    ;  uncertainty k = 0.393995
         1         2         3        31     9        0.000000        0.691920         3    ;  uncertainty k = 0.342813
         1         2         3        31     9      180.000000        0.998083         4    ;  uncertainty k = 0.277489
         1         2         8         7     9        0.000000        0.150901         1    ;  uncertainty k = 0.059389
         1         2         8         7     9      180.000000        8.471287         2    ;  uncertainty k = 0.639013
         1         2         8         7     9        0.000000        1.524213         3    ;  uncertainty k = 0.432002
         1         2         8         7     9      180.000000        1.594761         4    ;  uncertainty k = 0.190367
         1         2         8        34     9        0.000000       -0.036141         1    ;  uncertainty k = 0.177489
         1         2         8        34     9      180.000000        7.137593         2    ;  uncertainty k = 0.298541
         1         2         8        34     9        0.000000        0.652008         3    ;  uncertainty k = 0.343141
         1         2         8        34     9      180.000000        0.918090         4    ;  uncertainty k = 0.194245
         2         3         4         5     9        0.000000        0.139178         1    ;  uncertainty k = 0.417114
         2         3         4         5     9      180.000000       12.156115         2    ;  uncertainty k = 0.231684
         2         3         4         5     9        0.000000       -1.186516         3    ;  uncertainty k = 0.234087
         2         3         4         5     9      180.000000        0.908368         4    ;  uncertainty k = 0.218390
         2         3         4        30     9        0.000000        0.660923         1    ;  uncertainty k = 0.575336
         2         3         4        30     9      180.000000       10.107160         2    ;  uncertainty k = 0.657926
         2         3         4        30     9        0.000000        1.388096         3    ;  uncertainty k = 0.251219
         2         3         4        30     9      180.000000        1.523986         4    ;  uncertainty k = 0.310775
         2         8         7         5     9        0.000000       -0.029882         1    ;  uncertainty k = 0.407216
         2         8         7         5     9      180.000000       16.627784         2    ;  uncertainty k = 0.281533
         2         8         7         5     9        0.000000       -0.453576         3    ;  uncertainty k = 0.577442
         2         8         7         5     9      180.000000        0.698180         4    ;  uncertainty k = 0.446090
         2         8         7        33     9        0.000000        0.078431         1    ;  uncertainty k = 0.147040
         2         8         7        33     9      180.000000        8.766917         2    ;  uncertainty k = 0.509105
         2         8         7        33     9        0.000000        1.595720         3    ;  uncertainty k = 0.280767
         2         8         7        33     9      180.000000        1.925169         4    ;  uncertainty k = 0.327385
         3         2         8         7     9        0.000000       -0.000393         1    ;  uncertainty k = 0.274434
         3         2         8         7     9      180.000000        8.738154         2    ;  uncertainty k = 0.467230
         3         2         8         7     9        0.000000       -0.042820         3    ;  uncertainty k = 0.526995
         3         2         8         7     9      180.000000        1.186136         4    ;  uncertainty k = 0.285566
         3         2         8        34     9        0.000000       -0.018926         1    ;  uncertainty k = 0.127573
         3         2         8        34     9      180.000000        5.816172         2    ;  uncertainty k = 0.649760
         3         2         8        34     9        0.000000        1.345953         3    ;  uncertainty k = 0.318715
         3         2         8        34     9      180.000000        1.444455         4    ;  uncertainty k = 0.174248
         3         4         5         6     9        0.000000       -0.261424         1    ;  uncertainty k = 0.407207
         3         4         5         6     9      180.000000        7.821083         2    ;  uncertainty k = 0.425805
         3         4         5         6     9        0.000000        0.194643         3    ;  uncertainty k = 0.520844
         3         4         5         6     9      180.000000        1.217586         4    ;  uncertainty k = 0.216469
         3         4         5         7     9        0.000000       -0.754896         1    ;  uncertainty k = 0.833977
         3         4         5         7     9      180.000000        7.397424         2    ;  uncertainty k = 0.717570
         3         4         5         7     9        0.000000       -0.211844         3    ;  uncertainty k = 0.296413
         3         4         5         7     9      180.000000        1.091312         4    ;  uncertainty k = 0.293514
         3         4        30         9     9        0.000000        0.730695         1    ;  uncertainty k = 1.753408
         3         4        30         9     9      180.000000        6.529903         2    ;  uncertainty k = 0.322574
         3         4        30         9     9        0.000000        0.989228         3    ;  uncertainty k = 0.311181
         3         4        30         9     9      180.000000        0.337608         4    ;  uncertainty k = 0.384747
         4         3         2         8     9        0.000000       -0.008068         1    ;  uncertainty k = 0.110632
         4         3         2         8     9      180.000000       11.478355         2    ;  uncertainty k = 0.413123
         4         3         2         8     9        0.000000        0.218105         3    ;  uncertainty k = 0.524423
         4         3         2         8     9      180.000000        1.182391         4    ;  uncertainty k = 0.402293
         4         5         6         9     9        0.000000        0.523096         1    ;  uncertainty k = 1.355284
         4         5         6         9     9      180.000000       13.448027         2    ;  uncertainty k = 0.837020
         4         5         6         9     9        0.000000       -9.562314         3    ;  uncertainty k = 1.881517
         4         5         6         9     9      180.000000        1.657052         4    ;  uncertainty k = 0.579669
         4         5         6        32     9        0.000000       -0.160275         1    ;  uncertainty k = 1.284496
         4         5         6        32     9      180.000000        8.888815         2    ;  uncertainty k = 1.167308
         4         5         6        32     9        0.000000        0.911080         3    ;  uncertainty k = 0.728692
         4         5         6        32     9      180.000000        0.221762         4    ;  uncertainty k = 0.148421
         4         5         7         8     9        0.000000        0.068581         1    ;  uncertainty k = 0.230989
         4         5         7         8     9      180.000000       13.567001         2    ;  uncertainty k = 0.343954
         4         5         7         8     9        0.000000       -1.884851         3    ;  uncertainty k = 0.542601
         4         5         7         8     9      180.000000        0.695681         4    ;  uncertainty k = 0.149347
         4         5         7        33     9        0.000000       -0.060367         1    ;  uncertainty k = 0.439985
         4         5         7        33     9      180.000000        7.847694         2    ;  uncertainty k = 0.774785
         4         5         7        33     9        0.000000        1.305238         3    ;  uncertainty k = 0.216756
         4         5         7        33     9      180.000000        1.204894         4    ;  uncertainty k = 0.306266
         4        30         9         6     9        0.000000       -0.581835         1    ;  uncertainty k = 0.708902
         4        30         9         6     9      180.000000       13.906900         2    ;  uncertainty k = 0.576948
         4        30         9         6     9        0.000000       -5.096534         3    ;  uncertainty k = 1.482291
         4        30         9         6     9      180.000000        1.092841         4    ;  uncertainty k = 0.408523
         4        30         9        10     9        0.000000        0.381072         1    ;  uncertainty k = 0.503212
         4        30         9        10     9      180.000000        2.831107         2    ;  uncertainty k = 1.188575
         4        30         9        10     9        0.000000        1.593703         3    ;  uncertainty k = 0.291299
         4        30         9        10     9      180.000000        0.265845         4    ;  uncertainty k = 0.295803
         5         4         3        31     9        0.000000        0.115208         1    ;  uncertainty k = 0.293806
         5         4         3        31     9      180.000000        6.310630         2    ;  uncertainty k = 0.849680
         5         4         3        31     9        0.000000        1.417956         3    ;  uncertainty k = 0.206754
         5         4         3        31     9      180.000000        1.382238         4    ;  uncertainty k = 0.237189
         5         4        30         9     9        0.000000        0.008466         1    ;  uncertainty k = 1.174756
         5         4        30         9     9      180.000000       14.375001         2    ;  uncertainty k = 0.458648
         5         4        30         9     9        0.000000       -5.444653         3    ;  uncertainty k = 1.544053
         5         4        30         9     9      180.000000        0.862080         4    ;  uncertainty k = 0.533257
         5         6         9        10     9        0.000000        1.057938         1    ;  uncertainty k = 1.095432
         5         6         9        10     9      180.000000       12.682404         2    ;  uncertainty k = 0.254996
         5         6         9        10     9        0.000000        2.406077         3    ;  uncertainty k = 0.399553
         5         6         9        10     9      180.000000        0.567206         4    ;  uncertainty k = 0.396739
         5         6         9        30     9        0.000000       -0.498692         1    ;  uncertainty k = 0.420474
         5         6         9        30     9      180.000000       21.657963         2    ;  uncertainty k = 0.493555
         5         6         9        30     9        0.000000       -4.905304         3    ;  uncertainty k = 0.543214
         5         6         9        30     9      180.000000        1.279639         4    ;  uncertainty k = 0.732552
         5         7         8        34     9        0.000000        0.030073         1    ;  uncertainty k = 0.323674
         5         7         8        34     9      180.000000       11.463107         2    ;  uncertainty k = 0.280245
         5         7         8        34     9        0.000000        1.590042         3    ;  uncertainty k = 0.208309
         5         7         8        34     9      180.000000        1.696282         4    ;  uncertainty k = 0.301265
         6         5         4        30     9        0.000000       -0.350629         1    ;  uncertainty k = 0.559490
         6         5         4        30     9      180.000000       14.001068         2    ;  uncertainty k = 0.887790
         6         5         4        30     9        0.000000       -3.144996         3    ;  uncertainty k = 0.881273
         6         5         4        30     9      180.000000        1.456372         4    ;  uncertainty k = 0.770179
         6         5         7         8     9        0.000000        0.214005         1    ;  uncertainty k = 0.210009
         6         5         7         8     9      180.000000        8.734828         2    ;  uncertainty k = 0.326741
         6         5         7         8     9        0.000000        0.734540         3    ;  uncertainty k = 0.316039
         6         5         7         8     9      180.000000        1.246827         4    ;  uncertainty k = 0.165181
         6         5         7        33     9        0.000000        0.028625         1    ;  uncertainty k = 0.483749
         6         5         7        33     9      180.000000        5.694970         2    ;  uncertainty k = 0.477821
         6         5         7        33     9        0.000000        0.906458         3    ;  uncertainty k = 0.257603
         6         5         7        33     9      180.000000        0.673619         4    ;  uncertainty k = 0.319582
         6         9        10        11     9        0.000000       -0.147508         1    ;  uncertainty k = 1.907526
         6         9        10        11     9      180.000000        0.778043         2    ;  uncertainty k = 0.562723
         6         9        10        11     9        0.000000        0.143289         3    ;  uncertainty k = 0.079195
         6         9        10        11     9      180.000000        0.101339         4    ;  uncertainty k = 0.234651
         6         9        10        12     9        0.000000       -0.147508         1    ;  uncertainty k = 1.907526
         6         9        10        12     9      180.000000        0.778043         2    ;  uncertainty k = 0.562723
         6         9        10        12     9        0.000000        0.143289         3    ;  uncertainty k = 0.079195
         6         9        10        12     9      180.000000        0.101339         4    ;  uncertainty k = 0.234651
         6         9        10        13     9        0.000000        1.153704         1    ;  uncertainty k = 1.017259
         6         9        10        13     9      180.000000        0.977975         2    ;  uncertainty k = 0.515834
         6         9        10        13     9        0.000000       -0.160334         3    ;  uncertainty k = 0.310531
         6         9        10        13     9      180.000000       -0.040382         4    ;  uncertainty k = 0.183141
         7         5         4        30     9        0.000000        0.125445         1    ;  uncertainty k = 0.084489
         7         5         4        30     9      180.000000        9.286067         2    ;  uncertainty k = 0.134960
         7         5         4        30     9        0.000000        0.066766         3    ;  uncertainty k = 0.456384
         7         5         4        30     9      180.000000        1.355915         4    ;  uncertainty k = 0.400629
         7         5         6         9     9        0.000000       -0.065857         1    ;  uncertainty k = 1.209741
         7         5         6         9     9      180.000000        6.339289         2    ;  uncertainty k = 0.871214
         7         5         6         9     9        0.000000        0.446008         3    ;  uncertainty k = 0.392871
         7         5         6         9     9      180.000000        0.742156         4    ;  uncertainty k = 0.242167
         7         5         6        32     9        0.000000        0.521007         1    ;  uncertainty k = 0.554588
         7         5         6        32     9      180.000000        4.278213         2    ;  uncertainty k = 0.761667
         7         5         6        32     9        0.000000        1.428537         3    ;  uncertainty k = 0.253692
         7         5         6        32     9      180.000000        0.103835         4    ;  uncertainty k = 0.168688
         8         2         3        31     9        0.000000        0.191521         1    ;  uncertainty k = 0.243447
         8         2         3        31     9      180.000000        6.775513         2    ;  uncertainty k = 0.471494
         8         2         3        31     9        0.000000        1.518477         3    ;  uncertainty k = 0.333990
         8         2         3        31     9      180.000000        1.568395         4    ;  uncertainty k = 0.155452
         9        10        13        14     9        0.000000       -4.516809         1    ;  uncertainty k = 1.970484
         9        10        13        14     9      180.000000       -4.488755         2    ;  uncertainty k = 0.469613
         9        10        13        14     9        0.000000        2.081825         3    ;  uncertainty k = 0.751818
         9        10        13        14     9      180.000000       -0.008180         4    ;  uncertainty k = 0.345208
         9        10        13        35     9        0.000000        3.206531         1    ;  uncertainty k = 1.617727
         9        10        13        35     9      180.000000       -5.638393         2    ;  uncertainty k = 1.110496
         9        10        13        35     9        0.000000       -0.977642         3    ;  uncertainty k = 0.771127
         9        10        13        35     9      180.000000       -0.138945         4    ;  uncertainty k = 0.258311
        10         9         6        32     9        0.000000        0.050866         1    ;  uncertainty k = 0.865669
        10         9         6        32     9      180.000000        6.328937         2    ;  uncertainty k = 0.663076
        10         9         6        32     9        0.000000        1.704980         3    ;  uncertainty k = 0.241747
        10         9         6        32     9      180.000000        0.475150         4    ;  uncertainty k = 0.280642
        10        13        14        15     9        0.000000       -3.246744         1    ;  uncertainty k = 1.541471
        10        13        14        15     9      180.000000       -1.463920         2    ;  uncertainty k = 0.893208
        10        13        14        15     9        0.000000        0.532937         3    ;  uncertainty k = 0.245251
        10        13        14        15     9      180.000000        0.004640         4    ;  uncertainty k = 0.169377
        10        13        14        17     9        0.000000        3.474418         1    ;  uncertainty k = 1.557426
        10        13        14        17     9      180.000000       -3.442525         2    ;  uncertainty k = 0.860829
        10        13        14        17     9        0.000000       -0.083172         3    ;  uncertainty k = 0.131202
        10        13        14        17     9      180.000000        0.209629         4    ;  uncertainty k = 0.192242
        10        13        14        36     9        0.000000        2.607194         1    ;  uncertainty k = 1.679865
        10        13        14        36     9      180.000000       -3.156702         2    ;  uncertainty k = 1.184164
        10        13        14        36     9        0.000000        0.291757         3    ;  uncertainty k = 0.358016
        10        13        14        36     9      180.000000        0.054579         4    ;  uncertainty k = 0.087281
        11        10         9        30     9        0.000000        1.161523         1    ;  uncertainty k = 2.846831
        11        10         9        30     9      180.000000        0.699766         2    ;  uncertainty k = 0.220821
        11        10         9        30     9        0.000000        0.959328         3    ;  uncertainty k = 0.228284
        11        10         9        30     9      180.000000        0.163540         4    ;  uncertainty k = 0.144224
        11        10        13        14     9        0.000000        1.436854         1    ;  uncertainty k = 1.398171
        11        10        13        14     9      180.000000        2.445283         2    ;  uncertainty k = 1.006757
        11        10        13        14     9        0.000000        1.486447         3    ;  uncertainty k = 0.508929
        11        10        13        14     9      180.000000       -0.302849         4    ;  uncertainty k = 0.344703
        11        10        13        35     9        0.000000        7.984566         1    ;  uncertainty k = 0.791123
        11        10        13        35     9      180.000000        0.757859         2    ;  uncertainty k = 0.979776
        11        10        13        35     9        0.000000       -0.586903         3    ;  uncertainty k = 0.243988
        11        10        13        35     9      180.000000       -0.145698         4    ;  uncertainty k = 0.212898
        12        10         9        30     9        0.000000        1.161523         1    ;  uncertainty k = 2.846831
        12        10         9        30     9      180.000000        0.699766         2    ;  uncertainty k = 0.220821
        12        10         9        30     9        0.000000        0.959328         3    ;  uncertainty k = 0.228284
        12        10         9        30     9      180.000000        0.163540         4    ;  uncertainty k = 0.144224
        12        10        13        14     9        0.000000        1.436854         1    ;  uncertainty k = 1.398171
        12        10        13        14     9      180.000000        2.445283         2    ;  uncertainty k = 1.006757
        12        10        13        14     9        0.000000        1.486447         3    ;  uncertainty k = 0.508929
        12        10        13        14     9      180.000000       -0.302849         4    ;  uncertainty k = 0.344703
        12        10        13        35     9        0.000000        7.984566         1    ;  uncertainty k = 0.791123
        12        10        13        35     9      180.000000        0.757859         2    ;  uncertainty k = 0.979776
        12        10        13        35     9        0.000000       -0.586903         3    ;  uncertainty k = 0.243988
        12        10        13        35     9      180.000000       -0.145698         4    ;  uncertainty k = 0.212898
        13        10         9        30     9        0.000000        3.472775         1    ;  uncertainty k = 1.996703
        13        10         9        30     9      180.000000       -0.192008         2    ;  uncertainty k = 0.486339
        13        10         9        30     9        0.000000        1.002460         3    ;  uncertainty k = 0.605815
        13        10         9        30     9      180.000000       -0.162638         4    ;  uncertainty k = 0.128744
        13        14        15        16     9        0.000000       -2.759625         1    ;  uncertainty k = 2.015476
        13        14        15        16     9      180.000000        0.091806         2    ;  uncertainty k = 0.479545
        13        14        15        16     9        0.000000        1.184984         3    ;  uncertainty k = 0.351528
        13        14        15        16     9      180.000000       -0.060203         4    ;  uncertainty k = 0.104185
        13        14        15        37     9        0.000000       -0.055760         1    ;  uncertainty k = 0.440228
        13        14        15        37     9      180.000000       -0.116539         2    ;  uncertainty k = 0.245864
        13        14        15        37     9        0.000000        1.213441         3    ;  uncertainty k = 0.208762
        13        14        15        37     9      180.000000        0.028169         4    ;  uncertainty k = 0.161052
        13        14        15        38     9        0.000000       -0.055760         1    ;  uncertainty k = 0.440228
        13        14        15        38     9      180.000000       -0.116539         2    ;  uncertainty k = 0.245864
        13        14        15        38     9        0.000000        1.213441         3    ;  uncertainty k = 0.208762
        13        14        15        38     9      180.000000        0.028169         4    ;  uncertainty k = 0.161052
        13        14        17        18     9        0.000000        0.904180         1    ;  uncertainty k = 1.307520
        13        14        17        18     9      180.000000        5.305142         2    ;  uncertainty k = 0.706472
        13        14        17        18     9        0.000000        0.604076         3    ;  uncertainty k = 0.365826
        13        14        17        18     9      180.000000        0.234753         4    ;  uncertainty k = 0.197670
        13        14        17        19     9        0.000000       -0.885950         1    ;  uncertainty k = 1.095141
        13        14        17        19     9      180.000000        3.478728         2    ;  uncertainty k = 0.714575
        13        14        17        19     9        0.000000        1.144090         3    ;  uncertainty k = 0.341218
        13        14        17        19     9      180.000000        0.413609         4    ;  uncertainty k = 0.198881
        14        15        16        19     9        0.000000       -0.891178         1    ;  uncertainty k = 0.827670
        14        15        16        19     9      180.000000        2.797532         2    ;  uncertainty k = 1.025952
        14        15        16        19     9        0.000000        0.577106         3    ;  uncertainty k = 0.452627
        14        15        16        19     9      180.000000       -1.563583         4    ;  uncertainty k = 0.410086
        14        15        16        39     9        0.000000        0.504661         1    ;  uncertainty k = 0.389245
        14        15        16        39     9      180.000000       -1.457373         2    ;  uncertainty k = 0.271339
        14        15        16        39     9        0.000000       -0.249625         3    ;  uncertainty k = 0.202883
        14        15        16        39     9      180.000000        0.084792         4    ;  uncertainty k = 0.135557
        14        15        16        40     9        0.000000        0.504661         1    ;  uncertainty k = 0.389245
        14        15        16        40     9      180.000000       -1.457373         2    ;  uncertainty k = 0.271339
        14        15        16        40     9        0.000000       -0.249625         3    ;  uncertainty k = 0.202883
        14        15        16        40     9      180.000000        0.084792         4    ;  uncertainty k = 0.135557
        14        17        19        16     9        0.000000        2.429675         1    ;  uncertainty k = 3.342838
        14        17        19        16     9      180.000000        7.699498         2    ;  uncertainty k = 1.167989
        14        17        19        16     9        0.000000        0.568323         3    ;  uncertainty k = 0.589808
        14        17        19        16     9      180.000000        0.261059         4    ;  uncertainty k = 0.391586
        14        17        19        20     9        0.000000        6.255716         1    ;  uncertainty k = 0.722385
        14        17        19        20     9      180.000000        8.672434         2    ;  uncertainty k = 0.733965
        14        17        19        20     9        0.000000        1.740461         3    ;  uncertainty k = 0.552087
        14        17        19        20     9      180.000000       -0.110688         4    ;  uncertainty k = 0.366271
        15        14        13        35     9        0.000000        4.040292         1    ;  uncertainty k = 1.312221
        15        14        13        35     9      180.000000       -3.683484         2    ;  uncertainty k = 0.710025
        15        14        13        35     9        0.000000        0.433477         3    ;  uncertainty k = 0.214486
        15        14        13        35     9      180.000000       -0.026407         4    ;  uncertainty k = 0.108017
        15        14        17        18     9        0.000000       -2.051857         1    ;  uncertainty k = 0.998916
        15        14        17        18     9      180.000000        2.972953         2    ;  uncertainty k = 0.804211
        15        14        17        18     9        0.000000        0.796781         3    ;  uncertainty k = 0.341606
        15        14        17        18     9      180.000000        0.505603         4    ;  uncertainty k = 0.175399
        15        14        17        19     9        0.000000       -3.398115         1    ;  uncertainty k = 1.874464
        15        14        17        19     9      180.000000        5.259115         2    ;  uncertainty k = 1.534947
        15        14        17        19     9        0.000000        0.089699         3    ;  uncertainty k = 0.515034
        15        14        17        19     9      180.000000        0.659145         4    ;  uncertainty k = 0.269773
        15        16        19        17     9        0.000000       -1.271696         1    ;  uncertainty k = 1.646556
        15        16        19        17     9      180.000000        3.031980         2    ;  uncertainty k = 0.927563
        15        16        19        17     9        0.000000       -0.420830         3    ;  uncertainty k = 0.323621
        15        16        19        17     9      180.000000        0.331591         4    ;  uncertainty k = 0.299174
        15        16        19        20     9        0.000000       -0.500053         1    ;  uncertainty k = 1.100375
        15        16        19        20     9      180.000000        1.256366         2    ;  uncertainty k = 0.392406
        15        16        19        20     9        0.000000        1.672566         3    ;  uncertainty k = 0.563027
        15        16        19        20     9      180.000000       -0.085895         4    ;  uncertainty k = 0.253752
        16        15        14        17     9        0.000000       -0.488466         1    ;  uncertainty k = 0.535239
        16        15        14        17     9      180.000000        3.666030         2    ;  uncertainty k = 1.313688
        16        15        14        17     9        0.000000       -0.082917         3    ;  uncertainty k = 0.296345
        16        15        14        17     9      180.000000       -0.135559         4    ;  uncertainty k = 0.240046
        16        15        14        36     9        0.000000       -1.049579         1    ;  uncertainty k = 0.684470
        16        15        14        36     9      180.000000        0.205003         2    ;  uncertainty k = 0.500970
        16        15        14        36     9        0.000000        0.194909         3    ;  uncertainty k = 0.165458
        16        15        14        36     9      180.000000       -0.008334         4    ;  uncertainty k = 0.030143
        16        19        17        18     9        0.000000        1.706007         1    ;  uncertainty k = 1.828933
        16        19        17        18     9      180.000000       15.708326         2    ;  uncertainty k = 0.448233
        16        19        17        18     9        0.000000        1.023144         3    ;  uncertainty k = 0.259184
        16        19        17        18     9      180.000000       -0.722973         4    ;  uncertainty k = 0.243370
        16        19        20        21     9        0.000000       -0.688492         1    ;  uncertainty k = 0.671699
        16        19        20        21     9      180.000000        0.533676         2    ;  uncertainty k = 0.436027
        16        19        20        21     9        0.000000        1.107179         3    ;  uncertainty k = 0.173282
        16        19        20        21     9      180.000000        0.093772         4    ;  uncertainty k = 0.021274
        16        19        20        22     9        0.000000       -0.395089         1    ;  uncertainty k = 0.653414
        16        19        20        22     9      180.000000       -0.350453         2    ;  uncertainty k = 0.414882
        16        19        20        22     9        0.000000        1.165686         3    ;  uncertainty k = 0.166063
        16        19        20        22     9      180.000000        0.181576         4    ;  uncertainty k = 0.126992
        16        19        20        41     9        0.000000       -2.305625         1    ;  uncertainty k = 0.822179
        16        19        20        41     9      180.000000        0.234101         2    ;  uncertainty k = 0.379196
        16        19        20        41     9        0.000000        0.742947         3    ;  uncertainty k = 0.268478
        16        19        20        41     9      180.000000        0.126564         4    ;  uncertainty k = 0.061018
        17        14        13        35     9        0.000000        6.476210         1    ;  uncertainty k = 0.784043
        17        14        13        35     9      180.000000       -5.026705         2    ;  uncertainty k = 0.610111
        17        14        13        35     9        0.000000        0.271759         3    ;  uncertainty k = 0.211758
        17        14        13        35     9      180.000000       -0.031830         4    ;  uncertainty k = 0.171272
        17        14        15        37     9        0.000000       -0.429583         1    ;  uncertainty k = 0.664380
        17        14        15        37     9      180.000000       -0.500022         2    ;  uncertainty k = 0.346121
        17        14        15        37     9        0.000000        0.473993         3    ;  uncertainty k = 0.069615
        17        14        15        37     9      180.000000        0.036040         4    ;  uncertainty k = 0.079720
        17        14        15        38     9        0.000000       -0.429583         1    ;  uncertainty k = 0.664380
        17        14        15        38     9      180.000000       -0.500022         2    ;  uncertainty k = 0.346121
        17        14        15        38     9        0.000000        0.473993         3    ;  uncertainty k = 0.069615
        17        14        15        38     9      180.000000        0.036040         4    ;  uncertainty k = 0.079720
        17        19        16        39     9        0.000000       -0.126021         1    ;  uncertainty k = 0.747628
        17        19        16        39     9      180.000000        0.293972         2    ;  uncertainty k = 0.484269
        17        19        16        39     9        0.000000        0.164615         3    ;  uncertainty k = 0.183342
        17        19        16        39     9      180.000000        0.417669         4    ;  uncertainty k = 0.109232
        17        19        16        40     9        0.000000       -0.126021         1    ;  uncertainty k = 0.747628
        17        19        16        40     9      180.000000        0.293972         2    ;  uncertainty k = 0.484269
        17        19        16        40     9        0.000000        0.164615         3    ;  uncertainty k = 0.183342
        17        19        16        40     9      180.000000        0.417669         4    ;  uncertainty k = 0.109232
        17        19        20        21     9        0.000000        0.832869         1    ;  uncertainty k = 0.469341
        17        19        20        21     9      180.000000        0.390728         2    ;  uncertainty k = 0.304508
        17        19        20        21     9        0.000000        0.474399         3    ;  uncertainty k = 0.139969
        17        19        20        21     9      180.000000        0.242619         4    ;  uncertainty k = 0.127693
        17        19        20        22     9        0.000000        1.833407         1    ;  uncertainty k = 0.853465
        17        19        20        22     9      180.000000        0.209535         2    ;  uncertainty k = 0.537380
        17        19        20        22     9        0.000000       -0.592888         3    ;  uncertainty k = 0.163296
        17        19        20        22     9      180.000000        0.840729         4    ;  uncertainty k = 0.057254
        17        19        20        41     9        0.000000       -0.205144         1    ;  uncertainty k = 0.599169
        17        19        20        41     9      180.000000        0.004804         2    ;  uncertainty k = 0.153471
        17        19        20        41     9        0.000000       -0.044376         3    ;  uncertainty k = 0.129015
        17        19        20        41     9      180.000000        0.266747         4    ;  uncertainty k = 0.031692
        18        17        14        36     9        0.000000       -0.932555         1    ;  uncertainty k = 0.936678
        18        17        14        36     9      180.000000        3.316784         2    ;  uncertainty k = 0.473482
        18        17        14        36     9        0.000000        0.040212         3    ;  uncertainty k = 0.548183
        18        17        14        36     9      180.000000        0.118488         4    ;  uncertainty k = 0.275278
        18        17        19        20     9        0.000000        2.731142         1    ;  uncertainty k = 1.962138
        18        17        19        20     9      180.000000       14.178956         2    ;  uncertainty k = 0.588436
        18        17        19        20     9        0.000000        0.947456         3    ;  uncertainty k = 0.406074
        18        17        19        20     9      180.000000       -0.454871         4    ;  uncertainty k = 0.414263
        19        16        15        37     9        0.000000       -1.829510         1    ;  uncertainty k = 0.456616
        19        16        15        37     9      180.000000        0.325894         2    ;  uncertainty k = 0.435580
        19        16        15        37     9        0.000000        1.355353         3    ;  uncertainty k = 0.143785
        19        16        15        37     9      180.000000        0.074444         4    ;  uncertainty k = 0.249644
        19        16        15        38     9        0.000000       -1.829510         1    ;  uncertainty k = 0.456616
        19        16        15        38     9      180.000000        0.325894         2    ;  uncertainty k = 0.435580
        19        16        15        38     9        0.000000        1.355353         3    ;  uncertainty k = 0.143785
        19        16        15        38     9      180.000000        0.074444         4    ;  uncertainty k = 0.249644
        19        17        14        36     9        0.000000       -2.123555         1    ;  uncertainty k = 2.519287
        19        17        14        36     9      180.000000        2.387444         2    ;  uncertainty k = 0.664597
        19        17        14        36     9        0.000000        0.966558         3    ;  uncertainty k = 0.295403
        19        17        14        36     9      180.000000        0.481989         4    ;  uncertainty k = 0.135683
        19        20        21        42     9        0.000000       -0.041715         1    ;  uncertainty k = 0.086802
        19        20        21        42     9      180.000000       -2.055705         2    ;  uncertainty k = 0.151824
        19        20        21        42     9        0.000000        1.070157         3    ;  uncertainty k = 0.088658
        19        20        21        42     9      180.000000       -0.169755         4    ;  uncertainty k = 0.104081
        19        20        21        43     9        0.000000       -0.041715         1    ;  uncertainty k = 0.086802
        19        20        21        43     9      180.000000       -2.055705         2    ;  uncertainty k = 0.151824
        19        20        21        43     9        0.000000        1.070157         3    ;  uncertainty k = 0.088658
        19        20        21        43     9      180.000000       -0.169755         4    ;  uncertainty k = 0.104081
        19        20        21        44     9        0.000000       -0.041715         1    ;  uncertainty k = 0.086802
        19        20        21        44     9      180.000000       -2.055705         2    ;  uncertainty k = 0.151824
        19        20        21        44     9        0.000000        1.070157         3    ;  uncertainty k = 0.088658
        19        20        21        44     9      180.000000       -0.169755         4    ;  uncertainty k = 0.104081
        19        20        22        23     9        0.000000        0.499396         1    ;  uncertainty k = 0.966558
        19        20        22        23     9      180.000000        6.109033         2    ;  uncertainty k = 0.130985
        19        20        22        23     9        0.000000        1.318031         3    ;  uncertainty k = 0.293046
        19        20        22        23     9      180.000000        0.376941         4    ;  uncertainty k = 0.128880
        19        20        22        24     9        0.000000        1.298771         1    ;  uncertainty k = 0.762727
        19        20        22        24     9      180.000000        3.730132         2    ;  uncertainty k = 0.411538
        19        20        22        24     9        0.000000        0.531949         3    ;  uncertainty k = 0.139911
        19        20        22        24     9      180.000000        0.104606         4    ;  uncertainty k = 0.060875
        20        19        16        39     9        0.000000       -0.171023         1    ;  uncertainty k = 0.466144
        20        19        16        39     9      180.000000       -0.753502         2    ;  uncertainty k = 0.394766
        20        19        16        39     9        0.000000        0.990987         3    ;  uncertainty k = 0.142757
        20        19        16        39     9      180.000000        0.391063         4    ;  uncertainty k = 0.162132
        20        19        16        40     9        0.000000       -0.171023         1    ;  uncertainty k = 0.466144
        20        19        16        40     9      180.000000       -0.753502         2    ;  uncertainty k = 0.394766
        20        19        16        40     9        0.000000        0.990987         3    ;  uncertainty k = 0.142757
        20        19        16        40     9      180.000000        0.391063         4    ;  uncertainty k = 0.162132
        20        22        24        25     9        0.000000        8.299487         1    ;  uncertainty k = 0.269860
        20        22        24        25     9      180.000000        6.005714         2    ;  uncertainty k = 0.421476
        20        22        24        25     9        0.000000        1.159671         3    ;  uncertainty k = 0.227098
        20        22        24        25     9      180.000000        0.103306         4    ;  uncertainty k = 0.158474
        20        22        24        29     9        0.000000        8.299487         1    ;  uncertainty k = 0.269860
        20        22        24        29     9      180.000000        6.005714         2    ;  uncertainty k = 0.421476
        20        22        24        29     9        0.000000        1.159671         3    ;  uncertainty k = 0.227098
        20        22        24        29     9      180.000000        0.103306         4    ;  uncertainty k = 0.158474
        21        20        22        23     9        0.000000       -0.918609         1    ;  uncertainty k = 0.498844
        21        20        22        23     9      180.000000        5.582712         2    ;  uncertainty k = 0.540220
        21        20        22        23     9        0.000000        1.479882         3    ;  uncertainty k = 0.175097
        21        20        22        23     9      180.000000        0.507220         4    ;  uncertainty k = 0.051889
        21        20        22        24     9        0.000000       -2.003223         1    ;  uncertainty k = 0.395192
        21        20        22        24     9      180.000000        3.012685         2    ;  uncertainty k = 0.516173
        21        20        22        24     9        0.000000        0.475109         3    ;  uncertainty k = 0.119059
        21        20        22        24     9      180.000000        0.075564         4    ;  uncertainty k = 0.082587
        22        20        21        42     9        0.000000        1.150537         1    ;  uncertainty k = 0.677576
        22        20        21        42     9      180.000000       -0.924040         2    ;  uncertainty k = 0.241314
        22        20        21        42     9        0.000000        0.735120         3    ;  uncertainty k = 0.069732
        22        20        21        42     9      180.000000       -0.019774         4    ;  uncertainty k = 0.058125
        22        20        21        43     9        0.000000        1.150537         1    ;  uncertainty k = 0.677576
        22        20        21        43     9      180.000000       -0.924040         2    ;  uncertainty k = 0.241314
        22        20        21        43     9        0.000000        0.735120         3    ;  uncertainty k = 0.069732
        22        20        21        43     9      180.000000       -0.019774         4    ;  uncertainty k = 0.058125
        22        20        21        44     9        0.000000        1.150537         1    ;  uncertainty k = 0.677576
        22        20        21        44     9      180.000000       -0.924040         2    ;  uncertainty k = 0.241314
        22        20        21        44     9        0.000000        0.735120         3    ;  uncertainty k = 0.069732
        22        20        21        44     9      180.000000       -0.019774         4    ;  uncertainty k = 0.058125
        22        24        25        26     9        0.000000        0.224961         1    ;  uncertainty k = 0.687788
        22        24        25        26     9      180.000000        0.114129         2    ;  uncertainty k = 0.146198
        22        24        25        26     9        0.000000       -0.233453         3    ;  uncertainty k = 0.126504
        22        24        25        26     9      180.000000        0.299264         4    ;  uncertainty k = 0.131991
        22        24        25        45     9        0.000000        1.489642         1    ;  uncertainty k = 0.595508
        22        24        25        45     9      180.000000       -0.191425         2    ;  uncertainty k = 0.136241
        22        24        25        45     9        0.000000        0.111797         3    ;  uncertainty k = 0.096189
        22        24        25        45     9      180.000000        0.140722         4    ;  uncertainty k = 0.049493
        22        24        25        46     9        0.000000        1.489642         1    ;  uncertainty k = 0.595508
        22        24        25        46     9      180.000000       -0.191425         2    ;  uncertainty k = 0.136241
        22        24        25        46     9        0.000000        0.111797         3    ;  uncertainty k = 0.096189
        22        24        25        46     9      180.000000        0.140722         4    ;  uncertainty k = 0.049493
        22        24        29        28     9        0.000000        0.224961         1    ;  uncertainty k = 0.687788
        22        24        29        28     9      180.000000        0.114129         2    ;  uncertainty k = 0.146198
        22        24        29        28     9        0.000000       -0.233453         3    ;  uncertainty k = 0.126504
        22        24        29        28     9      180.000000        0.299264         4    ;  uncertainty k = 0.131991
        22        24        29        51     9        0.000000        1.489642         1    ;  uncertainty k = 0.595508
        22        24        29        51     9      180.000000       -0.191425         2    ;  uncertainty k = 0.136241
        22        24        29        51     9        0.000000        0.111797         3    ;  uncertainty k = 0.096189
        22        24        29        51     9      180.000000        0.140722         4    ;  uncertainty k = 0.049493
        22        24        29        52     9        0.000000        1.489642         1    ;  uncertainty k = 0.595508
        22        24        29        52     9      180.000000       -0.191425         2    ;  uncertainty k = 0.136241
        22        24        29        52     9        0.000000        0.111797         3    ;  uncertainty k = 0.096189
        22        24        29        52     9      180.000000        0.140722         4    ;  uncertainty k = 0.049493
        23        22        20        41     9        0.000000       -1.193527         1    ;  uncertainty k = 0.618000
        23        22        20        41     9      180.000000        2.843837         2    ;  uncertainty k = 0.359543
        23        22        20        41     9        0.000000        0.832219         3    ;  uncertainty k = 0.209632
        23        22        20        41     9      180.000000        0.162966         4    ;  uncertainty k = 0.077189
        23        22        24        25     9        0.000000        6.603517         1    ;  uncertainty k = 0.334857
        23        22        24        25     9      180.000000       20.577585         2    ;  uncertainty k = 0.086866
        23        22        24        25     9        0.000000        0.266672         3    ;  uncertainty k = 0.142095
        23        22        24        25     9      180.000000       -1.495398         4    ;  uncertainty k = 0.102425
        23        22        24        29     9        0.000000        6.603517         1    ;  uncertainty k = 0.334857
        23        22        24        29     9      180.000000       20.577585         2    ;  uncertainty k = 0.086866
        23        22        24        29     9        0.000000        0.266672         3    ;  uncertainty k = 0.142095
        23        22        24        29     9      180.000000       -1.495398         4    ;  uncertainty k = 0.102425
        24        22        20        41     9        0.000000       -0.546567         1    ;  uncertainty k = 0.607387
        24        22        20        41     9      180.000000        2.439825         2    ;  uncertainty k = 0.362200
        24        22        20        41     9        0.000000        0.108278         3    ;  uncertainty k = 0.047116
        24        22        20        41     9      180.000000        0.170383         4    ;  uncertainty k = 0.050292
        24        25        26        27     9        0.000000        5.353992         1    ;  uncertainty k = 0.675529
        24        25        26        27     9      180.000000       -8.857338         2    ;  uncertainty k = 0.692100
        24        25        26        27     9        0.000000        3.059860         3    ;  uncertainty k = 0.495205
        24        25        26        27     9      180.000000       -0.099186         4    ;  uncertainty k = 0.227903
        24        25        26        47     9        0.000000        4.810866         1    ;  uncertainty k = 0.569234
        24        25        26        47     9      180.000000       -4.025620         2    ;  uncertainty k = 0.699778
        24        25        26        47     9        0.000000        0.136668         3    ;  uncertainty k = 0.307514
        24        25        26        47     9      180.000000        0.448548         4    ;  uncertainty k = 0.208534
        24        25        26        48     9        0.000000        4.810866         1    ;  uncertainty k = 0.569234
        24        25        26        48     9      180.000000       -4.025620         2    ;  uncertainty k = 0.699778
        24        25        26        48     9        0.000000        0.136668         3    ;  uncertainty k = 0.307514
        24        25        26        48     9      180.000000        0.448548         4    ;  uncertainty k = 0.208534
        24        29        28        27     9        0.000000        5.353992         1    ;  uncertainty k = 0.675529
        24        29        28        27     9      180.000000       -8.857338         2    ;  uncertainty k = 0.692100
        24        29        28        27     9        0.000000        3.059860         3    ;  uncertainty k = 0.495205
        24        29        28        27     9      180.000000       -0.099186         4    ;  uncertainty k = 0.227903
        24        29        28        49     9        0.000000        4.810866         1    ;  uncertainty k = 0.569234
        24        29        28        49     9      180.000000       -4.025620         2    ;  uncertainty k = 0.699778
        24        29        28        49     9        0.000000        0.136668         3    ;  uncertainty k = 0.307514
        24        29        28        49     9      180.000000        0.448548         4    ;  uncertainty k = 0.208534
        24        29        28        50     9        0.000000        4.810866         1    ;  uncertainty k = 0.569234
        24        29        28        50     9      180.000000       -4.025620         2    ;  uncertainty k = 0.699778
        24        29        28        50     9        0.000000        0.136668         3    ;  uncertainty k = 0.307514
        24        29        28        50     9      180.000000        0.448548         4    ;  uncertainty k = 0.208534
        25        24        29        28     9        0.000000       -5.632507         1    ;  uncertainty k = 1.372901
        25        24        29        28     9      180.000000        0.820042         2    ;  uncertainty k = 0.457968
        25        24        29        28     9        0.000000        1.551394         3    ;  uncertainty k = 0.353572
        25        24        29        28     9      180.000000       -0.465199         4    ;  uncertainty k = 0.242804
        25        24        29        51     9        0.000000       -5.630831         1    ;  uncertainty k = 1.116973
        25        24        29        51     9      180.000000        1.096405         2    ;  uncertainty k = 0.268716
        25        24        29        51     9        0.000000        1.209015         3    ;  uncertainty k = 0.133163
        25        24        29        51     9      180.000000       -0.230019         4    ;  uncertainty k = 0.154441
        25        24        29        52     9        0.000000       -5.630831         1    ;  uncertainty k = 1.116973
        25        24        29        52     9      180.000000        1.096405         2    ;  uncertainty k = 0.268716
        25        24        29        52     9        0.000000        1.209015         3    ;  uncertainty k = 0.133163
        25        24        29        52     9      180.000000       -0.230019         4    ;  uncertainty k = 0.154441
        25        26        27        28     9        0.000000       -4.283460         1    ;  uncertainty k = 1.346568
        25        26        27        28     9      180.000000        0.019562         2    ;  uncertainty k = 1.048764
        25        26        27        28     9        0.000000        0.786756         3    ;  uncertainty k = 0.331644
        25        26        27        28     9      180.000000       -0.317148         4    ;  uncertainty k = 0.268089
        26        25        24        29     9        0.000000       -5.632507         1    ;  uncertainty k = 1.372901
        26        25        24        29     9      180.000000        0.820042         2    ;  uncertainty k = 0.457968
        26        25        24        29     9        0.000000        1.551394         3    ;  uncertainty k = 0.353572
        26        25        24        29     9      180.000000       -0.465199         4    ;  uncertainty k = 0.242804
        26        27        28        29     9        0.000000       -4.283460         1    ;  uncertainty k = 1.346568
        26        27        28        29     9      180.000000        0.019562         2    ;  uncertainty k = 1.048764
        26        27        28        29     9        0.000000        0.786756         3    ;  uncertainty k = 0.331644
        26        27        28        29     9      180.000000       -0.317148         4    ;  uncertainty k = 0.268089
        26        27        28        49     9        0.000000       -5.824736         1    ;  uncertainty k = 1.874994
        26        27        28        49     9      180.000000        0.612519         2    ;  uncertainty k = 0.237167
        26        27        28        49     9        0.000000        0.759446         3    ;  uncertainty k = 0.174537
        26        27        28        49     9      180.000000       -0.645283         4    ;  uncertainty k = 0.153493
        26        27        28        50     9        0.000000       -5.824736         1    ;  uncertainty k = 1.874994
        26        27        28        50     9      180.000000        0.612519         2    ;  uncertainty k = 0.237167
        26        27        28        50     9        0.000000        0.759446         3    ;  uncertainty k = 0.174537
        26        27        28        50     9      180.000000       -0.645283         4    ;  uncertainty k = 0.153493
        27        26        25        45     9        0.000000        0.912216         1    ;  uncertainty k = 0.334790
        27        26        25        45     9      180.000000       -0.812586         2    ;  uncertainty k = 0.665020
        27        26        25        45     9        0.000000        1.061498         3    ;  uncertainty k = 0.198448
        27        26        25        45     9      180.000000        0.211215         4    ;  uncertainty k = 0.255400
        27        26        25        46     9        0.000000        0.912216         1    ;  uncertainty k = 0.334790
        27        26        25        46     9      180.000000       -0.812586         2    ;  uncertainty k = 0.665020
        27        26        25        46     9        0.000000        1.061498         3    ;  uncertainty k = 0.198448
        27        26        25        46     9      180.000000        0.211215         4    ;  uncertainty k = 0.255400
        27        28        29        51     9        0.000000        0.912216         1    ;  uncertainty k = 0.334790
        27        28        29        51     9      180.000000       -0.812586         2    ;  uncertainty k = 0.665020
        27        28        29        51     9        0.000000        1.061498         3    ;  uncertainty k = 0.198448
        27        28        29        51     9      180.000000        0.211215         4    ;  uncertainty k = 0.255400
        27        28        29        52     9        0.000000        0.912216         1    ;  uncertainty k = 0.334790
        27        28        29        52     9      180.000000       -0.812586         2    ;  uncertainty k = 0.665020
        27        28        29        52     9        0.000000        1.061498         3    ;  uncertainty k = 0.198448
        27        28        29        52     9      180.000000        0.211215         4    ;  uncertainty k = 0.255400
        28        27        26        47     9        0.000000       -5.824736         1    ;  uncertainty k = 1.874994
        28        27        26        47     9      180.000000        0.612519         2    ;  uncertainty k = 0.237167
        28        27        26        47     9        0.000000        0.759446         3    ;  uncertainty k = 0.174537
        28        27        26        47     9      180.000000       -0.645283         4    ;  uncertainty k = 0.153493
        28        27        26        48     9        0.000000       -5.824736         1    ;  uncertainty k = 1.874994
        28        27        26        48     9      180.000000        0.612519         2    ;  uncertainty k = 0.237167
        28        27        26        48     9        0.000000        0.759446         3    ;  uncertainty k = 0.174537
        28        27        26        48     9      180.000000       -0.645283         4    ;  uncertainty k = 0.153493
        29        24        25        45     9        0.000000       -5.630831         1    ;  uncertainty k = 1.116973
        29        24        25        45     9      180.000000        1.096405         2    ;  uncertainty k = 0.268716
        29        24        25        45     9        0.000000        1.209015         3    ;  uncertainty k = 0.133163
        29        24        25        45     9      180.000000       -0.230019         4    ;  uncertainty k = 0.154441
        29        24        25        46     9        0.000000       -5.630831         1    ;  uncertainty k = 1.116973
        29        24        25        46     9      180.000000        1.096405         2    ;  uncertainty k = 0.268716
        29        24        25        46     9        0.000000        1.209015         3    ;  uncertainty k = 0.133163
        29        24        25        46     9      180.000000       -0.230019         4    ;  uncertainty k = 0.154441
        30         4         3        31     9        0.000000        0.222219         1    ;  uncertainty k = 0.209859
        30         4         3        31     9      180.000000        6.660324         2    ;  uncertainty k = 0.455890
        30         4         3        31     9        0.000000        1.119972         3    ;  uncertainty k = 0.410292
        30         4         3        31     9      180.000000        0.935398         4    ;  uncertainty k = 0.425579
        30         9         6        32     9        0.000000        0.469509         1    ;  uncertainty k = 0.622552
        30         9         6        32     9      180.000000       15.127470         2    ;  uncertainty k = 0.259800
        30         9         6        32     9        0.000000        1.741285         3    ;  uncertainty k = 0.715965
        30         9         6        32     9      180.000000        1.091417         4    ;  uncertainty k = 0.173675
        33         7         8        34     9        0.000000       -0.012181         1    ;  uncertainty k = 0.184853
        33         7         8        34     9      180.000000        7.989300         2    ;  uncertainty k = 0.374288
        33         7         8        34     9        0.000000       -0.212146         3    ;  uncertainty k = 0.215860
        33         7         8        34     9      180.000000        0.136006         4    ;  uncertainty k = 0.154401
        35        13        14        36     9        0.000000        4.306250         1    ;  uncertainty k = 1.216596
        35        13        14        36     9      180.000000       -2.465028         2    ;  uncertainty k = 0.437038
        35        13        14        36     9        0.000000        0.255303         3    ;  uncertainty k = 0.222846
        35        13        14        36     9      180.000000        0.149991         4    ;  uncertainty k = 0.112690
        36        14        15        37     9        0.000000        0.651267         1    ;  uncertainty k = 0.240581
        36        14        15        37     9      180.000000       -0.601621         2    ;  uncertainty k = 0.145668
        36        14        15        37     9        0.000000        0.566462         3    ;  uncertainty k = 0.099315
        36        14        15        37     9      180.000000        0.057892         4    ;  uncertainty k = 0.065068
        36        14        15        38     9        0.000000        0.651267         1    ;  uncertainty k = 0.240581
        36        14        15        38     9      180.000000       -0.601621         2    ;  uncertainty k = 0.145668
        36        14        15        38     9        0.000000        0.566462         3    ;  uncertainty k = 0.099315
        36        14        15        38     9      180.000000        0.057892         4    ;  uncertainty k = 0.065068
        37        15        16        39     9        0.000000        0.823414         1    ;  uncertainty k = 0.215557
        37        15        16        39     9      180.000000       -0.170976         2    ;  uncertainty k = 0.266678
        37        15        16        39     9        0.000000        0.469348         3    ;  uncertainty k = 0.038030
        37        15        16        39     9      180.000000        0.043270         4    ;  uncertainty k = 0.022809
        37        15        16        40     9        0.000000        0.823414         1    ;  uncertainty k = 0.215557
        37        15        16        40     9      180.000000       -0.170976         2    ;  uncertainty k = 0.266678
        37        15        16        40     9        0.000000        0.469348         3    ;  uncertainty k = 0.038030
        37        15        16        40     9      180.000000        0.043270         4    ;  uncertainty k = 0.022809
        38        15        16        39     9        0.000000        0.823414         1    ;  uncertainty k = 0.215557
        38        15        16        39     9      180.000000       -0.170976         2    ;  uncertainty k = 0.266678
        38        15        16        39     9        0.000000        0.469348         3    ;  uncertainty k = 0.038030
        38        15        16        39     9      180.000000        0.043270         4    ;  uncertainty k = 0.022809
        38        15        16        40     9        0.000000        0.823414         1    ;  uncertainty k = 0.215557
        38        15        16        40     9      180.000000       -0.170976         2    ;  uncertainty k = 0.266678
        38        15        16        40     9        0.000000        0.469348         3    ;  uncertainty k = 0.038030
        38        15        16        40     9      180.000000        0.043270         4    ;  uncertainty k = 0.022809
        41        20        21        42     9        0.000000        0.143668         1    ;  uncertainty k = 0.287689
        41        20        21        42     9      180.000000       -0.308389         2    ;  uncertainty k = 0.120561
        41        20        21        42     9        0.000000        0.423570         3    ;  uncertainty k = 0.126378
        41        20        21        42     9      180.000000       -0.021121         4    ;  uncertainty k = 0.092887
        41        20        21        43     9        0.000000        0.143668         1    ;  uncertainty k = 0.287689
        41        20        21        43     9      180.000000       -0.308389         2    ;  uncertainty k = 0.120561
        41        20        21        43     9        0.000000        0.423570         3    ;  uncertainty k = 0.126378
        41        20        21        43     9      180.000000       -0.021121         4    ;  uncertainty k = 0.092887
        41        20        21        44     9        0.000000        0.143668         1    ;  uncertainty k = 0.287689
        41        20        21        44     9      180.000000       -0.308389         2    ;  uncertainty k = 0.120561
        41        20        21        44     9        0.000000        0.423570         3    ;  uncertainty k = 0.126378
        41        20        21        44     9      180.000000       -0.021121         4    ;  uncertainty k = 0.092887
        45        25        26        47     9        0.000000       -2.278074         1    ;  uncertainty k = 1.043178
        45        25        26        47     9      180.000000        1.532748         2    ;  uncertainty k = 0.718723
        45        25        26        47     9        0.000000       -0.092826         3    ;  uncertainty k = 0.085920
        45        25        26        47     9      180.000000       -0.789690         4    ;  uncertainty k = 0.177408
        45        25        26        48     9        0.000000       -2.278074         1    ;  uncertainty k = 1.043178
        45        25        26        48     9      180.000000        1.532748         2    ;  uncertainty k = 0.718723
        45        25        26        48     9        0.000000       -0.092826         3    ;  uncertainty k = 0.085920
        45        25        26        48     9      180.000000       -0.789690         4    ;  uncertainty k = 0.177408
        46        25        26        47     9        0.000000       -2.278074         1    ;  uncertainty k = 1.043178
        46        25        26        47     9      180.000000        1.532748         2    ;  uncertainty k = 0.718723
        46        25        26        47     9        0.000000       -0.092826         3    ;  uncertainty k = 0.085920
        46        25        26        47     9      180.000000       -0.789690         4    ;  uncertainty k = 0.177408
        46        25        26        48     9        0.000000       -2.278074         1    ;  uncertainty k = 1.043178
        46        25        26        48     9      180.000000        1.532748         2    ;  uncertainty k = 0.718723
        46        25        26        48     9        0.000000       -0.092826         3    ;  uncertainty k = 0.085920
        46        25        26        48     9      180.000000       -0.789690         4    ;  uncertainty k = 0.177408
        49        28        29        51     9        0.000000       -2.278074         1    ;  uncertainty k = 1.043178
        49        28        29        51     9      180.000000        1.532748         2    ;  uncertainty k = 0.718723
        49        28        29        51     9        0.000000       -0.092826         3    ;  uncertainty k = 0.085920
        49        28        29        51     9      180.000000       -0.789690         4    ;  uncertainty k = 0.177408
        49        28        29        52     9        0.000000       -2.278074         1    ;  uncertainty k = 1.043178
        49        28        29        52     9      180.000000        1.532748         2    ;  uncertainty k = 0.718723
        49        28        29        52     9        0.000000       -0.092826         3    ;  uncertainty k = 0.085920
        49        28        29        52     9      180.000000       -0.789690         4    ;  uncertainty k = 0.177408
        50        28        29        51     9        0.000000       -2.278074         1    ;  uncertainty k = 1.043178
        50        28        29        51     9      180.000000        1.532748         2    ;  uncertainty k = 0.718723
        50        28        29        51     9        0.000000       -0.092826         3    ;  uncertainty k = 0.085920
        50        28        29        51     9      180.000000       -0.789690         4    ;  uncertainty k = 0.177408
        50        28        29        52     9        0.000000       -2.278074         1    ;  uncertainty k = 1.043178
        50        28        29        52     9      180.000000        1.532748         2    ;  uncertainty k = 0.718723
        50        28        29        52     9        0.000000       -0.092826         3    ;  uncertainty k = 0.085920
        50        28        29        52     9      180.000000       -0.789690         4    ;  uncertainty k = 0.177408

[ dihedrals ] ; impropers
;       ai        aj        ak        al funct           phase               k        pn
         2         1         3         8     4      180.000000       12.950364         2    ;  uncertainty k = 0.046451
         2         3         8         1     4      180.000000       12.950364         2    ;  uncertainty k = 0.046451
         2         8         1         3     4      180.000000       12.950364         2    ;  uncertainty k = 0.046451
         3         2         4        31     4      180.000000        2.681493         2    ;  uncertainty k = 0.103313
         3         4        31         2     4      180.000000        2.681493         2    ;  uncertainty k = 0.103313
         3        31         2         4     4      180.000000        2.681493         2    ;  uncertainty k = 0.103313
         4         3         5        30     4      180.000000        1.797416         2    ;  uncertainty k = 0.465028
         4         5        30         3     4      180.000000        1.797416         2    ;  uncertainty k = 0.465028
         4        30         3         5     4      180.000000        1.797416         2    ;  uncertainty k = 0.465028
         5         4         6         7     4      180.000000        0.045297         2    ;  uncertainty k = 0.101286
         5         6         7         4     4      180.000000        0.045297         2    ;  uncertainty k = 0.101286
         5         7         4         6     4      180.000000        0.045297         2    ;  uncertainty k = 0.101286
         6         5         9        32     4      180.000000        2.206830         2    ;  uncertainty k = 0.485988
         6         9        32         5     4      180.000000        2.206830         2    ;  uncertainty k = 0.485988
         6        32         5         9     4      180.000000        2.206830         2    ;  uncertainty k = 0.485988
         7         5         8        33     4      180.000000        5.413956         2    ;  uncertainty k = 0.193426
         7         8        33         5     4      180.000000        5.413956         2    ;  uncertainty k = 0.193426
         7        33         5         8     4      180.000000        5.413956         2    ;  uncertainty k = 0.193426
         8         2         7        34     4      180.000000        2.943168         2    ;  uncertainty k = 0.133445
         8         7        34         2     4      180.000000        2.943168         2    ;  uncertainty k = 0.133445
         8        34         2         7     4      180.000000        2.943168         2    ;  uncertainty k = 0.133445
         9         6        10        30     4      180.000000        1.530137         2    ;  uncertainty k = 0.877142
         9        10        30         6     4      180.000000        1.530137         2    ;  uncertainty k = 0.877142
         9        30         6        10     4      180.000000        1.530137         2    ;  uncertainty k = 0.877142
        17        14        18        19     4      180.000000       48.900324         2    ;  uncertainty k = 0.036870
        17        18        19        14     4      180.000000       48.900324         2    ;  uncertainty k = 0.036870
        17        19        14        18     4      180.000000       48.900324         2    ;  uncertainty k = 0.036870
        22        20        23        24     4      180.000000       50.108480         2    ;  uncertainty k = 0.051863
        22        23        24        20     4      180.000000       50.108480         2    ;  uncertainty k = 0.051863
        22        24        20        23     4      180.000000       50.108480         2    ;  uncertainty k = 0.051863

[ pairs ]
;       ai        aj funct
         1         4     1
         1         7     1
         1        31     1
         1        34     1
         2         5     1
         2        30     1
         2        33     1
         3         6     1
         3         7     1
         3         9     1
         3        34     1
         4         8     1
         4        10     1
         4        32     1
         4        33     1
         5        10     1
         5        31     1
         5        34     1
         6         8     1
         6        11     1
         6        12     1
         6        13     1
         6        33     1
         7         9     1
         7        30     1
         7        32     1
         8        31     1
         9        14     1
         9        35     1
        10        15     1
        10        17     1
        10        32     1
        10        36     1
        11        14     1
        11        30     1
        11        35     1
        12        14     1
        12        30     1
        12        35     1
        13        16     1
        13        18     1
        13        19     1
        13        30     1
        13        37     1
        13        38     1
        14        20     1
        14        39     1
        14        40     1
        15        18     1
        15        20     1
        15        35     1
        16        18     1
        16        21     1
        16        22     1
        16        36     1
        16        41     1
        17        21     1
        17        22     1
        17        35     1
        17        37     1
        17        38     1
        17        39     1
        17        40     1
        17        41     1
        18        20     1
        18        36     1
        19        23     1
        19        24     1
        19        36     1
        19        37     1
        19        38     1
        19        42     1
        19        43     1
        19        44     1
        20        25     1
        20        29     1
        20        39     1
        20        40     1
        21        23     1
        21        24     1
        22        26     1
        22        28     1
        22        42     1
        22        43     1
        22        44     1
        22        45     1
        22        46     1
        22        51     1
        22        52     1
        23        25     1
        23        29     1
        23        41     1
        24        27     1
        24        41     1
        24        47     1
        24        48     1
        24        49     1
        24        50     1
        25        28     1
        25        51     1
        25        52     1
        26        29     1
        26        49     1
        26        50     1
        27        45     1
        27        46     1
        27        51     1
        27        52     1
        28        47     1
        28        48     1
        29        45     1
        29        46     1
        30        31     1
        30        32     1
        33        34     1
        35        36     1
        36        37     1
        36        38     1
        37        39     1
        37        40     1
        38        39     1
        38        40     1
        41        42     1
        41        43     1
        41        44     1
        45        47     1
        45        48     1
        46        47     1
        46        48     1
        49        51     1
        49        52     1
        50        51     1
        50        52     1
