; ITP file created by ByteFF-joint-25, 2025-07-14 11:37:25.216656

[ atomtypes ]
;name           bonded.type        at.num        mass        charge   ptype           sigma         epsilon
 cl0bf                                 17      0.0000       0.00000       A     3.46604e-01     1.10364e+00    ;  uncertainty sigma = 0.000028, epsilon = 0.000638
 c1bf                                   6      0.0000       0.00000       A     3.31520e-01     4.13177e-01    ;  uncertainty sigma = 0.000006, epsilon = 0.000612
 c2bf                                   6      0.0000       0.00000       A     3.31524e-01     4.13409e-01    ;  uncertainty sigma = 0.000007, epsilon = 0.000594
 c3bf                                   6      0.0000       0.00000       A     3.31523e-01     4.13055e-01    ;  uncertainty sigma = 0.000009, epsilon = 0.000882
 c4bf                                   6      0.0000       0.00000       A     3.31542e-01     4.12860e-01    ;  uncertainty sigma = 0.000006, epsilon = 0.001052
 c5bf                                   6      0.0000       0.00000       A     3.31578e-01     4.11967e-01    ;  uncertainty sigma = 0.000022, epsilon = 0.000800
 n6bf                                   7      0.0000       0.00000       A     3.38419e-01     3.93669e-01    ;  uncertainty sigma = 0.000009, epsilon = 0.000777
 c7bf                                   6      0.0000       0.00000       A     3.31518e-01     4.13454e-01    ;  uncertainty sigma = 0.000004, epsilon = 0.000642
 c8bf                                   6      0.0000       0.00000       A     3.31472e-01     4.12106e-01    ;  uncertainty sigma = 0.000026, epsilon = 0.001206
 s9bf                                  16      0.0000       0.00000       A     4.05879e-01     2.57739e-01    ;  uncertainty sigma = 0.000024, epsilon = 0.002701
 o10bf                                  8      0.0000       0.00000       A     3.04844e-01     6.12080e-01    ;  uncertainty sigma = 0.000030, epsilon = 0.001157
 o11bf                                  8      0.0000       0.00000       A     3.04844e-01     6.12080e-01    ;  uncertainty sigma = 0.000030, epsilon = 0.001157
 n12bf                                  7      0.0000       0.00000       A     3.50737e-01     2.17907e-01    ;  uncertainty sigma = 0.000090, epsilon = 0.003822
 c13bf                                  6      0.0000       0.00000       A     3.39784e-01     4.51033e-01    ;  uncertainty sigma = 0.000012, epsilon = 0.001003
 c14bf                                  6      0.0000       0.00000       A     3.39783e-01     4.50616e-01    ;  uncertainty sigma = 0.000012, epsilon = 0.000870
 c15bf                                  6      0.0000       0.00000       A     3.39778e-01     4.51121e-01    ;  uncertainty sigma = 0.000011, epsilon = 0.000952
 c16bf                                  6      0.0000       0.00000       A     3.31503e-01     4.14103e-01    ;  uncertainty sigma = 0.000019, epsilon = 0.001327
 o17bf                                  8      0.0000       0.00000       A     3.04856e-01     6.12000e-01    ;  uncertainty sigma = 0.000014, epsilon = 0.001679
 n18bf                                  7      0.0000       0.00000       A     3.18104e-01     6.84089e-01    ;  uncertainty sigma = 0.000026, epsilon = 0.002216
 c19bf                                  6      0.0000       0.00000       A     3.39765e-01     4.50085e-01    ;  uncertainty sigma = 0.000013, epsilon = 0.000893
 c20bf                                  6      0.0000       0.00000       A     3.39757e-01     4.50850e-01    ;  uncertainty sigma = 0.000009, epsilon = 0.000447
 c21bf                                  6      0.0000       0.00000       A     3.31517e-01     4.12537e-01    ;  uncertainty sigma = 0.000018, epsilon = 0.001350
 o22bf                                  8      0.0000       0.00000       A     3.04822e-01     6.12836e-01    ;  uncertainty sigma = 0.000014, epsilon = 0.000674
 n23bf                                  7      0.0000       0.00000       A     3.18074e-01     6.83799e-01    ;  uncertainty sigma = 0.000019, epsilon = 0.001496
 c24bf                                  6      0.0000       0.00000       A     3.39785e-01     4.50976e-01    ;  uncertainty sigma = 0.000006, epsilon = 0.000726
 c25bf                                  6      0.0000       0.00000       A     3.39786e-01     4.50778e-01    ;  uncertainty sigma = 0.000006, epsilon = 0.000813
 o26bf                                  8      0.0000       0.00000       A     3.15603e-01     3.03473e-01    ;  uncertainty sigma = 0.000014, epsilon = 0.001064
 c27bf                                  6      0.0000       0.00000       A     3.39786e-01     4.50778e-01    ;  uncertainty sigma = 0.000006, epsilon = 0.000813
 c28bf                                  6      0.0000       0.00000       A     3.39785e-01     4.50976e-01    ;  uncertainty sigma = 0.000006, epsilon = 0.000726
 s29bf                                 16      0.0000       0.00000       A     3.53292e-01     1.18162e+00    ;  uncertainty sigma = 0.000023, epsilon = 0.005416
 h30bf                                  1      0.0000       0.00000       A     2.62595e-01     6.70950e-02    ;  uncertainty sigma = 0.000025, epsilon = 0.000653
 h31bf                                  1      0.0000       0.00000       A     2.62553e-01     6.69554e-02    ;  uncertainty sigma = 0.000036, epsilon = 0.000785
 h32bf                                  1      0.0000       0.00000       A     2.53654e-01     6.70626e-02    ;  uncertainty sigma = 0.000020, epsilon = 0.000384
 h33bf                                  1      0.0000       0.00000       A     1.10633e-01     4.09566e-02    ;  uncertainty sigma = 0.000099, epsilon = 0.002184
 h34bf                                  1      0.0000       0.00000       A     2.42030e-01     8.68574e-02    ;  uncertainty sigma = 0.000019, epsilon = 0.001232
 h35bf                                  1      0.0000       0.00000       A     2.60025e-01     8.63275e-02    ;  uncertainty sigma = 0.000013, epsilon = 0.000679
 h36bf                                  1      0.0000       0.00000       A     2.60025e-01     8.63275e-02    ;  uncertainty sigma = 0.000013, epsilon = 0.000679
 h37bf                                  1      0.0000       0.00000       A     2.42200e-01     8.64335e-02    ;  uncertainty sigma = 0.000011, epsilon = 0.000932
 h38bf                                  1      0.0000       0.00000       A     2.42200e-01     8.64335e-02    ;  uncertainty sigma = 0.000011, epsilon = 0.000932
 h39bf                                  1      0.0000       0.00000       A     2.42203e-01     8.69613e-02    ;  uncertainty sigma = 0.000061, epsilon = 0.001014
 h40bf                                  1      0.0000       0.00000       A     2.60028e-01     8.67689e-02    ;  uncertainty sigma = 0.000014, epsilon = 0.000406
 h41bf                                  1      0.0000       0.00000       A     2.60028e-01     8.67689e-02    ;  uncertainty sigma = 0.000014, epsilon = 0.000406
 h42bf                                  1      0.0000       0.00000       A     2.60028e-01     8.67689e-02    ;  uncertainty sigma = 0.000014, epsilon = 0.000406
 h43bf                                  1      0.0000       0.00000       A     2.42216e-01     8.67300e-02    ;  uncertainty sigma = 0.000014, epsilon = 0.000623
 h44bf                                  1      0.0000       0.00000       A     2.42216e-01     8.67300e-02    ;  uncertainty sigma = 0.000014, epsilon = 0.000623
 h45bf                                  1      0.0000       0.00000       A     2.42211e-01     8.67300e-02    ;  uncertainty sigma = 0.000015, epsilon = 0.000752
 h46bf                                  1      0.0000       0.00000       A     2.42211e-01     8.67300e-02    ;  uncertainty sigma = 0.000015, epsilon = 0.000752
 h47bf                                  1      0.0000       0.00000       A     2.42211e-01     8.67300e-02    ;  uncertainty sigma = 0.000015, epsilon = 0.000752
 h48bf                                  1      0.0000       0.00000       A     2.42211e-01     8.67301e-02    ;  uncertainty sigma = 0.000015, epsilon = 0.000752
 h49bf                                  1      0.0000       0.00000       A     2.42216e-01     8.67299e-02    ;  uncertainty sigma = 0.000014, epsilon = 0.000623
 h50bf                                  1      0.0000       0.00000       A     2.42216e-01     8.67299e-02    ;  uncertainty sigma = 0.000014, epsilon = 0.000623

[ moleculetype ]
;name             nrexcl
 MOL                   3

[ atoms ]
;       nr            type      resi   res      atom      cgnr      charge          mass ; qtot
         1           cl0bf         1   UNL       cl0         1    -0.09516       35.4530 ; qtot   -0.095
         2            c1bf         1   UNL        c1         2    -0.09198       12.0110 ; qtot   -0.187
         3            c2bf         1   UNL        c2         3    -0.04203       12.0110 ; qtot   -0.229
         4            c3bf         1   UNL        c3         4    -0.12111       12.0110 ; qtot   -0.350
         5            c4bf         1   UNL        c4         5     0.40569       12.0110 ; qtot    0.055
         6            c5bf         1   UNL        c5         6    -0.08336       12.0110 ; qtot   -0.028
         7            n6bf         1   UNL        n6         7    -0.61318       14.0070 ; qtot   -0.641
         8            c7bf         1   UNL        c7         8     0.41977       12.0110 ; qtot   -0.221
         9            c8bf         1   UNL        c8         9    -0.24351       12.0110 ; qtot   -0.465
        10            s9bf         1   UNL        s9        10     1.25795       32.0670 ; qtot    0.793
        11           o10bf         1   UNL       o10        11    -0.58940       15.9990 ; qtot    0.204
        12           o11bf         1   UNL       o11        12    -0.58940       15.9990 ; qtot   -0.386
        13           n12bf         1   UNL       n12        13    -0.77023       14.0070 ; qtot   -1.156
        14           c13bf         1   UNL       c13        14     0.12770       12.0110 ; qtot   -1.028
        15           c14bf         1   UNL       c14        15    -0.09711       12.0110 ; qtot   -1.125
        16           c15bf         1   UNL       c15        16     0.09835       12.0110 ; qtot   -1.027
        17           c16bf         1   UNL       c16        17     0.69359       12.0110 ; qtot   -0.333
        18           o17bf         1   UNL       o17        18    -0.62440       15.9990 ; qtot   -0.958
        19           n18bf         1   UNL       n18        19    -0.46819       14.0070 ; qtot   -1.426
        20           c19bf         1   UNL       c19        20     0.05357       12.0110 ; qtot   -1.372
        21           c20bf         1   UNL       c20        21    -0.09682       12.0110 ; qtot   -1.469
        22           c21bf         1   UNL       c21        22     0.65569       12.0110 ; qtot   -0.814
        23           o22bf         1   UNL       o22        23    -0.59852       15.9990 ; qtot   -1.412
        24           n23bf         1   UNL       n23        24    -0.48329       14.0070 ; qtot   -1.895
        25           c24bf         1   UNL       c24        25     0.06631       12.0110 ; qtot   -1.829
        26           c25bf         1   UNL       c25        26     0.11525       12.0110 ; qtot   -1.714
        27           o26bf         1   UNL       o26        27    -0.41112       15.9990 ; qtot   -2.125
        28           c27bf         1   UNL       c27        28     0.11525       12.0110 ; qtot   -2.010
        29           c28bf         1   UNL       c28        29     0.06631       12.0110 ; qtot   -1.943
        30           s29bf         1   UNL       s29        30     0.05086       32.0670 ; qtot   -1.893
        31           h30bf         1   UNL       h30        31     0.16214        1.0080 ; qtot   -1.730
        32           h31bf         1   UNL       h31        32     0.18922        1.0080 ; qtot   -1.541
        33           h32bf         1   UNL       h32        33     0.03929        1.0080 ; qtot   -1.502
        34           h33bf         1   UNL       h33        34     0.43318        1.0080 ; qtot   -1.069
        35           h34bf         1   UNL       h34        35     0.09162        1.0080 ; qtot   -0.977
        36           h35bf         1   UNL       h35        36     0.07326        1.0080 ; qtot   -0.904
        37           h36bf         1   UNL       h36        37     0.07326        1.0080 ; qtot   -0.831
        38           h37bf         1   UNL       h37        38     0.05597        1.0080 ; qtot   -0.775
        39           h38bf         1   UNL       h38        39     0.05597        1.0080 ; qtot   -0.719
        40           h39bf         1   UNL       h39        40     0.08023        1.0080 ; qtot   -0.638
        41           h40bf         1   UNL       h40        41     0.05231        1.0080 ; qtot   -0.586
        42           h41bf         1   UNL       h41        42     0.05231        1.0080 ; qtot   -0.534
        43           h42bf         1   UNL       h42        43     0.05231        1.0080 ; qtot   -0.481
        44           h43bf         1   UNL       h43        44     0.06503        1.0080 ; qtot   -0.416
        45           h44bf         1   UNL       h44        45     0.06503        1.0080 ; qtot   -0.351
        46           h45bf         1   UNL       h45        46     0.05533        1.0080 ; qtot   -0.296
        47           h46bf         1   UNL       h46        47     0.05533        1.0080 ; qtot   -0.241
        48           h47bf         1   UNL       h47        48     0.05533        1.0080 ; qtot   -0.185
        49           h48bf         1   UNL       h48        49     0.05533        1.0080 ; qtot   -0.130
        50           h49bf         1   UNL       h49        50     0.06503        1.0080 ; qtot   -0.065
        51           h50bf         1   UNL       h50        51     0.06504        1.0080 ; qtot   -0.000

[ bonds ]
;       ai        aj funct               r               k
         1         2     1        0.175379   196394.020679    ;  uncertainty r = 0.000060, k = 4.166537
         2         3     1        0.139002   368470.252344    ;  uncertainty r = 0.000067, k = 2.571284
         2         8     1        0.141038   331012.701221    ;  uncertainty r = 0.000075, k = 22.818166
         3         4     1        0.139433   368397.573730    ;  uncertainty r = 0.000068, k = 8.801526
         3        31     1        0.108739   335723.225342    ;  uncertainty r = 0.000031, k = 2.139465
         4         5     1        0.142063   355455.034717    ;  uncertainty r = 0.000132, k = 4.817653
         4        30     1        0.175119   179148.989478    ;  uncertainty r = 0.000078, k = 15.984687
         5         6     1        0.144373   264687.567529    ;  uncertainty r = 0.000236, k = 32.542080
         5         7     1        0.134844   397434.160889    ;  uncertainty r = 0.000154, k = 8.721015
         6         9     1        0.135995   420415.720654    ;  uncertainty r = 0.000088, k = 7.499725
         6        32     1        0.108434   335403.143213    ;  uncertainty r = 0.000020, k = 2.185003
         7         8     1        0.132674   409475.980518    ;  uncertainty r = 0.000091, k = 8.673031
         8        33     1        0.108962   338358.246436    ;  uncertainty r = 0.000031, k = 2.666665
         9        10     1        0.177546   147571.740845    ;  uncertainty r = 0.000070, k = 11.579614
         9        30     1        0.175509   177364.111523    ;  uncertainty r = 0.000130, k = 12.388142
        10        11     1        0.146894   524770.538867    ;  uncertainty r = 0.000078, k = 10.487247
        10        12     1        0.146894   524770.538867    ;  uncertainty r = 0.000078, k = 10.487247
        10        13     1        0.170635   173145.049072    ;  uncertainty r = 0.000445, k = 42.717621
        13        14     1        0.145853   325967.513281    ;  uncertainty r = 0.000227, k = 23.567368
        13        34     1        0.102503   452537.088477    ;  uncertainty r = 0.000066, k = 4.496044
        14        15     1        0.153642   217518.943213    ;  uncertainty r = 0.000058, k = 11.337290
        14        17     1        0.152882   205251.311694    ;  uncertainty r = 0.000200, k = 16.619787
        14        35     1        0.109645   310616.620557    ;  uncertainty r = 0.000043, k = 2.401328
        15        16     1        0.154051   219214.019922    ;  uncertainty r = 0.000061, k = 4.273335
        15        36     1        0.109299   310844.386035    ;  uncertainty r = 0.000017, k = 1.748840
        15        37     1        0.109299   310844.386035    ;  uncertainty r = 0.000017, k = 1.748840
        16        19     1        0.146768   246650.400732    ;  uncertainty r = 0.000221, k = 12.930896
        16        38     1        0.109541   305996.165820    ;  uncertainty r = 0.000033, k = 2.444509
        16        39     1        0.109541   305996.165820    ;  uncertainty r = 0.000033, k = 2.444509
        17        18     1        0.123417   694917.965430    ;  uncertainty r = 0.000090, k = 12.430423
        17        19     1        0.136349   286304.756152    ;  uncertainty r = 0.000078, k = 23.105244
        19        20     1        0.145555   281517.671777    ;  uncertainty r = 0.000222, k = 19.681971
        20        21     1        0.153460   212444.030078    ;  uncertainty r = 0.000030, k = 6.319440
        20        22     1        0.154403   218642.780322    ;  uncertainty r = 0.000018, k = 16.462715
        20        40     1        0.109460   310823.190234    ;  uncertainty r = 0.000049, k = 2.513796
        21        41     1        0.109409   312861.000488    ;  uncertainty r = 0.000017, k = 1.141259
        21        42     1        0.109409   312861.000488    ;  uncertainty r = 0.000017, k = 1.141259
        21        43     1        0.109409   312861.000488    ;  uncertainty r = 0.000017, k = 1.141259
        22        23     1        0.123332   703381.882813    ;  uncertainty r = 0.000097, k = 9.602494
        22        24     1        0.136706   308486.621338    ;  uncertainty r = 0.000033, k = 12.395068
        24        25     1        0.146392   254501.759473    ;  uncertainty r = 0.000091, k = 8.526718
        24        29     1        0.146392   254501.759473    ;  uncertainty r = 0.000091, k = 8.526718
        25        26     1        0.152681   207263.227319    ;  uncertainty r = 0.000025, k = 4.718310
        25        44     1        0.109477   308256.276611    ;  uncertainty r = 0.000021, k = 2.245969
        25        45     1        0.109477   308256.276611    ;  uncertainty r = 0.000021, k = 2.245969
        26        27     1        0.142361   276005.563330    ;  uncertainty r = 0.000033, k = 2.914980
        26        46     1        0.109826   309629.075000    ;  uncertainty r = 0.000019, k = 1.877640
        26        47     1        0.109826   309629.075000    ;  uncertainty r = 0.000019, k = 1.877640
        27        28     1        0.142361   276005.563330    ;  uncertainty r = 0.000033, k = 2.914980
        28        29     1        0.152681   207263.227319    ;  uncertainty r = 0.000025, k = 4.718310
        28        48     1        0.109826   309629.075000    ;  uncertainty r = 0.000019, k = 1.877640
        28        49     1        0.109826   309629.075000    ;  uncertainty r = 0.000019, k = 1.877640
        29        50     1        0.109477   308256.251074    ;  uncertainty r = 0.000021, k = 2.245982
        29        51     1        0.109477   308256.276611    ;  uncertainty r = 0.000021, k = 2.245969

[ angles ]
;       ai        aj        ak funct           theta             cth
         1         2         3     1      121.056885      435.841846    ;  uncertainty theta = 0.001757, k = 0.153246
         1         2         8     1      119.495911      424.933478    ;  uncertainty theta = 0.001057, k = 0.169632
         2         3         4     1      115.379257      509.188159    ;  uncertainty theta = 0.003113, k = 0.152212
         2         3        31     1      121.607986      285.262376    ;  uncertainty theta = 0.002566, k = 0.124417
         2         8         7     1      123.633461      658.989257    ;  uncertainty theta = 0.001797, k = 0.105757
         2         8        33     1      120.389236      276.238487    ;  uncertainty theta = 0.001608, k = 0.098106
         3         2         8     1      122.457947      358.345753    ;  uncertainty theta = 0.001946, k = 0.244175
         3         4         5     1      118.002098      382.261766    ;  uncertainty theta = 0.005769, k = 0.142687
         3         4        30     1      127.553001      372.562261    ;  uncertainty theta = 0.006634, k = 0.105503
         4         3        31     1      123.201439      286.265282    ;  uncertainty theta = 0.001377, k = 0.088013
         4         5         6     1      112.562096      581.181835    ;  uncertainty theta = 0.003423, k = 0.347919
         4         5         7     1      121.919205      530.454793    ;  uncertainty theta = 0.004146, k = 0.161685
         4        30         9     1       89.155624     1170.434034    ;  uncertainty theta = 0.005128, k = 0.084000
         5         4        30     1      112.032852      497.236887    ;  uncertainty theta = 0.003219, k = 0.128749
         5         6         9     1      110.903259      679.287365    ;  uncertainty theta = 0.001686, k = 0.133012
         5         6        32     1      123.582542      252.607037    ;  uncertainty theta = 0.002347, k = 0.251159
         5         7         8     1      115.919456      450.458617    ;  uncertainty theta = 0.004819, k = 0.192372
         6         5         7     1      125.529747      448.686246    ;  uncertainty theta = 0.005730, k = 0.196430
         6         9        10     1      121.647141      300.092893    ;  uncertainty theta = 0.006431, k = 0.119223
         6         9        30     1      115.101181      446.507228    ;  uncertainty theta = 0.013644, k = 0.131960
         7         8        33     1      116.886292      338.147399    ;  uncertainty theta = 0.002543, k = 0.098724
         9         6        32     1      122.706299      242.153932    ;  uncertainty theta = 0.001954, k = 0.154214
         9        10        11     1      112.586342      585.991175    ;  uncertainty theta = 0.003907, k = 0.143109
         9        10        12     1      112.586342      585.991175    ;  uncertainty theta = 0.003907, k = 0.143109
         9        10        13     1      104.396851      645.359400    ;  uncertainty theta = 0.005519, k = 0.204090
        10         9        30     1      118.145042      336.311568    ;  uncertainty theta = 0.008153, k = 0.245611
        10        13        14     1      110.282471      418.357640    ;  uncertainty theta = 0.005350, k = 0.111693
        10        13        34     1      111.016151      439.757802    ;  uncertainty theta = 0.004101, k = 0.108137
        11        10        12     1      125.233780      796.026877    ;  uncertainty theta = 0.002447, k = 0.083500
        11        10        13     1      113.832970      815.277963    ;  uncertainty theta = 0.004058, k = 0.111799
        12        10        13     1      113.832970      815.277963    ;  uncertainty theta = 0.004058, k = 0.111799
        13        14        15     1      110.813522      582.281973    ;  uncertainty theta = 0.002117, k = 0.221116
        13        14        17     1      103.397507      504.632274    ;  uncertainty theta = 0.004719, k = 0.106833
        13        14        35     1      106.020554      411.108038    ;  uncertainty theta = 0.005220, k = 0.125690
        14        13        34     1      110.428833      398.947873    ;  uncertainty theta = 0.003145, k = 0.174897
        14        15        16     1      105.090881      704.961481    ;  uncertainty theta = 0.002584, k = 0.163493
        14        15        36     1      108.412819      386.708288    ;  uncertainty theta = 0.000541, k = 0.060988
        14        15        37     1      108.412819      386.708288    ;  uncertainty theta = 0.000541, k = 0.060988
        14        17        18     1      125.981590      461.544531    ;  uncertainty theta = 0.003053, k = 0.152205
        14        17        19     1      111.585571      487.843636    ;  uncertainty theta = 0.004459, k = 0.113759
        15        14        17     1      105.885330      714.826147    ;  uncertainty theta = 0.003343, k = 0.112684
        15        14        35     1      109.294922      381.983316    ;  uncertainty theta = 0.004209, k = 0.166193
        15        16        19     1      104.783669      782.725809    ;  uncertainty theta = 0.002755, k = 0.099545
        15        16        38     1      110.273422      402.520132    ;  uncertainty theta = 0.001363, k = 0.041871
        15        16        39     1      110.273422      402.520132    ;  uncertainty theta = 0.001363, k = 0.041871
        16        15        36     1      109.696510      408.338730    ;  uncertainty theta = 0.001401, k = 0.098939
        16        15        37     1      109.696510      408.338730    ;  uncertainty theta = 0.001401, k = 0.098939
        16        19        17     1      113.800400      558.185412    ;  uncertainty theta = 0.004051, k = 0.196713
        16        19        20     1      116.627670      418.914317    ;  uncertainty theta = 0.004736, k = 0.139254
        17        14        35     1      108.395241      373.986370    ;  uncertainty theta = 0.002018, k = 0.148961
        17        19        20     1      115.859238      394.898134    ;  uncertainty theta = 0.005834, k = 0.223208
        18        17        19     1      126.441208      689.779605    ;  uncertainty theta = 0.003327, k = 0.081511
        19        16        38     1      108.898422      451.460182    ;  uncertainty theta = 0.000848, k = 0.056988
        19        16        39     1      108.898422      451.460182    ;  uncertainty theta = 0.000848, k = 0.056988
        19        20        21     1      110.632401      680.881263    ;  uncertainty theta = 0.005659, k = 0.187610
        19        20        22     1      106.307907      510.576611    ;  uncertainty theta = 0.004206, k = 0.177546
        19        20        40     1      104.193527      439.162245    ;  uncertainty theta = 0.004577, k = 0.070621
        20        21        41     1      107.700577      390.638257    ;  uncertainty theta = 0.001974, k = 0.049172
        20        21        42     1      107.700577      390.638257    ;  uncertainty theta = 0.001974, k = 0.049172
        20        21        43     1      107.700577      390.638257    ;  uncertainty theta = 0.001974, k = 0.049172
        20        22        23     1      123.488663      491.647772    ;  uncertainty theta = 0.006202, k = 0.099047
        20        22        24     1      112.431114      386.828280    ;  uncertainty theta = 0.005821, k = 0.248360
        21        20        22     1      107.996933      498.807419    ;  uncertainty theta = 0.002482, k = 0.128252
        21        20        40     1      108.264465      418.620896    ;  uncertainty theta = 0.003532, k = 0.103854
        22        20        40     1      108.421043      367.404340    ;  uncertainty theta = 0.006220, k = 0.162230
        22        24        25     1      116.829430      363.497960    ;  uncertainty theta = 0.002063, k = 0.124181
        22        24        29     1      116.829430      363.497960    ;  uncertainty theta = 0.002063, k = 0.124181
        23        22        24     1      124.422546      748.757049    ;  uncertainty theta = 0.002982, k = 0.183298
        24        25        26     1      110.182350      714.010875    ;  uncertainty theta = 0.000722, k = 0.109108
        24        25        44     1      108.304482      458.396540    ;  uncertainty theta = 0.000957, k = 0.042005
        24        25        45     1      108.304482      458.396540    ;  uncertainty theta = 0.000957, k = 0.042005
        24        29        28     1      110.182350      714.010875    ;  uncertainty theta = 0.000722, k = 0.109108
        24        29        50     1      108.304482      458.396540    ;  uncertainty theta = 0.000957, k = 0.042005
        24        29        51     1      108.304482      458.396540    ;  uncertainty theta = 0.000957, k = 0.042005
        25        24        29     1      115.684769      415.199370    ;  uncertainty theta = 0.005388, k = 0.132019
        25        26        27     1      111.287369      644.552363    ;  uncertainty theta = 0.002689, k = 0.032587
        25        26        46     1      109.515793      404.665536    ;  uncertainty theta = 0.000894, k = 0.016388
        25        26        47     1      109.515793      404.665536    ;  uncertainty theta = 0.000894, k = 0.016388
        26        25        44     1      109.080734      409.167122    ;  uncertainty theta = 0.000740, k = 0.033495
        26        25        45     1      109.080734      409.167122    ;  uncertainty theta = 0.000740, k = 0.033495
        26        27        28     1      110.179764      541.020197    ;  uncertainty theta = 0.002124, k = 0.077936
        27        26        46     1      107.084984      465.302572    ;  uncertainty theta = 0.000967, k = 0.023146
        27        26        47     1      107.084984      465.302572    ;  uncertainty theta = 0.000967, k = 0.023146
        27        28        29     1      111.287369      644.552363    ;  uncertainty theta = 0.002689, k = 0.032587
        27        28        48     1      107.084984      465.302572    ;  uncertainty theta = 0.000967, k = 0.023146
        27        28        49     1      107.084984      465.302572    ;  uncertainty theta = 0.000967, k = 0.023146
        28        29        50     1      109.080734      409.167122    ;  uncertainty theta = 0.000740, k = 0.033495
        28        29        51     1      109.080734      409.167122    ;  uncertainty theta = 0.000740, k = 0.033495
        29        28        48     1      109.515793      404.665536    ;  uncertainty theta = 0.000894, k = 0.016388
        29        28        49     1      109.515793      404.665536    ;  uncertainty theta = 0.000894, k = 0.016388
        36        15        37     1      106.440086      304.816109    ;  uncertainty theta = 0.003856, k = 0.068106
        38        16        39     1      105.856216      304.101580    ;  uncertainty theta = 0.002097, k = 0.072369
        41        21        42     1      105.685402      315.694087    ;  uncertainty theta = 0.001842, k = 0.014287
        41        21        43     1      105.685402      315.694087    ;  uncertainty theta = 0.001842, k = 0.014287
        42        21        43     1      105.685402      315.694087    ;  uncertainty theta = 0.001842, k = 0.014287
        44        25        45     1      105.962692      319.495222    ;  uncertainty theta = 0.000795, k = 0.039018
        46        26        47     1      107.529320      317.902537    ;  uncertainty theta = 0.001237, k = 0.038568
        48        28        49     1      107.529320      317.902537    ;  uncertainty theta = 0.001237, k = 0.038569
        50        29        51     1      105.962692      319.495222    ;  uncertainty theta = 0.000795, k = 0.039019

[ dihedrals ] ; propers for gromacs 4.5 or higher, use funct 9
;       ai        aj        ak        al funct           phase               k        pn
         1         2         3         4     9        0.000000       -0.007799         1    ;  uncertainty k = 0.210268
         1         2         3         4     9      180.000000       11.882298         2    ;  uncertainty k = 0.165455
         1         2         3         4     9        0.000000        1.370819         3    ;  uncertainty k = 0.377933
         1         2         3         4     9      180.000000        1.561676         4    ;  uncertainty k = 0.180742
         1         2         3        31     9        0.000000       -0.246471         1    ;  uncertainty k = 0.349300
         1         2         3        31     9      180.000000        8.080156         2    ;  uncertainty k = 0.497906
         1         2         3        31     9        0.000000        0.724839         3    ;  uncertainty k = 0.353334
         1         2         3        31     9      180.000000        0.925009         4    ;  uncertainty k = 0.222932
         1         2         8         7     9        0.000000       -0.059745         1    ;  uncertainty k = 0.511017
         1         2         8         7     9      180.000000        8.996949         2    ;  uncertainty k = 0.534278
         1         2         8         7     9        0.000000        1.174125         3    ;  uncertainty k = 0.199331
         1         2         8         7     9      180.000000        1.586818         4    ;  uncertainty k = 0.190502
         1         2         8        33     9        0.000000        0.094625         1    ;  uncertainty k = 0.366540
         1         2         8        33     9      180.000000        5.782323         2    ;  uncertainty k = 0.167321
         1         2         8        33     9        0.000000        0.607990         3    ;  uncertainty k = 0.236644
         1         2         8        33     9      180.000000        0.819890         4    ;  uncertainty k = 0.214780
         2         3         4         5     9        0.000000       -0.064819         1    ;  uncertainty k = 0.447886
         2         3         4         5     9      180.000000       12.376246         2    ;  uncertainty k = 0.334243
         2         3         4         5     9        0.000000       -0.920075         3    ;  uncertainty k = 0.068514
         2         3         4         5     9      180.000000        0.944388         4    ;  uncertainty k = 0.256737
         2         3         4        30     9        0.000000        0.393190         1    ;  uncertainty k = 0.525383
         2         3         4        30     9      180.000000        9.559354         2    ;  uncertainty k = 0.702962
         2         3         4        30     9        0.000000        1.065965         3    ;  uncertainty k = 0.408493
         2         3         4        30     9      180.000000        1.350275         4    ;  uncertainty k = 0.384278
         2         8         7         5     9        0.000000        0.123385         1    ;  uncertainty k = 0.678999
         2         8         7         5     9      180.000000       17.412277         2    ;  uncertainty k = 0.254895
         2         8         7         5     9        0.000000        1.308399         3    ;  uncertainty k = 0.465877
         2         8         7         5     9      180.000000        1.619768         4    ;  uncertainty k = 0.257620
         3         2         8         7     9        0.000000       -0.422036         1    ;  uncertainty k = 0.237199
         3         2         8         7     9      180.000000        9.633473         2    ;  uncertainty k = 0.463690
         3         2         8         7     9        0.000000       -0.448641         3    ;  uncertainty k = 0.520968
         3         2         8         7     9      180.000000        1.144317         4    ;  uncertainty k = 0.221441
         3         2         8        33     9        0.000000       -0.553461         1    ;  uncertainty k = 0.292948
         3         2         8        33     9      180.000000        4.432616         2    ;  uncertainty k = 0.575668
         3         2         8        33     9        0.000000        0.951974         3    ;  uncertainty k = 0.188583
         3         2         8        33     9      180.000000        1.145496         4    ;  uncertainty k = 0.271898
         3         4         5         6     9        0.000000        0.071576         1    ;  uncertainty k = 0.858270
         3         4         5         6     9      180.000000        8.438559         2    ;  uncertainty k = 0.704060
         3         4         5         6     9        0.000000        0.297393         3    ;  uncertainty k = 0.594744
         3         4         5         6     9      180.000000        1.117312         4    ;  uncertainty k = 0.241118
         3         4         5         7     9        0.000000       -0.179214         1    ;  uncertainty k = 0.576985
         3         4         5         7     9      180.000000        9.580431         2    ;  uncertainty k = 0.379723
         3         4         5         7     9        0.000000       -0.006704         3    ;  uncertainty k = 0.208352
         3         4         5         7     9      180.000000        1.193934         4    ;  uncertainty k = 0.283980
         3         4        30         9     9        0.000000       -0.337615         1    ;  uncertainty k = 1.976948
         3         4        30         9     9      180.000000        6.700796         2    ;  uncertainty k = 1.580705
         3         4        30         9     9        0.000000        0.778311         3    ;  uncertainty k = 0.340533
         3         4        30         9     9      180.000000        0.580828         4    ;  uncertainty k = 0.483415
         4         3         2         8     9        0.000000       -0.038752         1    ;  uncertainty k = 0.139261
         4         3         2         8     9      180.000000       11.205559         2    ;  uncertainty k = 0.509325
         4         3         2         8     9        0.000000       -0.041277         3    ;  uncertainty k = 0.497709
         4         3         2         8     9      180.000000        1.105760         4    ;  uncertainty k = 0.406541
         4         5         6         9     9        0.000000       -0.419402         1    ;  uncertainty k = 0.760172
         4         5         6         9     9      180.000000       11.644219         2    ;  uncertainty k = 0.739805
         4         5         6         9     9        0.000000       -4.041853         3    ;  uncertainty k = 0.875019
         4         5         6         9     9      180.000000        1.072906         4    ;  uncertainty k = 0.442992
         4         5         6        32     9        0.000000       -0.233766         1    ;  uncertainty k = 0.879701
         4         5         6        32     9      180.000000        6.963571         2    ;  uncertainty k = 0.495656
         4         5         6        32     9        0.000000        0.820769         3    ;  uncertainty k = 0.791061
         4         5         6        32     9      180.000000        0.384906         4    ;  uncertainty k = 0.283187
         4         5         7         8     9        0.000000       -0.038714         1    ;  uncertainty k = 0.412891
         4         5         7         8     9      180.000000       15.561630         2    ;  uncertainty k = 0.303929
         4         5         7         8     9        0.000000        0.554224         3    ;  uncertainty k = 0.371258
         4         5         7         8     9      180.000000        1.144422         4    ;  uncertainty k = 0.198534
         4        30         9         6     9        0.000000       -0.738549         1    ;  uncertainty k = 1.153643
         4        30         9         6     9      180.000000       13.173931         2    ;  uncertainty k = 0.303317
         4        30         9         6     9        0.000000       -6.052461         3    ;  uncertainty k = 0.681292
         4        30         9         6     9      180.000000        1.205307         4    ;  uncertainty k = 0.758105
         4        30         9        10     9        0.000000        1.431397         1    ;  uncertainty k = 1.531529
         4        30         9        10     9      180.000000        6.377948         2    ;  uncertainty k = 0.892055
         4        30         9        10     9        0.000000        1.402048         3    ;  uncertainty k = 0.165487
         4        30         9        10     9      180.000000        0.084971         4    ;  uncertainty k = 0.264833
         5         4         3        31     9        0.000000       -0.004287         1    ;  uncertainty k = 0.286482
         5         4         3        31     9      180.000000        6.668054         2    ;  uncertainty k = 0.798548
         5         4         3        31     9        0.000000        1.408089         3    ;  uncertainty k = 0.144348
         5         4         3        31     9      180.000000        1.375692         4    ;  uncertainty k = 0.244784
         5         4        30         9     9        0.000000       -0.182727         1    ;  uncertainty k = 0.450874
         5         4        30         9     9      180.000000       14.997316         2    ;  uncertainty k = 0.950847
         5         4        30         9     9        0.000000       -6.237848         3    ;  uncertainty k = 1.347200
         5         4        30         9     9      180.000000        0.484464         4    ;  uncertainty k = 0.641305
         5         6         9        10     9        0.000000        0.996410         1    ;  uncertainty k = 0.937684
         5         6         9        10     9      180.000000       15.098251         2    ;  uncertainty k = 0.392013
         5         6         9        10     9        0.000000        2.249819         3    ;  uncertainty k = 0.547819
         5         6         9        10     9      180.000000        0.731334         4    ;  uncertainty k = 0.264568
         5         6         9        30     9        0.000000       -0.405690         1    ;  uncertainty k = 0.736607
         5         6         9        30     9      180.000000       18.611860         2    ;  uncertainty k = 0.342243
         5         6         9        30     9        0.000000       -1.472805         3    ;  uncertainty k = 0.886638
         5         6         9        30     9      180.000000        1.022333         4    ;  uncertainty k = 0.594593
         5         7         8        33     9        0.000000        0.107589         1    ;  uncertainty k = 0.451517
         5         7         8        33     9      180.000000       18.776569         2    ;  uncertainty k = 0.493546
         5         7         8        33     9        0.000000        2.335561         3    ;  uncertainty k = 0.589409
         5         7         8        33     9      180.000000        1.482082         4    ;  uncertainty k = 0.328311
         6         5         4        30     9        0.000000       -0.253104         1    ;  uncertainty k = 0.764833
         6         5         4        30     9      180.000000       10.413089         2    ;  uncertainty k = 0.339706
         6         5         4        30     9        0.000000       -0.496953         3    ;  uncertainty k = 0.646048
         6         5         4        30     9      180.000000        1.172965         4    ;  uncertainty k = 0.263764
         6         5         7         8     9        0.000000        0.734722         1    ;  uncertainty k = 0.799961
         6         5         7         8     9      180.000000       13.851639         2    ;  uncertainty k = 0.663998
         6         5         7         8     9        0.000000        1.990250         3    ;  uncertainty k = 0.473917
         6         5         7         8     9      180.000000        1.344401         4    ;  uncertainty k = 0.250630
         6         9        10        11     9        0.000000        1.902745         1    ;  uncertainty k = 1.084958
         6         9        10        11     9      180.000000        1.220845         2    ;  uncertainty k = 0.484422
         6         9        10        11     9        0.000000        0.553611         3    ;  uncertainty k = 0.173027
         6         9        10        11     9      180.000000        0.075291         4    ;  uncertainty k = 0.161177
         6         9        10        12     9        0.000000        1.902745         1    ;  uncertainty k = 1.084958
         6         9        10        12     9      180.000000        1.220845         2    ;  uncertainty k = 0.484422
         6         9        10        12     9        0.000000        0.553611         3    ;  uncertainty k = 0.173027
         6         9        10        12     9      180.000000        0.075291         4    ;  uncertainty k = 0.161177
         6         9        10        13     9        0.000000        3.569473         1    ;  uncertainty k = 1.405550
         6         9        10        13     9      180.000000        1.597522         2    ;  uncertainty k = 0.501957
         6         9        10        13     9        0.000000       -0.005752         3    ;  uncertainty k = 0.304309
         6         9        10        13     9      180.000000       -0.082412         4    ;  uncertainty k = 0.186868
         7         5         4        30     9        0.000000        0.216329         1    ;  uncertainty k = 0.357256
         7         5         4        30     9      180.000000        9.841528         2    ;  uncertainty k = 0.130617
         7         5         4        30     9        0.000000        0.350533         3    ;  uncertainty k = 0.475354
         7         5         4        30     9      180.000000        1.066177         4    ;  uncertainty k = 0.241529
         7         5         6         9     9        0.000000       -0.747166         1    ;  uncertainty k = 0.656938
         7         5         6         9     9      180.000000        8.198368         2    ;  uncertainty k = 0.293520
         7         5         6         9     9        0.000000        0.279917         3    ;  uncertainty k = 0.402491
         7         5         6         9     9      180.000000        0.601343         4    ;  uncertainty k = 0.216002
         7         5         6        32     9        0.000000       -0.159755         1    ;  uncertainty k = 1.061019
         7         5         6        32     9      180.000000        6.972787         2    ;  uncertainty k = 0.301177
         7         5         6        32     9        0.000000        1.083829         3    ;  uncertainty k = 0.161561
         7         5         6        32     9      180.000000        0.354235         4    ;  uncertainty k = 0.204068
         8         2         3        31     9        0.000000       -0.008166         1    ;  uncertainty k = 0.260288
         8         2         3        31     9      180.000000        6.337156         2    ;  uncertainty k = 0.455130
         8         2         3        31     9        0.000000        1.412255         3    ;  uncertainty k = 0.231718
         8         2         3        31     9      180.000000        1.481328         4    ;  uncertainty k = 0.169205
         9        10        13        14     9        0.000000       -5.354816         1    ;  uncertainty k = 2.018420
         9        10        13        14     9      180.000000       -3.786899         2    ;  uncertainty k = 0.594696
         9        10        13        14     9        0.000000        2.221372         3    ;  uncertainty k = 0.662691
         9        10        13        14     9      180.000000        0.047753         4    ;  uncertainty k = 0.324639
         9        10        13        34     9        0.000000        0.316335         1    ;  uncertainty k = 1.213648
         9        10        13        34     9      180.000000       -5.472928         2    ;  uncertainty k = 0.558496
         9        10        13        34     9        0.000000       -0.692190         3    ;  uncertainty k = 0.569747
         9        10        13        34     9      180.000000       -0.065267         4    ;  uncertainty k = 0.222506
        10         9         6        32     9        0.000000       -0.189304         1    ;  uncertainty k = 0.412160
        10         9         6        32     9      180.000000        9.589031         2    ;  uncertainty k = 0.382338
        10         9         6        32     9        0.000000        1.521464         3    ;  uncertainty k = 0.332465
        10         9         6        32     9      180.000000        0.635542         4    ;  uncertainty k = 0.164864
        10        13        14        15     9        0.000000       -3.235379         1    ;  uncertainty k = 1.572636
        10        13        14        15     9      180.000000       -1.505753         2    ;  uncertainty k = 0.855788
        10        13        14        15     9        0.000000        0.552099         3    ;  uncertainty k = 0.228836
        10        13        14        15     9      180.000000        0.019729         4    ;  uncertainty k = 0.176328
        10        13        14        17     9        0.000000        3.081789         1    ;  uncertainty k = 1.361389
        10        13        14        17     9      180.000000       -3.527722         2    ;  uncertainty k = 0.972948
        10        13        14        17     9        0.000000       -0.045139         3    ;  uncertainty k = 0.102226
        10        13        14        17     9      180.000000        0.201487         4    ;  uncertainty k = 0.241765
        10        13        14        35     9        0.000000        2.612141         1    ;  uncertainty k = 1.700352
        10        13        14        35     9      180.000000       -3.101886         2    ;  uncertainty k = 1.201533
        10        13        14        35     9        0.000000        0.302455         3    ;  uncertainty k = 0.366695
        10        13        14        35     9      180.000000        0.051472         4    ;  uncertainty k = 0.066388
        11        10         9        30     9        0.000000       -7.399706         1    ;  uncertainty k = 0.610443
        11        10         9        30     9      180.000000        1.001364         2    ;  uncertainty k = 0.833970
        11        10         9        30     9        0.000000        0.713741         3    ;  uncertainty k = 0.283433
        11        10         9        30     9      180.000000        0.049222         4    ;  uncertainty k = 0.156126
        11        10        13        14     9        0.000000        1.130608         1    ;  uncertainty k = 1.288984
        11        10        13        14     9      180.000000        2.400264         2    ;  uncertainty k = 0.429726
        11        10        13        14     9        0.000000        1.535627         3    ;  uncertainty k = 0.459269
        11        10        13        14     9      180.000000       -0.338420         4    ;  uncertainty k = 0.308611
        11        10        13        34     9        0.000000        7.600078         1    ;  uncertainty k = 0.685334
        11        10        13        34     9      180.000000        0.584477         2    ;  uncertainty k = 0.924384
        11        10        13        34     9        0.000000       -0.452313         3    ;  uncertainty k = 0.217141
        11        10        13        34     9      180.000000       -0.143970         4    ;  uncertainty k = 0.221908
        12        10         9        30     9        0.000000       -7.399706         1    ;  uncertainty k = 0.610443
        12        10         9        30     9      180.000000        1.001364         2    ;  uncertainty k = 0.833970
        12        10         9        30     9        0.000000        0.713741         3    ;  uncertainty k = 0.283433
        12        10         9        30     9      180.000000        0.049222         4    ;  uncertainty k = 0.156126
        12        10        13        14     9        0.000000        1.130608         1    ;  uncertainty k = 1.288984
        12        10        13        14     9      180.000000        2.400264         2    ;  uncertainty k = 0.429726
        12        10        13        14     9        0.000000        1.535627         3    ;  uncertainty k = 0.459269
        12        10        13        14     9      180.000000       -0.338420         4    ;  uncertainty k = 0.308611
        12        10        13        34     9        0.000000        7.600078         1    ;  uncertainty k = 0.685334
        12        10        13        34     9      180.000000        0.584477         2    ;  uncertainty k = 0.924384
        12        10        13        34     9        0.000000       -0.452313         3    ;  uncertainty k = 0.217141
        12        10        13        34     9      180.000000       -0.143970         4    ;  uncertainty k = 0.221908
        13        10         9        30     9        0.000000       -3.016219         1    ;  uncertainty k = 0.902699
        13        10         9        30     9      180.000000        0.708043         2    ;  uncertainty k = 1.038350
        13        10         9        30     9        0.000000        0.494094         3    ;  uncertainty k = 0.447820
        13        10         9        30     9      180.000000       -0.110904         4    ;  uncertainty k = 0.221596
        13        14        15        16     9        0.000000       -2.673566         1    ;  uncertainty k = 1.998999
        13        14        15        16     9      180.000000        0.135000         2    ;  uncertainty k = 0.485529
        13        14        15        16     9        0.000000        1.179017         3    ;  uncertainty k = 0.356891
        13        14        15        16     9      180.000000       -0.068891         4    ;  uncertainty k = 0.110695
        13        14        15        36     9        0.000000       -0.076073         1    ;  uncertainty k = 0.384008
        13        14        15        36     9      180.000000       -0.088130         2    ;  uncertainty k = 0.266943
        13        14        15        36     9        0.000000        1.220285         3    ;  uncertainty k = 0.207978
        13        14        15        36     9      180.000000        0.034595         4    ;  uncertainty k = 0.165275
        13        14        15        37     9        0.000000       -0.076073         1    ;  uncertainty k = 0.384008
        13        14        15        37     9      180.000000       -0.088130         2    ;  uncertainty k = 0.266943
        13        14        15        37     9        0.000000        1.220285         3    ;  uncertainty k = 0.207978
        13        14        15        37     9      180.000000        0.034595         4    ;  uncertainty k = 0.165275
        13        14        17        18     9        0.000000        0.714822         1    ;  uncertainty k = 1.245969
        13        14        17        18     9      180.000000        5.295991         2    ;  uncertainty k = 0.735967
        13        14        17        18     9        0.000000        0.623754         3    ;  uncertainty k = 0.343414
        13        14        17        18     9      180.000000        0.226354         4    ;  uncertainty k = 0.192090
        13        14        17        19     9        0.000000       -1.053608         1    ;  uncertainty k = 1.117431
        13        14        17        19     9      180.000000        3.396734         2    ;  uncertainty k = 0.712358
        13        14        17        19     9        0.000000        1.140704         3    ;  uncertainty k = 0.287434
        13        14        17        19     9      180.000000        0.427143         4    ;  uncertainty k = 0.178761
        14        15        16        19     9        0.000000       -0.900391         1    ;  uncertainty k = 0.824844
        14        15        16        19     9      180.000000        2.790784         2    ;  uncertainty k = 1.038021
        14        15        16        19     9        0.000000        0.577166         3    ;  uncertainty k = 0.450165
        14        15        16        19     9      180.000000       -1.567199         4    ;  uncertainty k = 0.413906
        14        15        16        38     9        0.000000        0.508141         1    ;  uncertainty k = 0.387436
        14        15        16        38     9      180.000000       -1.457960         2    ;  uncertainty k = 0.267738
        14        15        16        38     9        0.000000       -0.250955         3    ;  uncertainty k = 0.202328
        14        15        16        38     9      180.000000        0.083897         4    ;  uncertainty k = 0.135319
        14        15        16        39     9        0.000000        0.508141         1    ;  uncertainty k = 0.387436
        14        15        16        39     9      180.000000       -1.457960         2    ;  uncertainty k = 0.267738
        14        15        16        39     9        0.000000       -0.250955         3    ;  uncertainty k = 0.202328
        14        15        16        39     9      180.000000        0.083897         4    ;  uncertainty k = 0.135319
        14        17        19        16     9        0.000000        2.446281         1    ;  uncertainty k = 3.352831
        14        17        19        16     9      180.000000        7.692928         2    ;  uncertainty k = 1.164163
        14        17        19        16     9        0.000000        0.576923         3    ;  uncertainty k = 0.591421
        14        17        19        16     9      180.000000        0.260320         4    ;  uncertainty k = 0.390504
        14        17        19        20     9        0.000000        6.268748         1    ;  uncertainty k = 0.714425
        14        17        19        20     9      180.000000        8.670160         2    ;  uncertainty k = 0.732613
        14        17        19        20     9        0.000000        1.742596         3    ;  uncertainty k = 0.552800
        14        17        19        20     9      180.000000       -0.110520         4    ;  uncertainty k = 0.365021
        15        14        13        34     9        0.000000        4.066419         1    ;  uncertainty k = 1.427581
        15        14        13        34     9      180.000000       -3.677249         2    ;  uncertainty k = 0.721727
        15        14        13        34     9        0.000000        0.420882         3    ;  uncertainty k = 0.255217
        15        14        13        34     9      180.000000       -0.031156         4    ;  uncertainty k = 0.097571
        15        14        17        18     9        0.000000       -2.063846         1    ;  uncertainty k = 1.005656
        15        14        17        18     9      180.000000        2.959956         2    ;  uncertainty k = 0.800501
        15        14        17        18     9        0.000000        0.798161         3    ;  uncertainty k = 0.336071
        15        14        17        18     9      180.000000        0.507019         4    ;  uncertainty k = 0.177529
        15        14        17        19     9        0.000000       -3.401877         1    ;  uncertainty k = 1.863089
        15        14        17        19     9      180.000000        5.247244         2    ;  uncertainty k = 1.537078
        15        14        17        19     9        0.000000        0.089655         3    ;  uncertainty k = 0.514962
        15        14        17        19     9      180.000000        0.658535         4    ;  uncertainty k = 0.269589
        15        16        19        17     9        0.000000       -1.271696         1    ;  uncertainty k = 1.646556
        15        16        19        17     9      180.000000        3.031980         2    ;  uncertainty k = 0.927563
        15        16        19        17     9        0.000000       -0.420830         3    ;  uncertainty k = 0.323621
        15        16        19        17     9      180.000000        0.331591         4    ;  uncertainty k = 0.299174
        15        16        19        20     9        0.000000       -0.500053         1    ;  uncertainty k = 1.100375
        15        16        19        20     9      180.000000        1.256366         2    ;  uncertainty k = 0.392406
        15        16        19        20     9        0.000000        1.672566         3    ;  uncertainty k = 0.563027
        15        16        19        20     9      180.000000       -0.085895         4    ;  uncertainty k = 0.253752
        16        15        14        17     9        0.000000       -0.494033         1    ;  uncertainty k = 0.527540
        16        15        14        17     9      180.000000        3.655256         2    ;  uncertainty k = 1.314088
        16        15        14        17     9        0.000000       -0.080142         3    ;  uncertainty k = 0.299413
        16        15        14        17     9      180.000000       -0.133206         4    ;  uncertainty k = 0.238509
        16        15        14        35     9        0.000000       -1.046148         1    ;  uncertainty k = 0.683852
        16        15        14        35     9      180.000000        0.201248         2    ;  uncertainty k = 0.505602
        16        15        14        35     9        0.000000        0.194718         3    ;  uncertainty k = 0.165681
        16        15        14        35     9      180.000000       -0.007863         4    ;  uncertainty k = 0.028809
        16        19        17        18     9        0.000000        1.706007         1    ;  uncertainty k = 1.828933
        16        19        17        18     9      180.000000       15.708326         2    ;  uncertainty k = 0.448233
        16        19        17        18     9        0.000000        1.023144         3    ;  uncertainty k = 0.259184
        16        19        17        18     9      180.000000       -0.722973         4    ;  uncertainty k = 0.243370
        16        19        20        21     9        0.000000       -0.688492         1    ;  uncertainty k = 0.671699
        16        19        20        21     9      180.000000        0.533676         2    ;  uncertainty k = 0.436027
        16        19        20        21     9        0.000000        1.107179         3    ;  uncertainty k = 0.173282
        16        19        20        21     9      180.000000        0.093772         4    ;  uncertainty k = 0.021274
        16        19        20        22     9        0.000000       -0.395089         1    ;  uncertainty k = 0.653414
        16        19        20        22     9      180.000000       -0.350453         2    ;  uncertainty k = 0.414882
        16        19        20        22     9        0.000000        1.165686         3    ;  uncertainty k = 0.166063
        16        19        20        22     9      180.000000        0.181576         4    ;  uncertainty k = 0.126992
        16        19        20        40     9        0.000000       -2.305625         1    ;  uncertainty k = 0.822179
        16        19        20        40     9      180.000000        0.234101         2    ;  uncertainty k = 0.379196
        16        19        20        40     9        0.000000        0.742947         3    ;  uncertainty k = 0.268478
        16        19        20        40     9      180.000000        0.126564         4    ;  uncertainty k = 0.061018
        17        14        13        34     9        0.000000        6.425863         1    ;  uncertainty k = 0.686843
        17        14        13        34     9      180.000000       -5.137738         2    ;  uncertainty k = 0.767069
        17        14        13        34     9        0.000000        0.278868         3    ;  uncertainty k = 0.238341
        17        14        13        34     9      180.000000       -0.026449         4    ;  uncertainty k = 0.181107
        17        14        15        36     9        0.000000       -0.431560         1    ;  uncertainty k = 0.661124
        17        14        15        36     9      180.000000       -0.496919         2    ;  uncertainty k = 0.345768
        17        14        15        36     9        0.000000        0.474416         3    ;  uncertainty k = 0.068956
        17        14        15        36     9      180.000000        0.036686         4    ;  uncertainty k = 0.080817
        17        14        15        37     9        0.000000       -0.431560         1    ;  uncertainty k = 0.661124
        17        14        15        37     9      180.000000       -0.496919         2    ;  uncertainty k = 0.345768
        17        14        15        37     9        0.000000        0.474416         3    ;  uncertainty k = 0.068956
        17        14        15        37     9      180.000000        0.036686         4    ;  uncertainty k = 0.080817
        17        19        16        38     9        0.000000       -0.126021         1    ;  uncertainty k = 0.747628
        17        19        16        38     9      180.000000        0.293972         2    ;  uncertainty k = 0.484269
        17        19        16        38     9        0.000000        0.164615         3    ;  uncertainty k = 0.183342
        17        19        16        38     9      180.000000        0.417669         4    ;  uncertainty k = 0.109232
        17        19        16        39     9        0.000000       -0.126021         1    ;  uncertainty k = 0.747628
        17        19        16        39     9      180.000000        0.293972         2    ;  uncertainty k = 0.484269
        17        19        16        39     9        0.000000        0.164615         3    ;  uncertainty k = 0.183342
        17        19        16        39     9      180.000000        0.417669         4    ;  uncertainty k = 0.109232
        17        19        20        21     9        0.000000        0.832869         1    ;  uncertainty k = 0.469341
        17        19        20        21     9      180.000000        0.390728         2    ;  uncertainty k = 0.304508
        17        19        20        21     9        0.000000        0.474399         3    ;  uncertainty k = 0.139969
        17        19        20        21     9      180.000000        0.242619         4    ;  uncertainty k = 0.127693
        17        19        20        22     9        0.000000        1.833407         1    ;  uncertainty k = 0.853465
        17        19        20        22     9      180.000000        0.209535         2    ;  uncertainty k = 0.537380
        17        19        20        22     9        0.000000       -0.592888         3    ;  uncertainty k = 0.163296
        17        19        20        22     9      180.000000        0.840729         4    ;  uncertainty k = 0.057254
        17        19        20        40     9        0.000000       -0.205144         1    ;  uncertainty k = 0.599169
        17        19        20        40     9      180.000000        0.004804         2    ;  uncertainty k = 0.153471
        17        19        20        40     9        0.000000       -0.044376         3    ;  uncertainty k = 0.129015
        17        19        20        40     9      180.000000        0.266747         4    ;  uncertainty k = 0.031692
        18        17        14        35     9        0.000000       -0.939635         1    ;  uncertainty k = 0.920696
        18        17        14        35     9      180.000000        3.313287         2    ;  uncertainty k = 0.484581
        18        17        14        35     9        0.000000        0.041973         3    ;  uncertainty k = 0.545681
        18        17        14        35     9      180.000000        0.120210         4    ;  uncertainty k = 0.273969
        18        17        19        20     9        0.000000        2.731142         1    ;  uncertainty k = 1.962138
        18        17        19        20     9      180.000000       14.178956         2    ;  uncertainty k = 0.588436
        18        17        19        20     9        0.000000        0.947456         3    ;  uncertainty k = 0.406074
        18        17        19        20     9      180.000000       -0.454871         4    ;  uncertainty k = 0.414263
        19        16        15        36     9        0.000000       -1.829510         1    ;  uncertainty k = 0.456616
        19        16        15        36     9      180.000000        0.325894         2    ;  uncertainty k = 0.435580
        19        16        15        36     9        0.000000        1.355353         3    ;  uncertainty k = 0.143785
        19        16        15        36     9      180.000000        0.074444         4    ;  uncertainty k = 0.249644
        19        16        15        37     9        0.000000       -1.829510         1    ;  uncertainty k = 0.456616
        19        16        15        37     9      180.000000        0.325894         2    ;  uncertainty k = 0.435580
        19        16        15        37     9        0.000000        1.355353         3    ;  uncertainty k = 0.143785
        19        16        15        37     9      180.000000        0.074444         4    ;  uncertainty k = 0.249644
        19        17        14        35     9        0.000000       -2.118535         1    ;  uncertainty k = 2.522995
        19        17        14        35     9      180.000000        2.390436         2    ;  uncertainty k = 0.667942
        19        17        14        35     9        0.000000        0.967683         3    ;  uncertainty k = 0.295837
        19        17        14        35     9      180.000000        0.482077         4    ;  uncertainty k = 0.134499
        19        20        21        41     9        0.000000       -0.041715         1    ;  uncertainty k = 0.086802
        19        20        21        41     9      180.000000       -2.055705         2    ;  uncertainty k = 0.151824
        19        20        21        41     9        0.000000        1.070157         3    ;  uncertainty k = 0.088658
        19        20        21        41     9      180.000000       -0.169755         4    ;  uncertainty k = 0.104081
        19        20        21        42     9        0.000000       -0.041715         1    ;  uncertainty k = 0.086802
        19        20        21        42     9      180.000000       -2.055705         2    ;  uncertainty k = 0.151824
        19        20        21        42     9        0.000000        1.070157         3    ;  uncertainty k = 0.088658
        19        20        21        42     9      180.000000       -0.169755         4    ;  uncertainty k = 0.104081
        19        20        21        43     9        0.000000       -0.041715         1    ;  uncertainty k = 0.086802
        19        20        21        43     9      180.000000       -2.055705         2    ;  uncertainty k = 0.151824
        19        20        21        43     9        0.000000        1.070157         3    ;  uncertainty k = 0.088658
        19        20        21        43     9      180.000000       -0.169755         4    ;  uncertainty k = 0.104081
        19        20        22        23     9        0.000000        0.499396         1    ;  uncertainty k = 0.966558
        19        20        22        23     9      180.000000        6.109033         2    ;  uncertainty k = 0.130985
        19        20        22        23     9        0.000000        1.318031         3    ;  uncertainty k = 0.293046
        19        20        22        23     9      180.000000        0.376941         4    ;  uncertainty k = 0.128880
        19        20        22        24     9        0.000000        1.298771         1    ;  uncertainty k = 0.762727
        19        20        22        24     9      180.000000        3.730132         2    ;  uncertainty k = 0.411538
        19        20        22        24     9        0.000000        0.531949         3    ;  uncertainty k = 0.139911
        19        20        22        24     9      180.000000        0.104606         4    ;  uncertainty k = 0.060875
        20        19        16        38     9        0.000000       -0.171023         1    ;  uncertainty k = 0.466144
        20        19        16        38     9      180.000000       -0.753502         2    ;  uncertainty k = 0.394766
        20        19        16        38     9        0.000000        0.990987         3    ;  uncertainty k = 0.142757
        20        19        16        38     9      180.000000        0.391063         4    ;  uncertainty k = 0.162132
        20        19        16        39     9        0.000000       -0.171023         1    ;  uncertainty k = 0.466144
        20        19        16        39     9      180.000000       -0.753502         2    ;  uncertainty k = 0.394766
        20        19        16        39     9        0.000000        0.990987         3    ;  uncertainty k = 0.142757
        20        19        16        39     9      180.000000        0.391063         4    ;  uncertainty k = 0.162132
        20        22        24        25     9        0.000000        8.299487         1    ;  uncertainty k = 0.269860
        20        22        24        25     9      180.000000        6.005714         2    ;  uncertainty k = 0.421476
        20        22        24        25     9        0.000000        1.159671         3    ;  uncertainty k = 0.227098
        20        22        24        25     9      180.000000        0.103306         4    ;  uncertainty k = 0.158474
        20        22        24        29     9        0.000000        8.299487         1    ;  uncertainty k = 0.269860
        20        22        24        29     9      180.000000        6.005714         2    ;  uncertainty k = 0.421476
        20        22        24        29     9        0.000000        1.159671         3    ;  uncertainty k = 0.227098
        20        22        24        29     9      180.000000        0.103306         4    ;  uncertainty k = 0.158474
        21        20        22        23     9        0.000000       -0.918609         1    ;  uncertainty k = 0.498844
        21        20        22        23     9      180.000000        5.582712         2    ;  uncertainty k = 0.540220
        21        20        22        23     9        0.000000        1.479882         3    ;  uncertainty k = 0.175097
        21        20        22        23     9      180.000000        0.507220         4    ;  uncertainty k = 0.051889
        21        20        22        24     9        0.000000       -2.003223         1    ;  uncertainty k = 0.395192
        21        20        22        24     9      180.000000        3.012685         2    ;  uncertainty k = 0.516173
        21        20        22        24     9        0.000000        0.475109         3    ;  uncertainty k = 0.119059
        21        20        22        24     9      180.000000        0.075564         4    ;  uncertainty k = 0.082587
        22        20        21        41     9        0.000000        1.150537         1    ;  uncertainty k = 0.677576
        22        20        21        41     9      180.000000       -0.924040         2    ;  uncertainty k = 0.241314
        22        20        21        41     9        0.000000        0.735120         3    ;  uncertainty k = 0.069732
        22        20        21        41     9      180.000000       -0.019774         4    ;  uncertainty k = 0.058125
        22        20        21        42     9        0.000000        1.150537         1    ;  uncertainty k = 0.677576
        22        20        21        42     9      180.000000       -0.924040         2    ;  uncertainty k = 0.241314
        22        20        21        42     9        0.000000        0.735120         3    ;  uncertainty k = 0.069732
        22        20        21        42     9      180.000000       -0.019774         4    ;  uncertainty k = 0.058125
        22        20        21        43     9        0.000000        1.150537         1    ;  uncertainty k = 0.677576
        22        20        21        43     9      180.000000       -0.924040         2    ;  uncertainty k = 0.241314
        22        20        21        43     9        0.000000        0.735120         3    ;  uncertainty k = 0.069732
        22        20        21        43     9      180.000000       -0.019774         4    ;  uncertainty k = 0.058125
        22        24        25        26     9        0.000000        0.224961         1    ;  uncertainty k = 0.687788
        22        24        25        26     9      180.000000        0.114129         2    ;  uncertainty k = 0.146198
        22        24        25        26     9        0.000000       -0.233453         3    ;  uncertainty k = 0.126504
        22        24        25        26     9      180.000000        0.299264         4    ;  uncertainty k = 0.131991
        22        24        25        44     9        0.000000        1.489642         1    ;  uncertainty k = 0.595508
        22        24        25        44     9      180.000000       -0.191425         2    ;  uncertainty k = 0.136241
        22        24        25        44     9        0.000000        0.111797         3    ;  uncertainty k = 0.096189
        22        24        25        44     9      180.000000        0.140722         4    ;  uncertainty k = 0.049493
        22        24        25        45     9        0.000000        1.489642         1    ;  uncertainty k = 0.595508
        22        24        25        45     9      180.000000       -0.191425         2    ;  uncertainty k = 0.136241
        22        24        25        45     9        0.000000        0.111797         3    ;  uncertainty k = 0.096189
        22        24        25        45     9      180.000000        0.140722         4    ;  uncertainty k = 0.049493
        22        24        29        28     9        0.000000        0.224961         1    ;  uncertainty k = 0.687788
        22        24        29        28     9      180.000000        0.114129         2    ;  uncertainty k = 0.146198
        22        24        29        28     9        0.000000       -0.233453         3    ;  uncertainty k = 0.126504
        22        24        29        28     9      180.000000        0.299264         4    ;  uncertainty k = 0.131991
        22        24        29        50     9        0.000000        1.489642         1    ;  uncertainty k = 0.595508
        22        24        29        50     9      180.000000       -0.191425         2    ;  uncertainty k = 0.136241
        22        24        29        50     9        0.000000        0.111797         3    ;  uncertainty k = 0.096189
        22        24        29        50     9      180.000000        0.140722         4    ;  uncertainty k = 0.049493
        22        24        29        51     9        0.000000        1.489642         1    ;  uncertainty k = 0.595508
        22        24        29        51     9      180.000000       -0.191425         2    ;  uncertainty k = 0.136241
        22        24        29        51     9        0.000000        0.111797         3    ;  uncertainty k = 0.096189
        22        24        29        51     9      180.000000        0.140722         4    ;  uncertainty k = 0.049493
        23        22        20        40     9        0.000000       -1.193527         1    ;  uncertainty k = 0.618000
        23        22        20        40     9      180.000000        2.843837         2    ;  uncertainty k = 0.359543
        23        22        20        40     9        0.000000        0.832219         3    ;  uncertainty k = 0.209632
        23        22        20        40     9      180.000000        0.162966         4    ;  uncertainty k = 0.077189
        23        22        24        25     9        0.000000        6.603517         1    ;  uncertainty k = 0.334857
        23        22        24        25     9      180.000000       20.577585         2    ;  uncertainty k = 0.086866
        23        22        24        25     9        0.000000        0.266672         3    ;  uncertainty k = 0.142095
        23        22        24        25     9      180.000000       -1.495398         4    ;  uncertainty k = 0.102425
        23        22        24        29     9        0.000000        6.603517         1    ;  uncertainty k = 0.334857
        23        22        24        29     9      180.000000       20.577585         2    ;  uncertainty k = 0.086866
        23        22        24        29     9        0.000000        0.266672         3    ;  uncertainty k = 0.142095
        23        22        24        29     9      180.000000       -1.495398         4    ;  uncertainty k = 0.102425
        24        22        20        40     9        0.000000       -0.546567         1    ;  uncertainty k = 0.607387
        24        22        20        40     9      180.000000        2.439825         2    ;  uncertainty k = 0.362200
        24        22        20        40     9        0.000000        0.108278         3    ;  uncertainty k = 0.047116
        24        22        20        40     9      180.000000        0.170383         4    ;  uncertainty k = 0.050292
        24        25        26        27     9        0.000000        5.353992         1    ;  uncertainty k = 0.675529
        24        25        26        27     9      180.000000       -8.857338         2    ;  uncertainty k = 0.692100
        24        25        26        27     9        0.000000        3.059860         3    ;  uncertainty k = 0.495205
        24        25        26        27     9      180.000000       -0.099186         4    ;  uncertainty k = 0.227903
        24        25        26        46     9        0.000000        4.810866         1    ;  uncertainty k = 0.569234
        24        25        26        46     9      180.000000       -4.025620         2    ;  uncertainty k = 0.699778
        24        25        26        46     9        0.000000        0.136668         3    ;  uncertainty k = 0.307514
        24        25        26        46     9      180.000000        0.448548         4    ;  uncertainty k = 0.208534
        24        25        26        47     9        0.000000        4.810866         1    ;  uncertainty k = 0.569234
        24        25        26        47     9      180.000000       -4.025620         2    ;  uncertainty k = 0.699778
        24        25        26        47     9        0.000000        0.136668         3    ;  uncertainty k = 0.307514
        24        25        26        47     9      180.000000        0.448548         4    ;  uncertainty k = 0.208534
        24        29        28        27     9        0.000000        5.353992         1    ;  uncertainty k = 0.675529
        24        29        28        27     9      180.000000       -8.857338         2    ;  uncertainty k = 0.692100
        24        29        28        27     9        0.000000        3.059860         3    ;  uncertainty k = 0.495205
        24        29        28        27     9      180.000000       -0.099186         4    ;  uncertainty k = 0.227903
        24        29        28        48     9        0.000000        4.810866         1    ;  uncertainty k = 0.569234
        24        29        28        48     9      180.000000       -4.025620         2    ;  uncertainty k = 0.699778
        24        29        28        48     9        0.000000        0.136668         3    ;  uncertainty k = 0.307514
        24        29        28        48     9      180.000000        0.448548         4    ;  uncertainty k = 0.208534
        24        29        28        49     9        0.000000        4.810866         1    ;  uncertainty k = 0.569234
        24        29        28        49     9      180.000000       -4.025620         2    ;  uncertainty k = 0.699778
        24        29        28        49     9        0.000000        0.136668         3    ;  uncertainty k = 0.307514
        24        29        28        49     9      180.000000        0.448548         4    ;  uncertainty k = 0.208534
        25        24        29        28     9        0.000000       -5.632507         1    ;  uncertainty k = 1.372901
        25        24        29        28     9      180.000000        0.820042         2    ;  uncertainty k = 0.457968
        25        24        29        28     9        0.000000        1.551394         3    ;  uncertainty k = 0.353572
        25        24        29        28     9      180.000000       -0.465199         4    ;  uncertainty k = 0.242804
        25        24        29        50     9        0.000000       -5.630831         1    ;  uncertainty k = 1.116973
        25        24        29        50     9      180.000000        1.096405         2    ;  uncertainty k = 0.268716
        25        24        29        50     9        0.000000        1.209015         3    ;  uncertainty k = 0.133163
        25        24        29        50     9      180.000000       -0.230019         4    ;  uncertainty k = 0.154441
        25        24        29        51     9        0.000000       -5.630831         1    ;  uncertainty k = 1.116973
        25        24        29        51     9      180.000000        1.096405         2    ;  uncertainty k = 0.268716
        25        24        29        51     9        0.000000        1.209015         3    ;  uncertainty k = 0.133163
        25        24        29        51     9      180.000000       -0.230019         4    ;  uncertainty k = 0.154441
        25        26        27        28     9        0.000000       -4.283460         1    ;  uncertainty k = 1.346568
        25        26        27        28     9      180.000000        0.019562         2    ;  uncertainty k = 1.048764
        25        26        27        28     9        0.000000        0.786756         3    ;  uncertainty k = 0.331644
        25        26        27        28     9      180.000000       -0.317148         4    ;  uncertainty k = 0.268089
        26        25        24        29     9        0.000000       -5.632507         1    ;  uncertainty k = 1.372901
        26        25        24        29     9      180.000000        0.820042         2    ;  uncertainty k = 0.457968
        26        25        24        29     9        0.000000        1.551394         3    ;  uncertainty k = 0.353572
        26        25        24        29     9      180.000000       -0.465199         4    ;  uncertainty k = 0.242804
        26        27        28        29     9        0.000000       -4.283460         1    ;  uncertainty k = 1.346568
        26        27        28        29     9      180.000000        0.019562         2    ;  uncertainty k = 1.048764
        26        27        28        29     9        0.000000        0.786756         3    ;  uncertainty k = 0.331644
        26        27        28        29     9      180.000000       -0.317148         4    ;  uncertainty k = 0.268089
        26        27        28        48     9        0.000000       -5.824736         1    ;  uncertainty k = 1.874994
        26        27        28        48     9      180.000000        0.612519         2    ;  uncertainty k = 0.237167
        26        27        28        48     9        0.000000        0.759446         3    ;  uncertainty k = 0.174537
        26        27        28        48     9      180.000000       -0.645283         4    ;  uncertainty k = 0.153493
        26        27        28        49     9        0.000000       -5.824736         1    ;  uncertainty k = 1.874994
        26        27        28        49     9      180.000000        0.612519         2    ;  uncertainty k = 0.237167
        26        27        28        49     9        0.000000        0.759446         3    ;  uncertainty k = 0.174537
        26        27        28        49     9      180.000000       -0.645283         4    ;  uncertainty k = 0.153493
        27        26        25        44     9        0.000000        0.912216         1    ;  uncertainty k = 0.334790
        27        26        25        44     9      180.000000       -0.812586         2    ;  uncertainty k = 0.665020
        27        26        25        44     9        0.000000        1.061498         3    ;  uncertainty k = 0.198448
        27        26        25        44     9      180.000000        0.211215         4    ;  uncertainty k = 0.255400
        27        26        25        45     9        0.000000        0.912216         1    ;  uncertainty k = 0.334790
        27        26        25        45     9      180.000000       -0.812586         2    ;  uncertainty k = 0.665020
        27        26        25        45     9        0.000000        1.061498         3    ;  uncertainty k = 0.198448
        27        26        25        45     9      180.000000        0.211215         4    ;  uncertainty k = 0.255400
        27        28        29        50     9        0.000000        0.912216         1    ;  uncertainty k = 0.334790
        27        28        29        50     9      180.000000       -0.812586         2    ;  uncertainty k = 0.665020
        27        28        29        50     9        0.000000        1.061498         3    ;  uncertainty k = 0.198448
        27        28        29        50     9      180.000000        0.211215         4    ;  uncertainty k = 0.255400
        27        28        29        51     9        0.000000        0.912216         1    ;  uncertainty k = 0.334790
        27        28        29        51     9      180.000000       -0.812586         2    ;  uncertainty k = 0.665020
        27        28        29        51     9        0.000000        1.061498         3    ;  uncertainty k = 0.198448
        27        28        29        51     9      180.000000        0.211215         4    ;  uncertainty k = 0.255400
        28        27        26        46     9        0.000000       -5.824736         1    ;  uncertainty k = 1.874994
        28        27        26        46     9      180.000000        0.612519         2    ;  uncertainty k = 0.237167
        28        27        26        46     9        0.000000        0.759446         3    ;  uncertainty k = 0.174537
        28        27        26        46     9      180.000000       -0.645283         4    ;  uncertainty k = 0.153493
        28        27        26        47     9        0.000000       -5.824736         1    ;  uncertainty k = 1.874994
        28        27        26        47     9      180.000000        0.612519         2    ;  uncertainty k = 0.237167
        28        27        26        47     9        0.000000        0.759446         3    ;  uncertainty k = 0.174537
        28        27        26        47     9      180.000000       -0.645283         4    ;  uncertainty k = 0.153493
        29        24        25        44     9        0.000000       -5.630831         1    ;  uncertainty k = 1.116973
        29        24        25        44     9      180.000000        1.096405         2    ;  uncertainty k = 0.268716
        29        24        25        44     9        0.000000        1.209015         3    ;  uncertainty k = 0.133163
        29        24        25        44     9      180.000000       -0.230019         4    ;  uncertainty k = 0.154441
        29        24        25        45     9        0.000000       -5.630831         1    ;  uncertainty k = 1.116973
        29        24        25        45     9      180.000000        1.096405         2    ;  uncertainty k = 0.268716
        29        24        25        45     9        0.000000        1.209015         3    ;  uncertainty k = 0.133163
        29        24        25        45     9      180.000000       -0.230019         4    ;  uncertainty k = 0.154441
        30         4         3        31     9        0.000000       -0.085620         1    ;  uncertainty k = 0.416783
        30         4         3        31     9      180.000000        5.190558         2    ;  uncertainty k = 0.367484
        30         4         3        31     9        0.000000        0.897223         3    ;  uncertainty k = 0.255742
        30         4         3        31     9      180.000000        0.745820         4    ;  uncertainty k = 0.207504
        30         9         6        32     9        0.000000        0.065738         1    ;  uncertainty k = 0.431100
        30         9         6        32     9      180.000000       12.027302         2    ;  uncertainty k = 0.471997
        30         9         6        32     9        0.000000        1.923147         3    ;  uncertainty k = 0.207944
        30         9         6        32     9      180.000000        1.151724         4    ;  uncertainty k = 0.262623
        34        13        14        35     9        0.000000        4.345244         1    ;  uncertainty k = 1.216546
        34        13        14        35     9      180.000000       -2.461433         2    ;  uncertainty k = 0.501513
        34        13        14        35     9        0.000000        0.266842         3    ;  uncertainty k = 0.221333
        34        13        14        35     9      180.000000        0.136959         4    ;  uncertainty k = 0.122236
        35        14        15        36     9        0.000000        0.650807         1    ;  uncertainty k = 0.242049
        35        14        15        36     9      180.000000       -0.603199         2    ;  uncertainty k = 0.142603
        35        14        15        36     9        0.000000        0.567622         3    ;  uncertainty k = 0.099349
        35        14        15        36     9      180.000000        0.058597         4    ;  uncertainty k = 0.065547
        35        14        15        37     9        0.000000        0.650807         1    ;  uncertainty k = 0.242049
        35        14        15        37     9      180.000000       -0.603199         2    ;  uncertainty k = 0.142603
        35        14        15        37     9        0.000000        0.567622         3    ;  uncertainty k = 0.099349
        35        14        15        37     9      180.000000        0.058597         4    ;  uncertainty k = 0.065547
        36        15        16        38     9        0.000000        0.823414         1    ;  uncertainty k = 0.215557
        36        15        16        38     9      180.000000       -0.170976         2    ;  uncertainty k = 0.266678
        36        15        16        38     9        0.000000        0.469348         3    ;  uncertainty k = 0.038030
        36        15        16        38     9      180.000000        0.043270         4    ;  uncertainty k = 0.022809
        36        15        16        39     9        0.000000        0.823414         1    ;  uncertainty k = 0.215557
        36        15        16        39     9      180.000000       -0.170976         2    ;  uncertainty k = 0.266678
        36        15        16        39     9        0.000000        0.469348         3    ;  uncertainty k = 0.038030
        36        15        16        39     9      180.000000        0.043270         4    ;  uncertainty k = 0.022809
        37        15        16        38     9        0.000000        0.823414         1    ;  uncertainty k = 0.215557
        37        15        16        38     9      180.000000       -0.170976         2    ;  uncertainty k = 0.266678
        37        15        16        38     9        0.000000        0.469348         3    ;  uncertainty k = 0.038030
        37        15        16        38     9      180.000000        0.043270         4    ;  uncertainty k = 0.022809
        37        15        16        39     9        0.000000        0.823414         1    ;  uncertainty k = 0.215557
        37        15        16        39     9      180.000000       -0.170976         2    ;  uncertainty k = 0.266678
        37        15        16        39     9        0.000000        0.469348         3    ;  uncertainty k = 0.038030
        37        15        16        39     9      180.000000        0.043270         4    ;  uncertainty k = 0.022809
        40        20        21        41     9        0.000000        0.143668         1    ;  uncertainty k = 0.287689
        40        20        21        41     9      180.000000       -0.308389         2    ;  uncertainty k = 0.120561
        40        20        21        41     9        0.000000        0.423570         3    ;  uncertainty k = 0.126378
        40        20        21        41     9      180.000000       -0.021121         4    ;  uncertainty k = 0.092887
        40        20        21        42     9        0.000000        0.143668         1    ;  uncertainty k = 0.287689
        40        20        21        42     9      180.000000       -0.308389         2    ;  uncertainty k = 0.120561
        40        20        21        42     9        0.000000        0.423570         3    ;  uncertainty k = 0.126378
        40        20        21        42     9      180.000000       -0.021121         4    ;  uncertainty k = 0.092887
        40        20        21        43     9        0.000000        0.143668         1    ;  uncertainty k = 0.287689
        40        20        21        43     9      180.000000       -0.308389         2    ;  uncertainty k = 0.120561
        40        20        21        43     9        0.000000        0.423570         3    ;  uncertainty k = 0.126378
        40        20        21        43     9      180.000000       -0.021121         4    ;  uncertainty k = 0.092887
        44        25        26        46     9        0.000000       -2.278074         1    ;  uncertainty k = 1.043178
        44        25        26        46     9      180.000000        1.532748         2    ;  uncertainty k = 0.718723
        44        25        26        46     9        0.000000       -0.092826         3    ;  uncertainty k = 0.085920
        44        25        26        46     9      180.000000       -0.789690         4    ;  uncertainty k = 0.177408
        44        25        26        47     9        0.000000       -2.278074         1    ;  uncertainty k = 1.043178
        44        25        26        47     9      180.000000        1.532748         2    ;  uncertainty k = 0.718723
        44        25        26        47     9        0.000000       -0.092826         3    ;  uncertainty k = 0.085920
        44        25        26        47     9      180.000000       -0.789690         4    ;  uncertainty k = 0.177408
        45        25        26        46     9        0.000000       -2.278074         1    ;  uncertainty k = 1.043178
        45        25        26        46     9      180.000000        1.532748         2    ;  uncertainty k = 0.718723
        45        25        26        46     9        0.000000       -0.092826         3    ;  uncertainty k = 0.085920
        45        25        26        46     9      180.000000       -0.789690         4    ;  uncertainty k = 0.177408
        45        25        26        47     9        0.000000       -2.278074         1    ;  uncertainty k = 1.043178
        45        25        26        47     9      180.000000        1.532748         2    ;  uncertainty k = 0.718723
        45        25        26        47     9        0.000000       -0.092826         3    ;  uncertainty k = 0.085920
        45        25        26        47     9      180.000000       -0.789690         4    ;  uncertainty k = 0.177408
        48        28        29        50     9        0.000000       -2.278074         1    ;  uncertainty k = 1.043178
        48        28        29        50     9      180.000000        1.532748         2    ;  uncertainty k = 0.718723
        48        28        29        50     9        0.000000       -0.092826         3    ;  uncertainty k = 0.085920
        48        28        29        50     9      180.000000       -0.789690         4    ;  uncertainty k = 0.177408
        48        28        29        51     9        0.000000       -2.278074         1    ;  uncertainty k = 1.043178
        48        28        29        51     9      180.000000        1.532748         2    ;  uncertainty k = 0.718723
        48        28        29        51     9        0.000000       -0.092826         3    ;  uncertainty k = 0.085920
        48        28        29        51     9      180.000000       -0.789690         4    ;  uncertainty k = 0.177408
        49        28        29        50     9        0.000000       -2.278074         1    ;  uncertainty k = 1.043178
        49        28        29        50     9      180.000000        1.532748         2    ;  uncertainty k = 0.718723
        49        28        29        50     9        0.000000       -0.092826         3    ;  uncertainty k = 0.085920
        49        28        29        50     9      180.000000       -0.789690         4    ;  uncertainty k = 0.177408
        49        28        29        51     9        0.000000       -2.278074         1    ;  uncertainty k = 1.043178
        49        28        29        51     9      180.000000        1.532748         2    ;  uncertainty k = 0.718723
        49        28        29        51     9        0.000000       -0.092826         3    ;  uncertainty k = 0.085920
        49        28        29        51     9      180.000000       -0.789690         4    ;  uncertainty k = 0.177408

[ dihedrals ] ; impropers
;       ai        aj        ak        al funct           phase               k        pn
         2         1         3         8     4      180.000000       11.844486         2    ;  uncertainty k = 0.046882
         2         3         8         1     4      180.000000       11.844486         2    ;  uncertainty k = 0.046882
         2         8         1         3     4      180.000000       11.844486         2    ;  uncertainty k = 0.046882
         3         2         4        31     4      180.000000        5.675369         2    ;  uncertainty k = 0.210320
         3         4        31         2     4      180.000000        5.675369         2    ;  uncertainty k = 0.210320
         3        31         2         4     4      180.000000        5.675369         2    ;  uncertainty k = 0.210320
         4         3         5        30     4      180.000000        1.354840         2    ;  uncertainty k = 1.062744
         4         5        30         3     4      180.000000        1.354840         2    ;  uncertainty k = 1.062744
         4        30         3         5     4      180.000000        1.354840         2    ;  uncertainty k = 1.062744
         5         4         6         7     4      180.000000        7.522017         2    ;  uncertainty k = 0.349082
         5         6         7         4     4      180.000000        7.522017         2    ;  uncertainty k = 0.349082
         5         7         4         6     4      180.000000        7.522017         2    ;  uncertainty k = 0.349082
         6         5         9        32     4      180.000000        2.907582         2    ;  uncertainty k = 0.387648
         6         9        32         5     4      180.000000        2.907582         2    ;  uncertainty k = 0.387648
         6        32         5         9     4      180.000000        2.907582         2    ;  uncertainty k = 0.387648
         8         2         7        33     4      180.000000       11.758800         2    ;  uncertainty k = 0.071642
         8         7        33         2     4      180.000000       11.758800         2    ;  uncertainty k = 0.071642
         8        33         2         7     4      180.000000       11.758800         2    ;  uncertainty k = 0.071642
         9         6        10        30     4      180.000000        2.091469         2    ;  uncertainty k = 0.709233
         9        10        30         6     4      180.000000        2.091469         2    ;  uncertainty k = 0.709233
         9        30         6        10     4      180.000000        2.091469         2    ;  uncertainty k = 0.709233
        17        14        18        19     4      180.000000       48.908347         2    ;  uncertainty k = 0.034977
        17        18        19        14     4      180.000000       48.908347         2    ;  uncertainty k = 0.034977
        17        19        14        18     4      180.000000       48.908347         2    ;  uncertainty k = 0.034977
        22        20        23        24     4      180.000000       50.108480         2    ;  uncertainty k = 0.051863
        22        23        24        20     4      180.000000       50.108480         2    ;  uncertainty k = 0.051863
        22        24        20        23     4      180.000000       50.108480         2    ;  uncertainty k = 0.051863

[ pairs ]
;       ai        aj funct
         1         4     1
         1         7     1
         1        31     1
         1        33     1
         2         5     1
         2        30     1
         3         6     1
         3         7     1
         3         9     1
         3        33     1
         4         8     1
         4        10     1
         4        32     1
         5        10     1
         5        31     1
         5        33     1
         6         8     1
         6        11     1
         6        12     1
         6        13     1
         7         9     1
         7        30     1
         7        32     1
         8        31     1
         9        14     1
         9        34     1
        10        15     1
        10        17     1
        10        32     1
        10        35     1
        11        14     1
        11        30     1
        11        34     1
        12        14     1
        12        30     1
        12        34     1
        13        16     1
        13        18     1
        13        19     1
        13        30     1
        13        36     1
        13        37     1
        14        20     1
        14        38     1
        14        39     1
        15        18     1
        15        20     1
        15        34     1
        16        18     1
        16        21     1
        16        22     1
        16        35     1
        16        40     1
        17        21     1
        17        22     1
        17        34     1
        17        36     1
        17        37     1
        17        38     1
        17        39     1
        17        40     1
        18        20     1
        18        35     1
        19        23     1
        19        24     1
        19        35     1
        19        36     1
        19        37     1
        19        41     1
        19        42     1
        19        43     1
        20        25     1
        20        29     1
        20        38     1
        20        39     1
        21        23     1
        21        24     1
        22        26     1
        22        28     1
        22        41     1
        22        42     1
        22        43     1
        22        44     1
        22        45     1
        22        50     1
        22        51     1
        23        25     1
        23        29     1
        23        40     1
        24        27     1
        24        40     1
        24        46     1
        24        47     1
        24        48     1
        24        49     1
        25        28     1
        25        50     1
        25        51     1
        26        29     1
        26        48     1
        26        49     1
        27        44     1
        27        45     1
        27        50     1
        27        51     1
        28        46     1
        28        47     1
        29        44     1
        29        45     1
        30        31     1
        30        32     1
        34        35     1
        35        36     1
        35        37     1
        36        38     1
        36        39     1
        37        38     1
        37        39     1
        40        41     1
        40        42     1
        40        43     1
        44        46     1
        44        47     1
        45        46     1
        45        47     1
        48        50     1
        48        51     1
        49        50     1
        49        51     1
