; ITP file created by ByteFF-joint-25, 2025-07-14 11:37:24.228619

[ atomtypes ]
;name           bonded.type        at.num        mass        charge   ptype           sigma         epsilon
 cl0bf                                 17      0.0000       0.00000       A     3.46603e-01     1.10366e+00    ;  uncertainty sigma = 0.000026, epsilon = 0.000632
 c1bf                                   6      0.0000       0.00000       A     3.31524e-01     4.13173e-01    ;  uncertainty sigma = 0.000006, epsilon = 0.000697
 c2bf                                   6      0.0000       0.00000       A     3.31507e-01     4.13507e-01    ;  uncertainty sigma = 0.000010, epsilon = 0.000710
 c3bf                                   6      0.0000       0.00000       A     3.31532e-01     4.12949e-01    ;  uncertainty sigma = 0.000011, epsilon = 0.000662
 c4bf                                   6      0.0000       0.00000       A     3.31583e-01     4.13279e-01    ;  uncertainty sigma = 0.000024, epsilon = 0.001348
 s5bf                                  16      0.0000       0.00000       A     3.53320e-01     1.18023e+00    ;  uncertainty sigma = 0.000021, epsilon = 0.004370
 n6bf                                   7      0.0000       0.00000       A     3.38448e-01     3.93399e-01    ;  uncertainty sigma = 0.000006, epsilon = 0.000975
 c7bf                                   6      0.0000       0.00000       A     3.31515e-01     4.13442e-01    ;  uncertainty sigma = 0.000008, epsilon = 0.000550
 c8bf                                   6      0.0000       0.00000       A     3.31496e-01     4.12295e-01    ;  uncertainty sigma = 0.000031, epsilon = 0.001400
 s9bf                                  16      0.0000       0.00000       A     4.05906e-01     2.57796e-01    ;  uncertainty sigma = 0.000021, epsilon = 0.002846
 o10bf                                  8      0.0000       0.00000       A     3.04844e-01     6.12080e-01    ;  uncertainty sigma = 0.000030, epsilon = 0.001157
 o11bf                                  8      0.0000       0.00000       A     3.04844e-01     6.12080e-01    ;  uncertainty sigma = 0.000030, epsilon = 0.001157
 n12bf                                  7      0.0000       0.00000       A     3.50737e-01     2.17907e-01    ;  uncertainty sigma = 0.000090, epsilon = 0.003822
 c13bf                                  6      0.0000       0.00000       A     3.39784e-01     4.51033e-01    ;  uncertainty sigma = 0.000012, epsilon = 0.001003
 c14bf                                  6      0.0000       0.00000       A     3.39783e-01     4.50616e-01    ;  uncertainty sigma = 0.000012, epsilon = 0.000870
 c15bf                                  6      0.0000       0.00000       A     3.39778e-01     4.51121e-01    ;  uncertainty sigma = 0.000011, epsilon = 0.000952
 c16bf                                  6      0.0000       0.00000       A     3.31503e-01     4.14103e-01    ;  uncertainty sigma = 0.000019, epsilon = 0.001327
 o17bf                                  8      0.0000       0.00000       A     3.04856e-01     6.12000e-01    ;  uncertainty sigma = 0.000014, epsilon = 0.001679
 n18bf                                  7      0.0000       0.00000       A     3.18104e-01     6.84089e-01    ;  uncertainty sigma = 0.000026, epsilon = 0.002216
 c19bf                                  6      0.0000       0.00000       A     3.39765e-01     4.50085e-01    ;  uncertainty sigma = 0.000013, epsilon = 0.000893
 c20bf                                  6      0.0000       0.00000       A     3.39757e-01     4.50850e-01    ;  uncertainty sigma = 0.000009, epsilon = 0.000447
 c21bf                                  6      0.0000       0.00000       A     3.31517e-01     4.12537e-01    ;  uncertainty sigma = 0.000018, epsilon = 0.001350
 o22bf                                  8      0.0000       0.00000       A     3.04822e-01     6.12836e-01    ;  uncertainty sigma = 0.000014, epsilon = 0.000674
 n23bf                                  7      0.0000       0.00000       A     3.18074e-01     6.83799e-01    ;  uncertainty sigma = 0.000019, epsilon = 0.001496
 c24bf                                  6      0.0000       0.00000       A     3.39785e-01     4.50976e-01    ;  uncertainty sigma = 0.000006, epsilon = 0.000726
 c25bf                                  6      0.0000       0.00000       A     3.39786e-01     4.50778e-01    ;  uncertainty sigma = 0.000006, epsilon = 0.000813
 o26bf                                  8      0.0000       0.00000       A     3.15603e-01     3.03473e-01    ;  uncertainty sigma = 0.000014, epsilon = 0.001064
 c27bf                                  6      0.0000       0.00000       A     3.39786e-01     4.50778e-01    ;  uncertainty sigma = 0.000006, epsilon = 0.000813
 c28bf                                  6      0.0000       0.00000       A     3.39785e-01     4.50976e-01    ;  uncertainty sigma = 0.000006, epsilon = 0.000726
 c29bf                                  6      0.0000       0.00000       A     3.31599e-01     4.12953e-01    ;  uncertainty sigma = 0.000035, epsilon = 0.000197
 h30bf                                  1      0.0000       0.00000       A     2.62561e-01     6.70744e-02    ;  uncertainty sigma = 0.000017, epsilon = 0.000616
 h31bf                                  1      0.0000       0.00000       A     2.53660e-01     6.70476e-02    ;  uncertainty sigma = 0.000020, epsilon = 0.000443
 h32bf                                  1      0.0000       0.00000       A     1.10633e-01     4.09567e-02    ;  uncertainty sigma = 0.000099, epsilon = 0.002184
 h33bf                                  1      0.0000       0.00000       A     2.42030e-01     8.68574e-02    ;  uncertainty sigma = 0.000019, epsilon = 0.001232
 h34bf                                  1      0.0000       0.00000       A     2.60025e-01     8.63275e-02    ;  uncertainty sigma = 0.000013, epsilon = 0.000679
 h35bf                                  1      0.0000       0.00000       A     2.60025e-01     8.63275e-02    ;  uncertainty sigma = 0.000013, epsilon = 0.000679
 h36bf                                  1      0.0000       0.00000       A     2.42200e-01     8.64335e-02    ;  uncertainty sigma = 0.000011, epsilon = 0.000932
 h37bf                                  1      0.0000       0.00000       A     2.42200e-01     8.64335e-02    ;  uncertainty sigma = 0.000011, epsilon = 0.000932
 h38bf                                  1      0.0000       0.00000       A     2.42203e-01     8.69613e-02    ;  uncertainty sigma = 0.000061, epsilon = 0.001014
 h39bf                                  1      0.0000       0.00000       A     2.60028e-01     8.67689e-02    ;  uncertainty sigma = 0.000014, epsilon = 0.000406
 h40bf                                  1      0.0000       0.00000       A     2.60028e-01     8.67689e-02    ;  uncertainty sigma = 0.000014, epsilon = 0.000406
 h41bf                                  1      0.0000       0.00000       A     2.60028e-01     8.67689e-02    ;  uncertainty sigma = 0.000014, epsilon = 0.000406
 h42bf                                  1      0.0000       0.00000       A     2.42216e-01     8.67300e-02    ;  uncertainty sigma = 0.000014, epsilon = 0.000623
 h43bf                                  1      0.0000       0.00000       A     2.42216e-01     8.67300e-02    ;  uncertainty sigma = 0.000014, epsilon = 0.000623
 h44bf                                  1      0.0000       0.00000       A     2.42211e-01     8.67300e-02    ;  uncertainty sigma = 0.000015, epsilon = 0.000752
 h45bf                                  1      0.0000       0.00000       A     2.42211e-01     8.67300e-02    ;  uncertainty sigma = 0.000015, epsilon = 0.000752
 h46bf                                  1      0.0000       0.00000       A     2.42211e-01     8.67300e-02    ;  uncertainty sigma = 0.000015, epsilon = 0.000752
 h47bf                                  1      0.0000       0.00000       A     2.42211e-01     8.67300e-02    ;  uncertainty sigma = 0.000015, epsilon = 0.000752
 h48bf                                  1      0.0000       0.00000       A     2.42216e-01     8.67299e-02    ;  uncertainty sigma = 0.000014, epsilon = 0.000623
 h49bf                                  1      0.0000       0.00000       A     2.42216e-01     8.67299e-02    ;  uncertainty sigma = 0.000014, epsilon = 0.000623
 h50bf                                  1      0.0000       0.00000       A     2.62629e-01     6.69145e-02    ;  uncertainty sigma = 0.000026, epsilon = 0.000808

[ moleculetype ]
;name             nrexcl
 MOL                   3

[ atoms ]
;       nr            type      resi   res      atom      cgnr      charge          mass ; qtot
         1           cl0bf         1   UNL       cl0         1    -0.09624       35.4530 ; qtot   -0.096
         2            c1bf         1   UNL        c1         2    -0.09463       12.0110 ; qtot   -0.191
         3            c2bf         1   UNL        c2         3    -0.03086       12.0110 ; qtot   -0.222
         4            c3bf         1   UNL        c3         4    -0.20704       12.0110 ; qtot   -0.429
         5            c4bf         1   UNL        c4         5     0.46480       12.0110 ; qtot    0.036
         6            s5bf         1   UNL        s5         6    -0.02972       32.0670 ; qtot    0.006
         7            n6bf         1   UNL        n6         7    -0.62392       14.0070 ; qtot   -0.618
         8            c7bf         1   UNL        c7         8     0.42211       12.0110 ; qtot   -0.196
         9            c8bf         1   UNL        c8         9    -0.24394       12.0110 ; qtot   -0.439
        10            s9bf         1   UNL        s9        10     1.25784       32.0670 ; qtot    0.818
        11           o10bf         1   UNL       o10        11    -0.59124       15.9990 ; qtot    0.227
        12           o11bf         1   UNL       o11        12    -0.59124       15.9990 ; qtot   -0.364
        13           n12bf         1   UNL       n12        13    -0.76859       14.0070 ; qtot   -1.133
        14           c13bf         1   UNL       c13        14     0.12770       12.0110 ; qtot   -1.005
        15           c14bf         1   UNL       c14        15    -0.09711       12.0110 ; qtot   -1.102
        16           c15bf         1   UNL       c15        16     0.09835       12.0110 ; qtot   -1.004
        17           c16bf         1   UNL       c16        17     0.69359       12.0110 ; qtot   -0.310
        18           o17bf         1   UNL       o17        18    -0.62440       15.9990 ; qtot   -0.935
        19           n18bf         1   UNL       n18        19    -0.46819       14.0070 ; qtot   -1.403
        20           c19bf         1   UNL       c19        20     0.05357       12.0110 ; qtot   -1.349
        21           c20bf         1   UNL       c20        21    -0.09682       12.0110 ; qtot   -1.446
        22           c21bf         1   UNL       c21        22     0.65569       12.0110 ; qtot   -0.790
        23           o22bf         1   UNL       o22        23    -0.59852       15.9990 ; qtot   -1.389
        24           n23bf         1   UNL       n23        24    -0.48329       14.0070 ; qtot   -1.872
        25           c24bf         1   UNL       c24        25     0.06631       12.0110 ; qtot   -1.806
        26           c25bf         1   UNL       c25        26     0.11525       12.0110 ; qtot   -1.691
        27           o26bf         1   UNL       o26        27    -0.41112       15.9990 ; qtot   -2.102
        28           c27bf         1   UNL       c27        28     0.11525       12.0110 ; qtot   -1.986
        29           c28bf         1   UNL       c28        29     0.06631       12.0110 ; qtot   -1.920
        30           c29bf         1   UNL       c29        30     0.03182       12.0110 ; qtot   -1.888
        31           h30bf         1   UNL       h30        31     0.16298        1.0080 ; qtot   -1.725
        32           h31bf         1   UNL       h31        32     0.04182        1.0080 ; qtot   -1.683
        33           h32bf         1   UNL       h32        33     0.43318        1.0080 ; qtot   -1.250
        34           h33bf         1   UNL       h33        34     0.09162        1.0080 ; qtot   -1.159
        35           h34bf         1   UNL       h34        35     0.07326        1.0080 ; qtot   -1.085
        36           h35bf         1   UNL       h35        36     0.07326        1.0080 ; qtot   -1.012
        37           h36bf         1   UNL       h36        37     0.05597        1.0080 ; qtot   -0.956
        38           h37bf         1   UNL       h37        38     0.05597        1.0080 ; qtot   -0.900
        39           h38bf         1   UNL       h38        39     0.08023        1.0080 ; qtot   -0.820
        40           h39bf         1   UNL       h39        40     0.05231        1.0080 ; qtot   -0.768
        41           h40bf         1   UNL       h40        41     0.05231        1.0080 ; qtot   -0.715
        42           h41bf         1   UNL       h41        42     0.05231        1.0080 ; qtot   -0.663
        43           h42bf         1   UNL       h42        43     0.06503        1.0080 ; qtot   -0.598
        44           h43bf         1   UNL       h43        44     0.06503        1.0080 ; qtot   -0.533
        45           h44bf         1   UNL       h44        45     0.05533        1.0080 ; qtot   -0.478
        46           h45bf         1   UNL       h45        46     0.05533        1.0080 ; qtot   -0.422
        47           h46bf         1   UNL       h46        47     0.05533        1.0080 ; qtot   -0.367
        48           h47bf         1   UNL       h47        48     0.05533        1.0080 ; qtot   -0.312
        49           h48bf         1   UNL       h48        49     0.06503        1.0080 ; qtot   -0.247
        50           h49bf         1   UNL       h49        50     0.06503        1.0080 ; qtot   -0.182
        51           h50bf         1   UNL       h50        51     0.18162        1.0080 ; qtot    0.000

[ bonds ]
;       ai        aj funct               r               k
         1         2     1        0.175374   196949.261279    ;  uncertainty r = 0.000070, k = 5.821447
         2         3     1        0.138752   366004.925342    ;  uncertainty r = 0.000079, k = 5.029712
         2         8     1        0.140797   334209.308887    ;  uncertainty r = 0.000080, k = 14.816249
         3         4     1        0.140159   368004.200098    ;  uncertainty r = 0.000130, k = 5.608297
         3        31     1        0.108717   334464.169238    ;  uncertainty r = 0.000023, k = 2.191898
         4         5     1        0.142080   351521.987891    ;  uncertainty r = 0.000073, k = 12.925048
         4        30     1        0.143767   257125.339941    ;  uncertainty r = 0.000038, k = 8.567752
         5         6     1        0.176039   167231.765405    ;  uncertainty r = 0.000165, k = 18.388187
         5         7     1        0.133095   380371.898779    ;  uncertainty r = 0.000119, k = 7.742723
         6         9     1        0.175462   186132.163110    ;  uncertainty r = 0.000156, k = 9.140695
         7         8     1        0.133133   415336.440674    ;  uncertainty r = 0.000066, k = 7.451437
         8        32     1        0.108909   339257.637891    ;  uncertainty r = 0.000041, k = 2.306421
         9        10     1        0.177272   147446.634546    ;  uncertainty r = 0.000044, k = 10.909999
         9        30     1        0.136335   412446.303857    ;  uncertainty r = 0.000114, k = 4.789239
        10        11     1        0.146917   525222.750000    ;  uncertainty r = 0.000066, k = 9.416449
        10        12     1        0.146917   525222.750000    ;  uncertainty r = 0.000066, k = 9.416449
        10        13     1        0.170793   174926.441211    ;  uncertainty r = 0.000481, k = 42.318488
        13        14     1        0.145853   325967.487744    ;  uncertainty r = 0.000227, k = 23.567443
        13        33     1        0.102503   452537.088477    ;  uncertainty r = 0.000066, k = 4.496025
        14        15     1        0.153642   217518.917676    ;  uncertainty r = 0.000058, k = 11.337287
        14        17     1        0.152882   205251.324463    ;  uncertainty r = 0.000200, k = 16.619840
        14        34     1        0.109645   310616.620557    ;  uncertainty r = 0.000043, k = 2.401336
        15        16     1        0.154051   219214.019922    ;  uncertainty r = 0.000061, k = 4.273335
        15        35     1        0.109299   310844.386035    ;  uncertainty r = 0.000017, k = 1.748840
        15        36     1        0.109299   310844.386035    ;  uncertainty r = 0.000017, k = 1.748840
        16        19     1        0.146768   246650.400732    ;  uncertainty r = 0.000221, k = 12.930896
        16        37     1        0.109541   305996.165820    ;  uncertainty r = 0.000033, k = 2.444509
        16        38     1        0.109541   305996.165820    ;  uncertainty r = 0.000033, k = 2.444509
        17        18     1        0.123417   694917.965430    ;  uncertainty r = 0.000090, k = 12.430423
        17        19     1        0.136349   286304.756152    ;  uncertainty r = 0.000078, k = 23.105244
        19        20     1        0.145555   281517.671777    ;  uncertainty r = 0.000222, k = 19.681971
        20        21     1        0.153460   212444.030078    ;  uncertainty r = 0.000030, k = 6.319440
        20        22     1        0.154403   218642.780322    ;  uncertainty r = 0.000018, k = 16.462715
        20        39     1        0.109460   310823.190234    ;  uncertainty r = 0.000049, k = 2.513796
        21        40     1        0.109409   312861.000488    ;  uncertainty r = 0.000017, k = 1.141259
        21        41     1        0.109409   312861.000488    ;  uncertainty r = 0.000017, k = 1.141259
        21        42     1        0.109409   312861.000488    ;  uncertainty r = 0.000017, k = 1.141259
        22        23     1        0.123332   703381.882813    ;  uncertainty r = 0.000097, k = 9.602494
        22        24     1        0.136706   308486.621338    ;  uncertainty r = 0.000033, k = 12.395068
        24        25     1        0.146392   254501.759473    ;  uncertainty r = 0.000091, k = 8.526718
        24        29     1        0.146392   254501.759473    ;  uncertainty r = 0.000091, k = 8.526718
        25        26     1        0.152681   207263.227319    ;  uncertainty r = 0.000025, k = 4.718310
        25        43     1        0.109477   308256.276611    ;  uncertainty r = 0.000021, k = 2.245969
        25        44     1        0.109477   308256.276611    ;  uncertainty r = 0.000021, k = 2.245969
        26        27     1        0.142361   276005.563330    ;  uncertainty r = 0.000033, k = 2.914980
        26        45     1        0.109826   309629.075000    ;  uncertainty r = 0.000019, k = 1.877640
        26        46     1        0.109826   309629.075000    ;  uncertainty r = 0.000019, k = 1.877640
        27        28     1        0.142361   276005.563330    ;  uncertainty r = 0.000033, k = 2.914980
        28        29     1        0.152681   207263.227319    ;  uncertainty r = 0.000025, k = 4.718310
        28        47     1        0.109826   309629.075000    ;  uncertainty r = 0.000019, k = 1.877640
        28        48     1        0.109826   309629.075000    ;  uncertainty r = 0.000019, k = 1.877640
        29        49     1        0.109477   308256.276611    ;  uncertainty r = 0.000021, k = 2.245969
        29        50     1        0.109477   308256.251074    ;  uncertainty r = 0.000021, k = 2.245982
        30        51     1        0.108400   332878.212598    ;  uncertainty r = 0.000043, k = 1.194210

[ angles ]
;       ai        aj        ak funct           theta             cth
         1         2         3     1      121.424843      436.009784    ;  uncertainty theta = 0.001340, k = 0.039240
         1         2         8     1      119.301918      426.341466    ;  uncertainty theta = 0.001830, k = 0.153719
         2         3         4     1      116.815773      540.139614    ;  uncertainty theta = 0.004569, k = 0.093367
         2         3        31     1      121.639549      286.593594    ;  uncertainty theta = 0.002657, k = 0.114915
         2         8         7     1      123.401474      656.736182    ;  uncertainty theta = 0.003236, k = 0.081594
         2         8        32     1      120.710060      278.591157    ;  uncertainty theta = 0.001602, k = 0.091606
         3         2         8     1      122.025841      353.988771    ;  uncertainty theta = 0.002970, k = 0.276888
         3         4         5     1      115.858841      393.295457    ;  uncertainty theta = 0.004187, k = 0.390188
         3         4        30     1      129.133270      400.925786    ;  uncertainty theta = 0.004070, k = 0.162884
         4         3        31     1      121.703346      282.838394    ;  uncertainty theta = 0.002154, k = 0.138135
         4         5         6     1      112.245178      448.439813    ;  uncertainty theta = 0.004191, k = 0.321818
         4         5         7     1      124.782387      544.725249    ;  uncertainty theta = 0.002672, k = 0.119209
         4        30         9     1      111.861160      670.535350    ;  uncertainty theta = 0.003264, k = 0.178476
         4        30        51     1      123.654907      251.504009    ;  uncertainty theta = 0.003167, k = 0.086046
         5         4        30     1      112.562668      589.727765    ;  uncertainty theta = 0.004498, k = 0.220819
         5         6         9     1       88.740814     1132.243670    ;  uncertainty theta = 0.003990, k = 0.065827
         5         7         8     1      114.891190      414.596120    ;  uncertainty theta = 0.004591, k = 0.081303
         6         5         7     1      121.727028      411.120839    ;  uncertainty theta = 0.006170, k = 0.288482
         6         9        10     1      118.634438      335.457161    ;  uncertainty theta = 0.007074, k = 0.114691
         6         9        30     1      115.353477      445.675995    ;  uncertainty theta = 0.012779, k = 0.098143
         7         8        32     1      117.040138      333.914751    ;  uncertainty theta = 0.002068, k = 0.168435
         9        10        11     1      112.961792      604.368700    ;  uncertainty theta = 0.003501, k = 0.171368
         9        10        12     1      112.961792      604.368700    ;  uncertainty theta = 0.003501, k = 0.171368
         9        10        13     1      104.690536      652.479465    ;  uncertainty theta = 0.006225, k = 0.150012
         9        30        51     1      121.750816      244.000472    ;  uncertainty theta = 0.005112, k = 0.117957
        10         9        30     1      120.542259      301.718553    ;  uncertainty theta = 0.003537, k = 0.186931
        10        13        14     1      110.336487      419.250450    ;  uncertainty theta = 0.005590, k = 0.115358
        10        13        33     1      111.044327      440.453337    ;  uncertainty theta = 0.004387, k = 0.115517
        11        10        12     1      125.143112      795.792446    ;  uncertainty theta = 0.002343, k = 0.085301
        11        10        13     1      113.780594      815.509648    ;  uncertainty theta = 0.003722, k = 0.115731
        12        10        13     1      113.780594      815.509648    ;  uncertainty theta = 0.003722, k = 0.115731
        13        14        15     1      110.813522      582.281973    ;  uncertainty theta = 0.002117, k = 0.221116
        13        14        17     1      103.397507      504.632338    ;  uncertainty theta = 0.004719, k = 0.106833
        13        14        34     1      106.020554      411.108006    ;  uncertainty theta = 0.005220, k = 0.125690
        14        13        33     1      110.428833      398.947873    ;  uncertainty theta = 0.003145, k = 0.174898
        14        15        16     1      105.090866      704.961353    ;  uncertainty theta = 0.002584, k = 0.163493
        14        15        35     1      108.412819      386.708288    ;  uncertainty theta = 0.000541, k = 0.060988
        14        15        36     1      108.412819      386.708288    ;  uncertainty theta = 0.000541, k = 0.060988
        14        17        18     1      125.981590      461.544531    ;  uncertainty theta = 0.003053, k = 0.152205
        14        17        19     1      111.585571      487.843636    ;  uncertainty theta = 0.004459, k = 0.113759
        15        14        17     1      105.885330      714.826083    ;  uncertainty theta = 0.003343, k = 0.112684
        15        14        34     1      109.294922      381.983348    ;  uncertainty theta = 0.004210, k = 0.166194
        15        16        19     1      104.783669      782.725809    ;  uncertainty theta = 0.002755, k = 0.099545
        15        16        37     1      110.273422      402.520132    ;  uncertainty theta = 0.001363, k = 0.041871
        15        16        38     1      110.273422      402.520132    ;  uncertainty theta = 0.001363, k = 0.041871
        16        15        35     1      109.696510      408.338730    ;  uncertainty theta = 0.001401, k = 0.098939
        16        15        36     1      109.696510      408.338730    ;  uncertainty theta = 0.001401, k = 0.098939
        16        19        17     1      113.800400      558.185412    ;  uncertainty theta = 0.004051, k = 0.196713
        16        19        20     1      116.627670      418.914317    ;  uncertainty theta = 0.004736, k = 0.139254
        17        14        34     1      108.395241      373.986370    ;  uncertainty theta = 0.002018, k = 0.148960
        17        19        20     1      115.859238      394.898134    ;  uncertainty theta = 0.005834, k = 0.223208
        18        17        19     1      126.441208      689.779605    ;  uncertainty theta = 0.003327, k = 0.081511
        19        16        37     1      108.898422      451.460182    ;  uncertainty theta = 0.000848, k = 0.056988
        19        16        38     1      108.898422      451.460182    ;  uncertainty theta = 0.000848, k = 0.056988
        19        20        21     1      110.632401      680.881263    ;  uncertainty theta = 0.005659, k = 0.187610
        19        20        22     1      106.307907      510.576611    ;  uncertainty theta = 0.004206, k = 0.177546
        19        20        39     1      104.193527      439.162245    ;  uncertainty theta = 0.004577, k = 0.070621
        20        21        40     1      107.700577      390.638257    ;  uncertainty theta = 0.001974, k = 0.049172
        20        21        41     1      107.700577      390.638257    ;  uncertainty theta = 0.001974, k = 0.049172
        20        21        42     1      107.700577      390.638257    ;  uncertainty theta = 0.001974, k = 0.049172
        20        22        23     1      123.488663      491.647772    ;  uncertainty theta = 0.006202, k = 0.099047
        20        22        24     1      112.431114      386.828280    ;  uncertainty theta = 0.005821, k = 0.248360
        21        20        22     1      107.996933      498.807419    ;  uncertainty theta = 0.002482, k = 0.128252
        21        20        39     1      108.264465      418.620896    ;  uncertainty theta = 0.003532, k = 0.103854
        22        20        39     1      108.421043      367.404340    ;  uncertainty theta = 0.006220, k = 0.162230
        22        24        25     1      116.829430      363.497960    ;  uncertainty theta = 0.002063, k = 0.124181
        22        24        29     1      116.829430      363.497960    ;  uncertainty theta = 0.002063, k = 0.124181
        23        22        24     1      124.422546      748.757049    ;  uncertainty theta = 0.002982, k = 0.183298
        24        25        26     1      110.182350      714.010875    ;  uncertainty theta = 0.000722, k = 0.109108
        24        25        43     1      108.304482      458.396540    ;  uncertainty theta = 0.000957, k = 0.042005
        24        25        44     1      108.304482      458.396540    ;  uncertainty theta = 0.000957, k = 0.042005
        24        29        28     1      110.182350      714.010875    ;  uncertainty theta = 0.000722, k = 0.109108
        24        29        49     1      108.304482      458.396540    ;  uncertainty theta = 0.000957, k = 0.042005
        24        29        50     1      108.304482      458.396540    ;  uncertainty theta = 0.000957, k = 0.042005
        25        24        29     1      115.684769      415.199370    ;  uncertainty theta = 0.005388, k = 0.132019
        25        26        27     1      111.287369      644.552363    ;  uncertainty theta = 0.002689, k = 0.032587
        25        26        45     1      109.515793      404.665536    ;  uncertainty theta = 0.000894, k = 0.016388
        25        26        46     1      109.515793      404.665536    ;  uncertainty theta = 0.000894, k = 0.016388
        26        25        43     1      109.080734      409.167122    ;  uncertainty theta = 0.000740, k = 0.033495
        26        25        44     1      109.080734      409.167122    ;  uncertainty theta = 0.000740, k = 0.033495
        26        27        28     1      110.179764      541.020197    ;  uncertainty theta = 0.002124, k = 0.077936
        27        26        45     1      107.084984      465.302572    ;  uncertainty theta = 0.000967, k = 0.023146
        27        26        46     1      107.084984      465.302572    ;  uncertainty theta = 0.000967, k = 0.023146
        27        28        29     1      111.287369      644.552363    ;  uncertainty theta = 0.002689, k = 0.032587
        27        28        47     1      107.084984      465.302572    ;  uncertainty theta = 0.000967, k = 0.023146
        27        28        48     1      107.084984      465.302572    ;  uncertainty theta = 0.000967, k = 0.023146
        28        29        49     1      109.080734      409.167122    ;  uncertainty theta = 0.000740, k = 0.033495
        28        29        50     1      109.080734      409.167122    ;  uncertainty theta = 0.000740, k = 0.033495
        29        28        47     1      109.515793      404.665536    ;  uncertainty theta = 0.000894, k = 0.016388
        29        28        48     1      109.515793      404.665536    ;  uncertainty theta = 0.000894, k = 0.016388
        35        15        36     1      106.440086      304.816109    ;  uncertainty theta = 0.003856, k = 0.068106
        37        16        38     1      105.856216      304.101580    ;  uncertainty theta = 0.002097, k = 0.072369
        40        21        41     1      105.685402      315.694087    ;  uncertainty theta = 0.001842, k = 0.014287
        40        21        42     1      105.685402      315.694087    ;  uncertainty theta = 0.001842, k = 0.014287
        41        21        42     1      105.685402      315.694087    ;  uncertainty theta = 0.001842, k = 0.014287
        43        25        44     1      105.962692      319.495222    ;  uncertainty theta = 0.000795, k = 0.039018
        45        26        46     1      107.529320      317.902537    ;  uncertainty theta = 0.001237, k = 0.038568
        47        28        48     1      107.529320      317.902537    ;  uncertainty theta = 0.001237, k = 0.038569
        49        29        50     1      105.962692      319.495222    ;  uncertainty theta = 0.000795, k = 0.039019

[ dihedrals ] ; propers for gromacs 4.5 or higher, use funct 9
;       ai        aj        ak        al funct           phase               k        pn
         1         2         3         4     9        0.000000        0.055541         1    ;  uncertainty k = 0.332716
         1         2         3         4     9      180.000000       12.612019         2    ;  uncertainty k = 0.372155
         1         2         3         4     9        0.000000        1.636002         3    ;  uncertainty k = 0.284386
         1         2         3         4     9      180.000000        1.483842         4    ;  uncertainty k = 0.296837
         1         2         3        31     9        0.000000       -0.345204         1    ;  uncertainty k = 0.345099
         1         2         3        31     9      180.000000        8.597035         2    ;  uncertainty k = 0.454534
         1         2         3        31     9        0.000000        0.764286         3    ;  uncertainty k = 0.231513
         1         2         3        31     9      180.000000        0.972272         4    ;  uncertainty k = 0.209769
         1         2         8         7     9        0.000000       -0.002938         1    ;  uncertainty k = 0.406229
         1         2         8         7     9      180.000000        9.559170         2    ;  uncertainty k = 0.432116
         1         2         8         7     9        0.000000        1.194406         3    ;  uncertainty k = 0.140241
         1         2         8         7     9      180.000000        1.628823         4    ;  uncertainty k = 0.087548
         1         2         8        32     9        0.000000        0.081534         1    ;  uncertainty k = 0.338924
         1         2         8        32     9      180.000000        5.974883         2    ;  uncertainty k = 0.196172
         1         2         8        32     9        0.000000        0.584432         3    ;  uncertainty k = 0.215483
         1         2         8        32     9      180.000000        0.843811         4    ;  uncertainty k = 0.219219
         2         3         4         5     9        0.000000        0.084002         1    ;  uncertainty k = 0.409782
         2         3         4         5     9      180.000000       12.931299         2    ;  uncertainty k = 0.600080
         2         3         4         5     9        0.000000       -1.539741         3    ;  uncertainty k = 0.548327
         2         3         4         5     9      180.000000        0.773213         4    ;  uncertainty k = 0.373133
         2         3         4        30     9        0.000000        0.365994         1    ;  uncertainty k = 0.698713
         2         3         4        30     9      180.000000        9.108617         2    ;  uncertainty k = 0.425154
         2         3         4        30     9        0.000000        0.867811         3    ;  uncertainty k = 0.240753
         2         3         4        30     9      180.000000        1.370419         4    ;  uncertainty k = 0.236350
         2         8         7         5     9        0.000000        0.210247         1    ;  uncertainty k = 0.700334
         2         8         7         5     9      180.000000       16.576834         2    ;  uncertainty k = 0.221587
         2         8         7         5     9        0.000000        1.212602         3    ;  uncertainty k = 0.408281
         2         8         7         5     9      180.000000        1.466160         4    ;  uncertainty k = 0.238890
         3         2         8         7     9        0.000000       -0.314439         1    ;  uncertainty k = 0.192087
         3         2         8         7     9      180.000000       10.002540         2    ;  uncertainty k = 0.417811
         3         2         8         7     9        0.000000       -0.432591         3    ;  uncertainty k = 0.535421
         3         2         8         7     9      180.000000        1.152313         4    ;  uncertainty k = 0.246894
         3         2         8        32     9        0.000000       -0.571090         1    ;  uncertainty k = 0.269580
         3         2         8        32     9      180.000000        4.337890         2    ;  uncertainty k = 0.626544
         3         2         8        32     9        0.000000        0.947633         3    ;  uncertainty k = 0.157050
         3         2         8        32     9      180.000000        1.131279         4    ;  uncertainty k = 0.287144
         3         4         5         6     9        0.000000        0.025988         1    ;  uncertainty k = 0.507901
         3         4         5         6     9      180.000000        7.110811         2    ;  uncertainty k = 0.342887
         3         4         5         6     9        0.000000        0.292665         3    ;  uncertainty k = 0.372361
         3         4         5         6     9      180.000000        0.984551         4    ;  uncertainty k = 0.267708
         3         4         5         7     9        0.000000       -0.155994         1    ;  uncertainty k = 0.436477
         3         4         5         7     9      180.000000        9.932310         2    ;  uncertainty k = 0.307099
         3         4         5         7     9        0.000000       -0.171487         3    ;  uncertainty k = 0.329869
         3         4         5         7     9      180.000000        0.954793         4    ;  uncertainty k = 0.335146
         3         4        30         9     9        0.000000       -0.377550         1    ;  uncertainty k = 0.481468
         3         4        30         9     9      180.000000        7.099577         2    ;  uncertainty k = 0.637377
         3         4        30         9     9        0.000000        0.605614         3    ;  uncertainty k = 0.260559
         3         4        30         9     9      180.000000        0.486591         4    ;  uncertainty k = 0.260346
         3         4        30        51     9        0.000000        0.512285         1    ;  uncertainty k = 0.529135
         3         4        30        51     9      180.000000        4.982214         2    ;  uncertainty k = 0.470887
         3         4        30        51     9        0.000000        1.184922         3    ;  uncertainty k = 0.194303
         3         4        30        51     9      180.000000        0.138670         4    ;  uncertainty k = 0.090601
         4         3         2         8     9        0.000000        0.005531         1    ;  uncertainty k = 0.250187
         4         3         2         8     9      180.000000       11.404772         2    ;  uncertainty k = 0.323127
         4         3         2         8     9        0.000000        0.127484         3    ;  uncertainty k = 0.482596
         4         3         2         8     9      180.000000        1.132530         4    ;  uncertainty k = 0.459100
         4         5         6         9     9        0.000000       -0.518180         1    ;  uncertainty k = 1.184756
         4         5         6         9     9      180.000000       12.762829         2    ;  uncertainty k = 1.035163
         4         5         6         9     9        0.000000       -5.347336         3    ;  uncertainty k = 1.674560
         4         5         6         9     9      180.000000        0.787541         4    ;  uncertainty k = 0.894985
         4         5         7         8     9        0.000000       -0.216249         1    ;  uncertainty k = 0.385916
         4         5         7         8     9      180.000000       13.455101         2    ;  uncertainty k = 0.208162
         4         5         7         8     9        0.000000        0.961169         3    ;  uncertainty k = 0.591109
         4         5         7         8     9      180.000000        1.310347         4    ;  uncertainty k = 0.322265
         4        30         9         6     9        0.000000       -0.487578         1    ;  uncertainty k = 0.681020
         4        30         9         6     9      180.000000       19.967661         2    ;  uncertainty k = 0.334185
         4        30         9         6     9        0.000000       -1.296532         3    ;  uncertainty k = 0.700931
         4        30         9         6     9      180.000000        0.755414         4    ;  uncertainty k = 0.577949
         4        30         9        10     9        0.000000        0.726228         1    ;  uncertainty k = 0.832417
         4        30         9        10     9      180.000000       15.911880         2    ;  uncertainty k = 0.183597
         4        30         9        10     9        0.000000        2.178366         3    ;  uncertainty k = 0.463492
         4        30         9        10     9      180.000000        0.609251         4    ;  uncertainty k = 0.205390
         5         4         3        31     9        0.000000       -0.032692         1    ;  uncertainty k = 0.165137
         5         4         3        31     9      180.000000        7.468582         2    ;  uncertainty k = 0.815164
         5         4         3        31     9        0.000000        1.155817         3    ;  uncertainty k = 0.272800
         5         4         3        31     9      180.000000        1.364498         4    ;  uncertainty k = 0.263712
         5         4        30         9     9        0.000000       -0.382351         1    ;  uncertainty k = 0.392725
         5         4        30         9     9      180.000000       12.136822         2    ;  uncertainty k = 0.728650
         5         4        30         9     9        0.000000       -4.857589         3    ;  uncertainty k = 1.081404
         5         4        30         9     9      180.000000        1.193350         4    ;  uncertainty k = 0.641084
         5         4        30        51     9        0.000000       -0.295642         1    ;  uncertainty k = 0.619621
         5         4        30        51     9      180.000000        7.540602         2    ;  uncertainty k = 0.582897
         5         4        30        51     9        0.000000        0.786709         3    ;  uncertainty k = 0.279981
         5         4        30        51     9      180.000000        0.289003         4    ;  uncertainty k = 0.246798
         5         6         9        10     9        0.000000        2.305531         1    ;  uncertainty k = 2.865644
         5         6         9        10     9      180.000000        5.175878         2    ;  uncertainty k = 1.483000
         5         6         9        10     9        0.000000        1.382989         3    ;  uncertainty k = 0.384116
         5         6         9        10     9      180.000000        0.162275         4    ;  uncertainty k = 0.311682
         5         6         9        30     9        0.000000       -1.028942         1    ;  uncertainty k = 1.080279
         5         6         9        30     9      180.000000       12.788499         2    ;  uncertainty k = 0.503399
         5         6         9        30     9        0.000000       -6.063608         3    ;  uncertainty k = 1.303754
         5         6         9        30     9      180.000000        1.290689         4    ;  uncertainty k = 0.384135
         5         7         8        32     9        0.000000        0.513016         1    ;  uncertainty k = 0.572068
         5         7         8        32     9      180.000000       17.800357         2    ;  uncertainty k = 0.416577
         5         7         8        32     9        0.000000        2.360166         3    ;  uncertainty k = 0.580014
         5         7         8        32     9      180.000000        1.418868         4    ;  uncertainty k = 0.299030
         6         5         4        30     9        0.000000       -0.639706         1    ;  uncertainty k = 0.792140
         6         5         4        30     9      180.000000        8.528711         2    ;  uncertainty k = 0.329699
         6         5         4        30     9        0.000000       -0.649083         3    ;  uncertainty k = 0.675521
         6         5         4        30     9      180.000000        1.198390         4    ;  uncertainty k = 0.360307
         6         5         7         8     9        0.000000        0.460980         1    ;  uncertainty k = 1.448113
         6         5         7         8     9      180.000000       14.391677         2    ;  uncertainty k = 0.550257
         6         5         7         8     9        0.000000        1.929508         3    ;  uncertainty k = 0.545165
         6         5         7         8     9      180.000000        1.320987         4    ;  uncertainty k = 0.478632
         6         9        10        11     9        0.000000       -7.264382         1    ;  uncertainty k = 0.401574
         6         9        10        11     9      180.000000        1.078464         2    ;  uncertainty k = 0.668598
         6         9        10        11     9        0.000000        0.876831         3    ;  uncertainty k = 0.290374
         6         9        10        11     9      180.000000        0.024294         4    ;  uncertainty k = 0.155141
         6         9        10        12     9        0.000000       -7.264382         1    ;  uncertainty k = 0.401574
         6         9        10        12     9      180.000000        1.078464         2    ;  uncertainty k = 0.668598
         6         9        10        12     9        0.000000        0.876831         3    ;  uncertainty k = 0.290374
         6         9        10        12     9      180.000000        0.024294         4    ;  uncertainty k = 0.155141
         6         9        10        13     9        0.000000       -2.034020         1    ;  uncertainty k = 1.472646
         6         9        10        13     9      180.000000        0.700126         2    ;  uncertainty k = 1.187670
         6         9        10        13     9        0.000000        0.635410         3    ;  uncertainty k = 0.364939
         6         9        10        13     9      180.000000       -0.163608         4    ;  uncertainty k = 0.244350
         6         9        30        51     9        0.000000        0.146473         1    ;  uncertainty k = 0.630389
         6         9        30        51     9      180.000000       12.293387         2    ;  uncertainty k = 0.450430
         6         9        30        51     9        0.000000        1.895068         3    ;  uncertainty k = 0.180017
         6         9        30        51     9      180.000000        1.118702         4    ;  uncertainty k = 0.309658
         7         5         4        30     9        0.000000       -0.395865         1    ;  uncertainty k = 0.677085
         7         5         4        30     9      180.000000        9.516095         2    ;  uncertainty k = 0.452932
         7         5         4        30     9        0.000000        0.016813         3    ;  uncertainty k = 0.179887
         7         5         4        30     9      180.000000        1.164110         4    ;  uncertainty k = 0.269834
         7         5         6         9     9        0.000000        0.763524         1    ;  uncertainty k = 1.329695
         7         5         6         9     9      180.000000        9.470016         2    ;  uncertainty k = 0.338008
         7         5         6         9     9        0.000000        0.171872         3    ;  uncertainty k = 0.279024
         7         5         6         9     9      180.000000        0.311479         4    ;  uncertainty k = 0.410941
         8         2         3        31     9        0.000000       -0.109725         1    ;  uncertainty k = 0.220499
         8         2         3        31     9      180.000000        6.492294         2    ;  uncertainty k = 0.545956
         8         2         3        31     9        0.000000        1.444749         3    ;  uncertainty k = 0.224682
         8         2         3        31     9      180.000000        1.579674         4    ;  uncertainty k = 0.181694
         9        10        13        14     9        0.000000       -5.179808         1    ;  uncertainty k = 1.678396
         9        10        13        14     9      180.000000       -3.520865         2    ;  uncertainty k = 0.636691
         9        10        13        14     9        0.000000        2.343023         3    ;  uncertainty k = 0.668313
         9        10        13        14     9      180.000000        0.033215         4    ;  uncertainty k = 0.346241
         9        10        13        33     9        0.000000        0.866574         1    ;  uncertainty k = 1.192851
         9        10        13        33     9      180.000000       -5.248978         2    ;  uncertainty k = 0.595246
         9        10        13        33     9        0.000000       -0.660704         3    ;  uncertainty k = 0.602306
         9        10        13        33     9      180.000000       -0.123299         4    ;  uncertainty k = 0.217925
        10         9        30        51     9        0.000000       -0.085775         1    ;  uncertainty k = 0.559252
        10         9        30        51     9      180.000000        9.770461         2    ;  uncertainty k = 0.448699
        10         9        30        51     9        0.000000        1.525736         3    ;  uncertainty k = 0.200526
        10         9        30        51     9      180.000000        0.633601         4    ;  uncertainty k = 0.150956
        10        13        14        15     9        0.000000       -3.258442         1    ;  uncertainty k = 1.577213
        10        13        14        15     9      180.000000       -1.537863         2    ;  uncertainty k = 0.850677
        10        13        14        15     9        0.000000        0.553370         3    ;  uncertainty k = 0.219766
        10        13        14        15     9      180.000000        0.025423         4    ;  uncertainty k = 0.173593
        10        13        14        17     9        0.000000        3.032957         1    ;  uncertainty k = 1.297752
        10        13        14        17     9      180.000000       -3.522280         2    ;  uncertainty k = 0.995755
        10        13        14        17     9        0.000000       -0.047553         3    ;  uncertainty k = 0.113833
        10        13        14        17     9      180.000000        0.207022         4    ;  uncertainty k = 0.238014
        10        13        14        34     9        0.000000        2.564625         1    ;  uncertainty k = 1.677317
        10        13        14        34     9      180.000000       -3.094304         2    ;  uncertainty k = 1.204658
        10        13        14        34     9        0.000000        0.300681         3    ;  uncertainty k = 0.360783
        10        13        14        34     9      180.000000        0.053481         4    ;  uncertainty k = 0.065350
        11        10         9        30     9        0.000000        2.098172         1    ;  uncertainty k = 0.925698
        11        10         9        30     9      180.000000        1.160779         2    ;  uncertainty k = 0.466412
        11        10         9        30     9        0.000000        0.385232         3    ;  uncertainty k = 0.100282
        11        10         9        30     9      180.000000        0.085802         4    ;  uncertainty k = 0.166039
        11        10        13        14     9        0.000000        1.106501         1    ;  uncertainty k = 1.278379
        11        10        13        14     9      180.000000        2.374624         2    ;  uncertainty k = 0.427848
        11        10        13        14     9        0.000000        1.541507         3    ;  uncertainty k = 0.468279
        11        10        13        14     9      180.000000       -0.340636         4    ;  uncertainty k = 0.305401
        11        10        13        33     9        0.000000        7.565355         1    ;  uncertainty k = 0.715282
        11        10        13        33     9      180.000000        0.525668         2    ;  uncertainty k = 0.843999
        11        10        13        33     9        0.000000       -0.434024         3    ;  uncertainty k = 0.200354
        11        10        13        33     9      180.000000       -0.143554         4    ;  uncertainty k = 0.229175
        12        10         9        30     9        0.000000        2.098172         1    ;  uncertainty k = 0.925698
        12        10         9        30     9      180.000000        1.160779         2    ;  uncertainty k = 0.466412
        12        10         9        30     9        0.000000        0.385232         3    ;  uncertainty k = 0.100282
        12        10         9        30     9      180.000000        0.085802         4    ;  uncertainty k = 0.166039
        12        10        13        14     9        0.000000        1.106501         1    ;  uncertainty k = 1.278379
        12        10        13        14     9      180.000000        2.374624         2    ;  uncertainty k = 0.427848
        12        10        13        14     9        0.000000        1.541507         3    ;  uncertainty k = 0.468279
        12        10        13        14     9      180.000000       -0.340636         4    ;  uncertainty k = 0.305401
        12        10        13        33     9        0.000000        7.565355         1    ;  uncertainty k = 0.715282
        12        10        13        33     9      180.000000        0.525668         2    ;  uncertainty k = 0.843999
        12        10        13        33     9        0.000000       -0.434024         3    ;  uncertainty k = 0.200354
        12        10        13        33     9      180.000000       -0.143554         4    ;  uncertainty k = 0.229175
        13        10         9        30     9        0.000000        2.759922         1    ;  uncertainty k = 1.274308
        13        10         9        30     9      180.000000        1.581648         2    ;  uncertainty k = 0.365570
        13        10         9        30     9        0.000000       -0.186109         3    ;  uncertainty k = 0.358441
        13        10         9        30     9      180.000000       -0.033004         4    ;  uncertainty k = 0.233401
        13        14        15        16     9        0.000000       -2.673566         1    ;  uncertainty k = 1.999000
        13        14        15        16     9      180.000000        0.134999         2    ;  uncertainty k = 0.485529
        13        14        15        16     9        0.000000        1.179017         3    ;  uncertainty k = 0.356891
        13        14        15        16     9      180.000000       -0.068891         4    ;  uncertainty k = 0.110695
        13        14        15        35     9        0.000000       -0.076072         1    ;  uncertainty k = 0.384009
        13        14        15        35     9      180.000000       -0.088130         2    ;  uncertainty k = 0.266944
        13        14        15        35     9        0.000000        1.220285         3    ;  uncertainty k = 0.207977
        13        14        15        35     9      180.000000        0.034595         4    ;  uncertainty k = 0.165275
        13        14        15        36     9        0.000000       -0.076072         1    ;  uncertainty k = 0.384009
        13        14        15        36     9      180.000000       -0.088130         2    ;  uncertainty k = 0.266944
        13        14        15        36     9        0.000000        1.220285         3    ;  uncertainty k = 0.207977
        13        14        15        36     9      180.000000        0.034595         4    ;  uncertainty k = 0.165275
        13        14        17        18     9        0.000000        0.714822         1    ;  uncertainty k = 1.245970
        13        14        17        18     9      180.000000        5.295990         2    ;  uncertainty k = 0.735965
        13        14        17        18     9        0.000000        0.623755         3    ;  uncertainty k = 0.343413
        13        14        17        18     9      180.000000        0.226353         4    ;  uncertainty k = 0.192090
        13        14        17        19     9        0.000000       -1.053606         1    ;  uncertainty k = 1.117428
        13        14        17        19     9      180.000000        3.396734         2    ;  uncertainty k = 0.712359
        13        14        17        19     9        0.000000        1.140704         3    ;  uncertainty k = 0.287433
        13        14        17        19     9      180.000000        0.427143         4    ;  uncertainty k = 0.178761
        14        15        16        19     9        0.000000       -0.900393         1    ;  uncertainty k = 0.824844
        14        15        16        19     9      180.000000        2.790783         2    ;  uncertainty k = 1.038021
        14        15        16        19     9        0.000000        0.577165         3    ;  uncertainty k = 0.450166
        14        15        16        19     9      180.000000       -1.567199         4    ;  uncertainty k = 0.413907
        14        15        16        37     9        0.000000        0.508141         1    ;  uncertainty k = 0.387437
        14        15        16        37     9      180.000000       -1.457961         2    ;  uncertainty k = 0.267737
        14        15        16        37     9        0.000000       -0.250955         3    ;  uncertainty k = 0.202329
        14        15        16        37     9      180.000000        0.083898         4    ;  uncertainty k = 0.135319
        14        15        16        38     9        0.000000        0.508141         1    ;  uncertainty k = 0.387437
        14        15        16        38     9      180.000000       -1.457961         2    ;  uncertainty k = 0.267737
        14        15        16        38     9        0.000000       -0.250955         3    ;  uncertainty k = 0.202329
        14        15        16        38     9      180.000000        0.083898         4    ;  uncertainty k = 0.135319
        14        17        19        16     9        0.000000        2.446281         1    ;  uncertainty k = 3.352831
        14        17        19        16     9      180.000000        7.692926         2    ;  uncertainty k = 1.164162
        14        17        19        16     9        0.000000        0.576922         3    ;  uncertainty k = 0.591422
        14        17        19        16     9      180.000000        0.260320         4    ;  uncertainty k = 0.390503
        14        17        19        20     9        0.000000        6.268749         1    ;  uncertainty k = 0.714423
        14        17        19        20     9      180.000000        8.670159         2    ;  uncertainty k = 0.732612
        14        17        19        20     9        0.000000        1.742597         3    ;  uncertainty k = 0.552802
        14        17        19        20     9      180.000000       -0.110520         4    ;  uncertainty k = 0.365021
        15        14        13        33     9        0.000000        4.066420         1    ;  uncertainty k = 1.427581
        15        14        13        33     9      180.000000       -3.677248         2    ;  uncertainty k = 0.721727
        15        14        13        33     9        0.000000        0.420882         3    ;  uncertainty k = 0.255218
        15        14        13        33     9      180.000000       -0.031156         4    ;  uncertainty k = 0.097571
        15        14        17        18     9        0.000000       -2.063845         1    ;  uncertainty k = 1.005656
        15        14        17        18     9      180.000000        2.959955         2    ;  uncertainty k = 0.800500
        15        14        17        18     9        0.000000        0.798161         3    ;  uncertainty k = 0.336073
        15        14        17        18     9      180.000000        0.507020         4    ;  uncertainty k = 0.177528
        15        14        17        19     9        0.000000       -3.401880         1    ;  uncertainty k = 1.863087
        15        14        17        19     9      180.000000        5.247245         2    ;  uncertainty k = 1.537078
        15        14        17        19     9        0.000000        0.089655         3    ;  uncertainty k = 0.514961
        15        14        17        19     9      180.000000        0.658535         4    ;  uncertainty k = 0.269589
        15        16        19        17     9        0.000000       -1.271696         1    ;  uncertainty k = 1.646556
        15        16        19        17     9      180.000000        3.031980         2    ;  uncertainty k = 0.927563
        15        16        19        17     9        0.000000       -0.420830         3    ;  uncertainty k = 0.323621
        15        16        19        17     9      180.000000        0.331591         4    ;  uncertainty k = 0.299174
        15        16        19        20     9        0.000000       -0.500053         1    ;  uncertainty k = 1.100375
        15        16        19        20     9      180.000000        1.256366         2    ;  uncertainty k = 0.392406
        15        16        19        20     9        0.000000        1.672566         3    ;  uncertainty k = 0.563027
        15        16        19        20     9      180.000000       -0.085895         4    ;  uncertainty k = 0.253752
        16        15        14        17     9        0.000000       -0.494033         1    ;  uncertainty k = 0.527541
        16        15        14        17     9      180.000000        3.655257         2    ;  uncertainty k = 1.314088
        16        15        14        17     9        0.000000       -0.080141         3    ;  uncertainty k = 0.299413
        16        15        14        17     9      180.000000       -0.133206         4    ;  uncertainty k = 0.238508
        16        15        14        34     9        0.000000       -1.046147         1    ;  uncertainty k = 0.683850
        16        15        14        34     9      180.000000        0.201248         2    ;  uncertainty k = 0.505601
        16        15        14        34     9        0.000000        0.194718         3    ;  uncertainty k = 0.165680
        16        15        14        34     9      180.000000       -0.007863         4    ;  uncertainty k = 0.028810
        16        19        17        18     9        0.000000        1.706007         1    ;  uncertainty k = 1.828933
        16        19        17        18     9      180.000000       15.708326         2    ;  uncertainty k = 0.448233
        16        19        17        18     9        0.000000        1.023144         3    ;  uncertainty k = 0.259184
        16        19        17        18     9      180.000000       -0.722973         4    ;  uncertainty k = 0.243370
        16        19        20        21     9        0.000000       -0.688492         1    ;  uncertainty k = 0.671699
        16        19        20        21     9      180.000000        0.533676         2    ;  uncertainty k = 0.436027
        16        19        20        21     9        0.000000        1.107179         3    ;  uncertainty k = 0.173282
        16        19        20        21     9      180.000000        0.093772         4    ;  uncertainty k = 0.021274
        16        19        20        22     9        0.000000       -0.395089         1    ;  uncertainty k = 0.653414
        16        19        20        22     9      180.000000       -0.350453         2    ;  uncertainty k = 0.414882
        16        19        20        22     9        0.000000        1.165686         3    ;  uncertainty k = 0.166063
        16        19        20        22     9      180.000000        0.181576         4    ;  uncertainty k = 0.126992
        16        19        20        39     9        0.000000       -2.305625         1    ;  uncertainty k = 0.822179
        16        19        20        39     9      180.000000        0.234101         2    ;  uncertainty k = 0.379196
        16        19        20        39     9        0.000000        0.742947         3    ;  uncertainty k = 0.268478
        16        19        20        39     9      180.000000        0.126564         4    ;  uncertainty k = 0.061018
        17        14        13        33     9        0.000000        6.425863         1    ;  uncertainty k = 0.686841
        17        14        13        33     9      180.000000       -5.137737         2    ;  uncertainty k = 0.767069
        17        14        13        33     9        0.000000        0.278868         3    ;  uncertainty k = 0.238341
        17        14        13        33     9      180.000000       -0.026449         4    ;  uncertainty k = 0.181107
        17        14        15        35     9        0.000000       -0.431560         1    ;  uncertainty k = 0.661123
        17        14        15        35     9      180.000000       -0.496918         2    ;  uncertainty k = 0.345767
        17        14        15        35     9        0.000000        0.474416         3    ;  uncertainty k = 0.068956
        17        14        15        35     9      180.000000        0.036686         4    ;  uncertainty k = 0.080817
        17        14        15        36     9        0.000000       -0.431560         1    ;  uncertainty k = 0.661123
        17        14        15        36     9      180.000000       -0.496918         2    ;  uncertainty k = 0.345767
        17        14        15        36     9        0.000000        0.474416         3    ;  uncertainty k = 0.068956
        17        14        15        36     9      180.000000        0.036686         4    ;  uncertainty k = 0.080817
        17        19        16        37     9        0.000000       -0.126021         1    ;  uncertainty k = 0.747628
        17        19        16        37     9      180.000000        0.293972         2    ;  uncertainty k = 0.484269
        17        19        16        37     9        0.000000        0.164615         3    ;  uncertainty k = 0.183342
        17        19        16        37     9      180.000000        0.417669         4    ;  uncertainty k = 0.109232
        17        19        16        38     9        0.000000       -0.126021         1    ;  uncertainty k = 0.747628
        17        19        16        38     9      180.000000        0.293972         2    ;  uncertainty k = 0.484269
        17        19        16        38     9        0.000000        0.164615         3    ;  uncertainty k = 0.183342
        17        19        16        38     9      180.000000        0.417669         4    ;  uncertainty k = 0.109232
        17        19        20        21     9        0.000000        0.832869         1    ;  uncertainty k = 0.469341
        17        19        20        21     9      180.000000        0.390728         2    ;  uncertainty k = 0.304508
        17        19        20        21     9        0.000000        0.474399         3    ;  uncertainty k = 0.139969
        17        19        20        21     9      180.000000        0.242619         4    ;  uncertainty k = 0.127693
        17        19        20        22     9        0.000000        1.833407         1    ;  uncertainty k = 0.853465
        17        19        20        22     9      180.000000        0.209535         2    ;  uncertainty k = 0.537380
        17        19        20        22     9        0.000000       -0.592888         3    ;  uncertainty k = 0.163296
        17        19        20        22     9      180.000000        0.840729         4    ;  uncertainty k = 0.057254
        17        19        20        39     9        0.000000       -0.205144         1    ;  uncertainty k = 0.599169
        17        19        20        39     9      180.000000        0.004804         2    ;  uncertainty k = 0.153471
        17        19        20        39     9        0.000000       -0.044376         3    ;  uncertainty k = 0.129015
        17        19        20        39     9      180.000000        0.266747         4    ;  uncertainty k = 0.031692
        18        17        14        34     9        0.000000       -0.939633         1    ;  uncertainty k = 0.920694
        18        17        14        34     9      180.000000        3.313286         2    ;  uncertainty k = 0.484581
        18        17        14        34     9        0.000000        0.041973         3    ;  uncertainty k = 0.545681
        18        17        14        34     9      180.000000        0.120210         4    ;  uncertainty k = 0.273969
        18        17        19        20     9        0.000000        2.731142         1    ;  uncertainty k = 1.962138
        18        17        19        20     9      180.000000       14.178956         2    ;  uncertainty k = 0.588436
        18        17        19        20     9        0.000000        0.947456         3    ;  uncertainty k = 0.406074
        18        17        19        20     9      180.000000       -0.454871         4    ;  uncertainty k = 0.414263
        19        16        15        35     9        0.000000       -1.829510         1    ;  uncertainty k = 0.456616
        19        16        15        35     9      180.000000        0.325894         2    ;  uncertainty k = 0.435580
        19        16        15        35     9        0.000000        1.355353         3    ;  uncertainty k = 0.143785
        19        16        15        35     9      180.000000        0.074444         4    ;  uncertainty k = 0.249644
        19        16        15        36     9        0.000000       -1.829510         1    ;  uncertainty k = 0.456616
        19        16        15        36     9      180.000000        0.325894         2    ;  uncertainty k = 0.435580
        19        16        15        36     9        0.000000        1.355353         3    ;  uncertainty k = 0.143785
        19        16        15        36     9      180.000000        0.074444         4    ;  uncertainty k = 0.249644
        19        17        14        34     9        0.000000       -2.118537         1    ;  uncertainty k = 2.522995
        19        17        14        34     9      180.000000        2.390437         2    ;  uncertainty k = 0.667943
        19        17        14        34     9        0.000000        0.967683         3    ;  uncertainty k = 0.295837
        19        17        14        34     9      180.000000        0.482077         4    ;  uncertainty k = 0.134499
        19        20        21        40     9        0.000000       -0.041715         1    ;  uncertainty k = 0.086802
        19        20        21        40     9      180.000000       -2.055705         2    ;  uncertainty k = 0.151824
        19        20        21        40     9        0.000000        1.070157         3    ;  uncertainty k = 0.088658
        19        20        21        40     9      180.000000       -0.169755         4    ;  uncertainty k = 0.104081
        19        20        21        41     9        0.000000       -0.041715         1    ;  uncertainty k = 0.086802
        19        20        21        41     9      180.000000       -2.055705         2    ;  uncertainty k = 0.151824
        19        20        21        41     9        0.000000        1.070157         3    ;  uncertainty k = 0.088658
        19        20        21        41     9      180.000000       -0.169755         4    ;  uncertainty k = 0.104081
        19        20        21        42     9        0.000000       -0.041715         1    ;  uncertainty k = 0.086802
        19        20        21        42     9      180.000000       -2.055705         2    ;  uncertainty k = 0.151824
        19        20        21        42     9        0.000000        1.070157         3    ;  uncertainty k = 0.088658
        19        20        21        42     9      180.000000       -0.169755         4    ;  uncertainty k = 0.104081
        19        20        22        23     9        0.000000        0.499396         1    ;  uncertainty k = 0.966558
        19        20        22        23     9      180.000000        6.109033         2    ;  uncertainty k = 0.130985
        19        20        22        23     9        0.000000        1.318031         3    ;  uncertainty k = 0.293046
        19        20        22        23     9      180.000000        0.376941         4    ;  uncertainty k = 0.128880
        19        20        22        24     9        0.000000        1.298771         1    ;  uncertainty k = 0.762727
        19        20        22        24     9      180.000000        3.730132         2    ;  uncertainty k = 0.411538
        19        20        22        24     9        0.000000        0.531949         3    ;  uncertainty k = 0.139911
        19        20        22        24     9      180.000000        0.104606         4    ;  uncertainty k = 0.060875
        20        19        16        37     9        0.000000       -0.171023         1    ;  uncertainty k = 0.466144
        20        19        16        37     9      180.000000       -0.753502         2    ;  uncertainty k = 0.394766
        20        19        16        37     9        0.000000        0.990987         3    ;  uncertainty k = 0.142757
        20        19        16        37     9      180.000000        0.391063         4    ;  uncertainty k = 0.162132
        20        19        16        38     9        0.000000       -0.171023         1    ;  uncertainty k = 0.466144
        20        19        16        38     9      180.000000       -0.753502         2    ;  uncertainty k = 0.394766
        20        19        16        38     9        0.000000        0.990987         3    ;  uncertainty k = 0.142757
        20        19        16        38     9      180.000000        0.391063         4    ;  uncertainty k = 0.162132
        20        22        24        25     9        0.000000        8.299487         1    ;  uncertainty k = 0.269860
        20        22        24        25     9      180.000000        6.005714         2    ;  uncertainty k = 0.421476
        20        22        24        25     9        0.000000        1.159671         3    ;  uncertainty k = 0.227098
        20        22        24        25     9      180.000000        0.103306         4    ;  uncertainty k = 0.158474
        20        22        24        29     9        0.000000        8.299487         1    ;  uncertainty k = 0.269860
        20        22        24        29     9      180.000000        6.005714         2    ;  uncertainty k = 0.421476
        20        22        24        29     9        0.000000        1.159671         3    ;  uncertainty k = 0.227098
        20        22        24        29     9      180.000000        0.103306         4    ;  uncertainty k = 0.158474
        21        20        22        23     9        0.000000       -0.918609         1    ;  uncertainty k = 0.498844
        21        20        22        23     9      180.000000        5.582712         2    ;  uncertainty k = 0.540220
        21        20        22        23     9        0.000000        1.479882         3    ;  uncertainty k = 0.175097
        21        20        22        23     9      180.000000        0.507220         4    ;  uncertainty k = 0.051889
        21        20        22        24     9        0.000000       -2.003223         1    ;  uncertainty k = 0.395192
        21        20        22        24     9      180.000000        3.012685         2    ;  uncertainty k = 0.516173
        21        20        22        24     9        0.000000        0.475109         3    ;  uncertainty k = 0.119059
        21        20        22        24     9      180.000000        0.075564         4    ;  uncertainty k = 0.082587
        22        20        21        40     9        0.000000        1.150537         1    ;  uncertainty k = 0.677576
        22        20        21        40     9      180.000000       -0.924040         2    ;  uncertainty k = 0.241314
        22        20        21        40     9        0.000000        0.735120         3    ;  uncertainty k = 0.069732
        22        20        21        40     9      180.000000       -0.019774         4    ;  uncertainty k = 0.058125
        22        20        21        41     9        0.000000        1.150537         1    ;  uncertainty k = 0.677576
        22        20        21        41     9      180.000000       -0.924040         2    ;  uncertainty k = 0.241314
        22        20        21        41     9        0.000000        0.735120         3    ;  uncertainty k = 0.069732
        22        20        21        41     9      180.000000       -0.019774         4    ;  uncertainty k = 0.058125
        22        20        21        42     9        0.000000        1.150537         1    ;  uncertainty k = 0.677576
        22        20        21        42     9      180.000000       -0.924040         2    ;  uncertainty k = 0.241314
        22        20        21        42     9        0.000000        0.735120         3    ;  uncertainty k = 0.069732
        22        20        21        42     9      180.000000       -0.019774         4    ;  uncertainty k = 0.058125
        22        24        25        26     9        0.000000        0.224961         1    ;  uncertainty k = 0.687788
        22        24        25        26     9      180.000000        0.114129         2    ;  uncertainty k = 0.146198
        22        24        25        26     9        0.000000       -0.233453         3    ;  uncertainty k = 0.126504
        22        24        25        26     9      180.000000        0.299264         4    ;  uncertainty k = 0.131991
        22        24        25        43     9        0.000000        1.489642         1    ;  uncertainty k = 0.595508
        22        24        25        43     9      180.000000       -0.191425         2    ;  uncertainty k = 0.136241
        22        24        25        43     9        0.000000        0.111797         3    ;  uncertainty k = 0.096189
        22        24        25        43     9      180.000000        0.140722         4    ;  uncertainty k = 0.049493
        22        24        25        44     9        0.000000        1.489642         1    ;  uncertainty k = 0.595508
        22        24        25        44     9      180.000000       -0.191425         2    ;  uncertainty k = 0.136241
        22        24        25        44     9        0.000000        0.111797         3    ;  uncertainty k = 0.096189
        22        24        25        44     9      180.000000        0.140722         4    ;  uncertainty k = 0.049493
        22        24        29        28     9        0.000000        0.224961         1    ;  uncertainty k = 0.687788
        22        24        29        28     9      180.000000        0.114129         2    ;  uncertainty k = 0.146198
        22        24        29        28     9        0.000000       -0.233453         3    ;  uncertainty k = 0.126504
        22        24        29        28     9      180.000000        0.299264         4    ;  uncertainty k = 0.131991
        22        24        29        49     9        0.000000        1.489642         1    ;  uncertainty k = 0.595508
        22        24        29        49     9      180.000000       -0.191425         2    ;  uncertainty k = 0.136241
        22        24        29        49     9        0.000000        0.111797         3    ;  uncertainty k = 0.096189
        22        24        29        49     9      180.000000        0.140722         4    ;  uncertainty k = 0.049493
        22        24        29        50     9        0.000000        1.489642         1    ;  uncertainty k = 0.595508
        22        24        29        50     9      180.000000       -0.191425         2    ;  uncertainty k = 0.136241
        22        24        29        50     9        0.000000        0.111797         3    ;  uncertainty k = 0.096189
        22        24        29        50     9      180.000000        0.140722         4    ;  uncertainty k = 0.049493
        23        22        20        39     9        0.000000       -1.193527         1    ;  uncertainty k = 0.618000
        23        22        20        39     9      180.000000        2.843837         2    ;  uncertainty k = 0.359543
        23        22        20        39     9        0.000000        0.832219         3    ;  uncertainty k = 0.209632
        23        22        20        39     9      180.000000        0.162966         4    ;  uncertainty k = 0.077189
        23        22        24        25     9        0.000000        6.603517         1    ;  uncertainty k = 0.334857
        23        22        24        25     9      180.000000       20.577585         2    ;  uncertainty k = 0.086866
        23        22        24        25     9        0.000000        0.266672         3    ;  uncertainty k = 0.142095
        23        22        24        25     9      180.000000       -1.495398         4    ;  uncertainty k = 0.102425
        23        22        24        29     9        0.000000        6.603517         1    ;  uncertainty k = 0.334857
        23        22        24        29     9      180.000000       20.577585         2    ;  uncertainty k = 0.086866
        23        22        24        29     9        0.000000        0.266672         3    ;  uncertainty k = 0.142095
        23        22        24        29     9      180.000000       -1.495398         4    ;  uncertainty k = 0.102425
        24        22        20        39     9        0.000000       -0.546567         1    ;  uncertainty k = 0.607387
        24        22        20        39     9      180.000000        2.439825         2    ;  uncertainty k = 0.362200
        24        22        20        39     9        0.000000        0.108278         3    ;  uncertainty k = 0.047116
        24        22        20        39     9      180.000000        0.170383         4    ;  uncertainty k = 0.050292
        24        25        26        27     9        0.000000        5.353992         1    ;  uncertainty k = 0.675529
        24        25        26        27     9      180.000000       -8.857338         2    ;  uncertainty k = 0.692100
        24        25        26        27     9        0.000000        3.059860         3    ;  uncertainty k = 0.495205
        24        25        26        27     9      180.000000       -0.099186         4    ;  uncertainty k = 0.227903
        24        25        26        45     9        0.000000        4.810866         1    ;  uncertainty k = 0.569234
        24        25        26        45     9      180.000000       -4.025620         2    ;  uncertainty k = 0.699778
        24        25        26        45     9        0.000000        0.136668         3    ;  uncertainty k = 0.307514
        24        25        26        45     9      180.000000        0.448548         4    ;  uncertainty k = 0.208534
        24        25        26        46     9        0.000000        4.810866         1    ;  uncertainty k = 0.569234
        24        25        26        46     9      180.000000       -4.025620         2    ;  uncertainty k = 0.699778
        24        25        26        46     9        0.000000        0.136668         3    ;  uncertainty k = 0.307514
        24        25        26        46     9      180.000000        0.448548         4    ;  uncertainty k = 0.208534
        24        29        28        27     9        0.000000        5.353992         1    ;  uncertainty k = 0.675529
        24        29        28        27     9      180.000000       -8.857338         2    ;  uncertainty k = 0.692100
        24        29        28        27     9        0.000000        3.059860         3    ;  uncertainty k = 0.495205
        24        29        28        27     9      180.000000       -0.099186         4    ;  uncertainty k = 0.227903
        24        29        28        47     9        0.000000        4.810866         1    ;  uncertainty k = 0.569234
        24        29        28        47     9      180.000000       -4.025620         2    ;  uncertainty k = 0.699778
        24        29        28        47     9        0.000000        0.136668         3    ;  uncertainty k = 0.307514
        24        29        28        47     9      180.000000        0.448548         4    ;  uncertainty k = 0.208534
        24        29        28        48     9        0.000000        4.810866         1    ;  uncertainty k = 0.569234
        24        29        28        48     9      180.000000       -4.025620         2    ;  uncertainty k = 0.699778
        24        29        28        48     9        0.000000        0.136668         3    ;  uncertainty k = 0.307514
        24        29        28        48     9      180.000000        0.448548         4    ;  uncertainty k = 0.208534
        25        24        29        28     9        0.000000       -5.632507         1    ;  uncertainty k = 1.372901
        25        24        29        28     9      180.000000        0.820042         2    ;  uncertainty k = 0.457968
        25        24        29        28     9        0.000000        1.551394         3    ;  uncertainty k = 0.353572
        25        24        29        28     9      180.000000       -0.465199         4    ;  uncertainty k = 0.242804
        25        24        29        49     9        0.000000       -5.630831         1    ;  uncertainty k = 1.116973
        25        24        29        49     9      180.000000        1.096405         2    ;  uncertainty k = 0.268716
        25        24        29        49     9        0.000000        1.209015         3    ;  uncertainty k = 0.133163
        25        24        29        49     9      180.000000       -0.230019         4    ;  uncertainty k = 0.154441
        25        24        29        50     9        0.000000       -5.630831         1    ;  uncertainty k = 1.116973
        25        24        29        50     9      180.000000        1.096405         2    ;  uncertainty k = 0.268716
        25        24        29        50     9        0.000000        1.209015         3    ;  uncertainty k = 0.133163
        25        24        29        50     9      180.000000       -0.230019         4    ;  uncertainty k = 0.154441
        25        26        27        28     9        0.000000       -4.283460         1    ;  uncertainty k = 1.346568
        25        26        27        28     9      180.000000        0.019562         2    ;  uncertainty k = 1.048764
        25        26        27        28     9        0.000000        0.786756         3    ;  uncertainty k = 0.331644
        25        26        27        28     9      180.000000       -0.317148         4    ;  uncertainty k = 0.268089
        26        25        24        29     9        0.000000       -5.632507         1    ;  uncertainty k = 1.372901
        26        25        24        29     9      180.000000        0.820042         2    ;  uncertainty k = 0.457968
        26        25        24        29     9        0.000000        1.551394         3    ;  uncertainty k = 0.353572
        26        25        24        29     9      180.000000       -0.465199         4    ;  uncertainty k = 0.242804
        26        27        28        29     9        0.000000       -4.283460         1    ;  uncertainty k = 1.346568
        26        27        28        29     9      180.000000        0.019562         2    ;  uncertainty k = 1.048764
        26        27        28        29     9        0.000000        0.786756         3    ;  uncertainty k = 0.331644
        26        27        28        29     9      180.000000       -0.317148         4    ;  uncertainty k = 0.268089
        26        27        28        47     9        0.000000       -5.824736         1    ;  uncertainty k = 1.874994
        26        27        28        47     9      180.000000        0.612519         2    ;  uncertainty k = 0.237167
        26        27        28        47     9        0.000000        0.759446         3    ;  uncertainty k = 0.174537
        26        27        28        47     9      180.000000       -0.645283         4    ;  uncertainty k = 0.153493
        26        27        28        48     9        0.000000       -5.824736         1    ;  uncertainty k = 1.874994
        26        27        28        48     9      180.000000        0.612519         2    ;  uncertainty k = 0.237167
        26        27        28        48     9        0.000000        0.759446         3    ;  uncertainty k = 0.174537
        26        27        28        48     9      180.000000       -0.645283         4    ;  uncertainty k = 0.153493
        27        26        25        43     9        0.000000        0.912216         1    ;  uncertainty k = 0.334790
        27        26        25        43     9      180.000000       -0.812586         2    ;  uncertainty k = 0.665020
        27        26        25        43     9        0.000000        1.061498         3    ;  uncertainty k = 0.198448
        27        26        25        43     9      180.000000        0.211215         4    ;  uncertainty k = 0.255400
        27        26        25        44     9        0.000000        0.912216         1    ;  uncertainty k = 0.334790
        27        26        25        44     9      180.000000       -0.812586         2    ;  uncertainty k = 0.665020
        27        26        25        44     9        0.000000        1.061498         3    ;  uncertainty k = 0.198448
        27        26        25        44     9      180.000000        0.211215         4    ;  uncertainty k = 0.255400
        27        28        29        49     9        0.000000        0.912216         1    ;  uncertainty k = 0.334790
        27        28        29        49     9      180.000000       -0.812586         2    ;  uncertainty k = 0.665020
        27        28        29        49     9        0.000000        1.061498         3    ;  uncertainty k = 0.198448
        27        28        29        49     9      180.000000        0.211215         4    ;  uncertainty k = 0.255400
        27        28        29        50     9        0.000000        0.912216         1    ;  uncertainty k = 0.334790
        27        28        29        50     9      180.000000       -0.812586         2    ;  uncertainty k = 0.665020
        27        28        29        50     9        0.000000        1.061498         3    ;  uncertainty k = 0.198448
        27        28        29        50     9      180.000000        0.211215         4    ;  uncertainty k = 0.255400
        28        27        26        45     9        0.000000       -5.824736         1    ;  uncertainty k = 1.874994
        28        27        26        45     9      180.000000        0.612519         2    ;  uncertainty k = 0.237167
        28        27        26        45     9        0.000000        0.759446         3    ;  uncertainty k = 0.174537
        28        27        26        45     9      180.000000       -0.645283         4    ;  uncertainty k = 0.153493
        28        27        26        46     9        0.000000       -5.824736         1    ;  uncertainty k = 1.874994
        28        27        26        46     9      180.000000        0.612519         2    ;  uncertainty k = 0.237167
        28        27        26        46     9        0.000000        0.759446         3    ;  uncertainty k = 0.174537
        28        27        26        46     9      180.000000       -0.645283         4    ;  uncertainty k = 0.153493
        29        24        25        43     9        0.000000       -5.630831         1    ;  uncertainty k = 1.116973
        29        24        25        43     9      180.000000        1.096405         2    ;  uncertainty k = 0.268716
        29        24        25        43     9        0.000000        1.209015         3    ;  uncertainty k = 0.133163
        29        24        25        43     9      180.000000       -0.230019         4    ;  uncertainty k = 0.154441
        29        24        25        44     9        0.000000       -5.630831         1    ;  uncertainty k = 1.116973
        29        24        25        44     9      180.000000        1.096405         2    ;  uncertainty k = 0.268716
        29        24        25        44     9        0.000000        1.209015         3    ;  uncertainty k = 0.133163
        29        24        25        44     9      180.000000       -0.230019         4    ;  uncertainty k = 0.154441
        30         4         3        31     9        0.000000        0.155832         1    ;  uncertainty k = 0.535735
        30         4         3        31     9      180.000000        6.226514         2    ;  uncertainty k = 0.720229
        30         4         3        31     9        0.000000        1.098147         3    ;  uncertainty k = 0.220433
        30         4         3        31     9      180.000000        0.887984         4    ;  uncertainty k = 0.271114
        33        13        14        34     9        0.000000        4.345244         1    ;  uncertainty k = 1.216546
        33        13        14        34     9      180.000000       -2.461431         2    ;  uncertainty k = 0.501511
        33        13        14        34     9        0.000000        0.266842         3    ;  uncertainty k = 0.221333
        33        13        14        34     9      180.000000        0.136959         4    ;  uncertainty k = 0.122236
        34        14        15        35     9        0.000000        0.650807         1    ;  uncertainty k = 0.242049
        34        14        15        35     9      180.000000       -0.603199         2    ;  uncertainty k = 0.142605
        34        14        15        35     9        0.000000        0.567622         3    ;  uncertainty k = 0.099350
        34        14        15        35     9      180.000000        0.058597         4    ;  uncertainty k = 0.065547
        34        14        15        36     9        0.000000        0.650807         1    ;  uncertainty k = 0.242049
        34        14        15        36     9      180.000000       -0.603199         2    ;  uncertainty k = 0.142605
        34        14        15        36     9        0.000000        0.567622         3    ;  uncertainty k = 0.099350
        34        14        15        36     9      180.000000        0.058597         4    ;  uncertainty k = 0.065547
        35        15        16        37     9        0.000000        0.823414         1    ;  uncertainty k = 0.215557
        35        15        16        37     9      180.000000       -0.170976         2    ;  uncertainty k = 0.266678
        35        15        16        37     9        0.000000        0.469348         3    ;  uncertainty k = 0.038030
        35        15        16        37     9      180.000000        0.043270         4    ;  uncertainty k = 0.022809
        35        15        16        38     9        0.000000        0.823414         1    ;  uncertainty k = 0.215557
        35        15        16        38     9      180.000000       -0.170976         2    ;  uncertainty k = 0.266678
        35        15        16        38     9        0.000000        0.469348         3    ;  uncertainty k = 0.038030
        35        15        16        38     9      180.000000        0.043270         4    ;  uncertainty k = 0.022809
        36        15        16        37     9        0.000000        0.823414         1    ;  uncertainty k = 0.215557
        36        15        16        37     9      180.000000       -0.170976         2    ;  uncertainty k = 0.266678
        36        15        16        37     9        0.000000        0.469348         3    ;  uncertainty k = 0.038030
        36        15        16        37     9      180.000000        0.043270         4    ;  uncertainty k = 0.022809
        36        15        16        38     9        0.000000        0.823414         1    ;  uncertainty k = 0.215557
        36        15        16        38     9      180.000000       -0.170976         2    ;  uncertainty k = 0.266678
        36        15        16        38     9        0.000000        0.469348         3    ;  uncertainty k = 0.038030
        36        15        16        38     9      180.000000        0.043270         4    ;  uncertainty k = 0.022809
        39        20        21        40     9        0.000000        0.143668         1    ;  uncertainty k = 0.287689
        39        20        21        40     9      180.000000       -0.308389         2    ;  uncertainty k = 0.120561
        39        20        21        40     9        0.000000        0.423570         3    ;  uncertainty k = 0.126378
        39        20        21        40     9      180.000000       -0.021121         4    ;  uncertainty k = 0.092887
        39        20        21        41     9        0.000000        0.143668         1    ;  uncertainty k = 0.287689
        39        20        21        41     9      180.000000       -0.308389         2    ;  uncertainty k = 0.120561
        39        20        21        41     9        0.000000        0.423570         3    ;  uncertainty k = 0.126378
        39        20        21        41     9      180.000000       -0.021121         4    ;  uncertainty k = 0.092887
        39        20        21        42     9        0.000000        0.143668         1    ;  uncertainty k = 0.287689
        39        20        21        42     9      180.000000       -0.308389         2    ;  uncertainty k = 0.120561
        39        20        21        42     9        0.000000        0.423570         3    ;  uncertainty k = 0.126378
        39        20        21        42     9      180.000000       -0.021121         4    ;  uncertainty k = 0.092887
        43        25        26        45     9        0.000000       -2.278074         1    ;  uncertainty k = 1.043178
        43        25        26        45     9      180.000000        1.532748         2    ;  uncertainty k = 0.718723
        43        25        26        45     9        0.000000       -0.092826         3    ;  uncertainty k = 0.085920
        43        25        26        45     9      180.000000       -0.789690         4    ;  uncertainty k = 0.177408
        43        25        26        46     9        0.000000       -2.278074         1    ;  uncertainty k = 1.043178
        43        25        26        46     9      180.000000        1.532748         2    ;  uncertainty k = 0.718723
        43        25        26        46     9        0.000000       -0.092826         3    ;  uncertainty k = 0.085920
        43        25        26        46     9      180.000000       -0.789690         4    ;  uncertainty k = 0.177408
        44        25        26        45     9        0.000000       -2.278074         1    ;  uncertainty k = 1.043178
        44        25        26        45     9      180.000000        1.532748         2    ;  uncertainty k = 0.718723
        44        25        26        45     9        0.000000       -0.092826         3    ;  uncertainty k = 0.085920
        44        25        26        45     9      180.000000       -0.789690         4    ;  uncertainty k = 0.177408
        44        25        26        46     9        0.000000       -2.278074         1    ;  uncertainty k = 1.043178
        44        25        26        46     9      180.000000        1.532748         2    ;  uncertainty k = 0.718723
        44        25        26        46     9        0.000000       -0.092826         3    ;  uncertainty k = 0.085920
        44        25        26        46     9      180.000000       -0.789690         4    ;  uncertainty k = 0.177408
        47        28        29        49     9        0.000000       -2.278074         1    ;  uncertainty k = 1.043178
        47        28        29        49     9      180.000000        1.532748         2    ;  uncertainty k = 0.718723
        47        28        29        49     9        0.000000       -0.092826         3    ;  uncertainty k = 0.085920
        47        28        29        49     9      180.000000       -0.789690         4    ;  uncertainty k = 0.177408
        47        28        29        50     9        0.000000       -2.278074         1    ;  uncertainty k = 1.043178
        47        28        29        50     9      180.000000        1.532748         2    ;  uncertainty k = 0.718723
        47        28        29        50     9        0.000000       -0.092826         3    ;  uncertainty k = 0.085920
        47        28        29        50     9      180.000000       -0.789690         4    ;  uncertainty k = 0.177408
        48        28        29        49     9        0.000000       -2.278074         1    ;  uncertainty k = 1.043178
        48        28        29        49     9      180.000000        1.532748         2    ;  uncertainty k = 0.718723
        48        28        29        49     9        0.000000       -0.092826         3    ;  uncertainty k = 0.085920
        48        28        29        49     9      180.000000       -0.789690         4    ;  uncertainty k = 0.177408
        48        28        29        50     9        0.000000       -2.278074         1    ;  uncertainty k = 1.043178
        48        28        29        50     9      180.000000        1.532748         2    ;  uncertainty k = 0.718723
        48        28        29        50     9        0.000000       -0.092826         3    ;  uncertainty k = 0.085920
        48        28        29        50     9      180.000000       -0.789690         4    ;  uncertainty k = 0.177408

[ dihedrals ] ; impropers
;       ai        aj        ak        al funct           phase               k        pn
         2         1         3         8     4      180.000000       11.796434         2    ;  uncertainty k = 0.066995
         2         3         8         1     4      180.000000       11.796434         2    ;  uncertainty k = 0.066995
         2         8         1         3     4      180.000000       11.796434         2    ;  uncertainty k = 0.066995
         3         2         4        31     4      180.000000        6.153028         2    ;  uncertainty k = 0.201456
         3         4        31         2     4      180.000000        6.153028         2    ;  uncertainty k = 0.201456
         3        31         2         4     4      180.000000        6.153028         2    ;  uncertainty k = 0.201456
         4         3         5        30     4      180.000000        1.377434         2    ;  uncertainty k = 0.887676
         4         5        30         3     4      180.000000        1.377434         2    ;  uncertainty k = 0.887676
         4        30         3         5     4      180.000000        1.377434         2    ;  uncertainty k = 0.887676
         5         4         6         7     4      180.000000        7.884842         2    ;  uncertainty k = 0.241888
         5         6         7         4     4      180.000000        7.884842         2    ;  uncertainty k = 0.241888
         5         7         4         6     4      180.000000        7.884842         2    ;  uncertainty k = 0.241888
         8         2         7        32     4      180.000000       11.705442         2    ;  uncertainty k = 0.071251
         8         7        32         2     4      180.000000       11.705442         2    ;  uncertainty k = 0.071251
         8        32         2         7     4      180.000000       11.705442         2    ;  uncertainty k = 0.071251
         9         6        10        30     4      180.000000        1.296974         2    ;  uncertainty k = 0.944241
         9        10        30         6     4      180.000000        1.296974         2    ;  uncertainty k = 0.944241
         9        30         6        10     4      180.000000        1.296974         2    ;  uncertainty k = 0.944241
        17        14        18        19     4      180.000000       48.908342         2    ;  uncertainty k = 0.034977
        17        18        19        14     4      180.000000       48.908342         2    ;  uncertainty k = 0.034977
        17        19        14        18     4      180.000000       48.908342         2    ;  uncertainty k = 0.034977
        22        20        23        24     4      180.000000       50.108480         2    ;  uncertainty k = 0.051863
        22        23        24        20     4      180.000000       50.108480         2    ;  uncertainty k = 0.051863
        22        24        20        23     4      180.000000       50.108480         2    ;  uncertainty k = 0.051863
        30         4         9        51     4      180.000000        3.108295         2    ;  uncertainty k = 0.380628
        30         9        51         4     4      180.000000        3.108295         2    ;  uncertainty k = 0.380628
        30        51         4         9     4      180.000000        3.108295         2    ;  uncertainty k = 0.380628

[ pairs ]
;       ai        aj funct
         1         4     1
         1         7     1
         1        31     1
         1        32     1
         2         5     1
         2        30     1
         3         6     1
         3         7     1
         3         9     1
         3        32     1
         3        51     1
         4         8     1
         4        10     1
         5        10     1
         5        31     1
         5        32     1
         5        51     1
         6         8     1
         6        11     1
         6        12     1
         6        13     1
         6        51     1
         7         9     1
         7        30     1
         8        31     1
         9        14     1
         9        33     1
        10        15     1
        10        17     1
        10        34     1
        10        51     1
        11        14     1
        11        30     1
        11        33     1
        12        14     1
        12        30     1
        12        33     1
        13        16     1
        13        18     1
        13        19     1
        13        30     1
        13        35     1
        13        36     1
        14        20     1
        14        37     1
        14        38     1
        15        18     1
        15        20     1
        15        33     1
        16        18     1
        16        21     1
        16        22     1
        16        34     1
        16        39     1
        17        21     1
        17        22     1
        17        33     1
        17        35     1
        17        36     1
        17        37     1
        17        38     1
        17        39     1
        18        20     1
        18        34     1
        19        23     1
        19        24     1
        19        34     1
        19        35     1
        19        36     1
        19        40     1
        19        41     1
        19        42     1
        20        25     1
        20        29     1
        20        37     1
        20        38     1
        21        23     1
        21        24     1
        22        26     1
        22        28     1
        22        40     1
        22        41     1
        22        42     1
        22        43     1
        22        44     1
        22        49     1
        22        50     1
        23        25     1
        23        29     1
        23        39     1
        24        27     1
        24        39     1
        24        45     1
        24        46     1
        24        47     1
        24        48     1
        25        28     1
        25        49     1
        25        50     1
        26        29     1
        26        47     1
        26        48     1
        27        43     1
        27        44     1
        27        49     1
        27        50     1
        28        45     1
        28        46     1
        29        43     1
        29        44     1
        30        31     1
        33        34     1
        34        35     1
        34        36     1
        35        37     1
        35        38     1
        36        37     1
        36        38     1
        39        40     1
        39        41     1
        39        42     1
        43        45     1
        43        46     1
        44        45     1
        44        46     1
        47        49     1
        47        50     1
        48        49     1
        48        50     1
