; ITP file created by ByteFF-joint-25, 2025-07-14 11:37:23.575268

[ atomtypes ]
;name           bonded.type        at.num        mass        charge   ptype           sigma         epsilon
 cl0bf                                 17      0.0000       0.00000       A     3.46642e-01     1.10449e+00    ;  uncertainty sigma = 0.000028, epsilon = 0.001582
 c1bf                                   6      0.0000       0.00000       A     3.31528e-01     4.13039e-01    ;  uncertainty sigma = 0.000010, epsilon = 0.000669
 n2bf                                   7      0.0000       0.00000       A     3.38447e-01     3.94088e-01    ;  uncertainty sigma = 0.000015, epsilon = 0.000803
 c3bf                                   6      0.0000       0.00000       A     3.31547e-01     4.12825e-01    ;  uncertainty sigma = 0.000010, epsilon = 0.001037
 c4bf                                   6      0.0000       0.00000       A     3.31513e-01     4.12846e-01    ;  uncertainty sigma = 0.000013, epsilon = 0.000607
 s5bf                                  16      0.0000       0.00000       A     3.53290e-01     1.18150e+00    ;  uncertainty sigma = 0.000020, epsilon = 0.005432
 c6bf                                   6      0.0000       0.00000       A     3.31518e-01     4.13373e-01    ;  uncertainty sigma = 0.000004, epsilon = 0.000524
 c7bf                                   6      0.0000       0.00000       A     3.31524e-01     4.13430e-01    ;  uncertainty sigma = 0.000008, epsilon = 0.000698
 c8bf                                   6      0.0000       0.00000       A     3.31472e-01     4.12106e-01    ;  uncertainty sigma = 0.000026, epsilon = 0.001206
 s9bf                                  16      0.0000       0.00000       A     4.05879e-01     2.57739e-01    ;  uncertainty sigma = 0.000024, epsilon = 0.002700
 o10bf                                  8      0.0000       0.00000       A     3.04844e-01     6.12080e-01    ;  uncertainty sigma = 0.000030, epsilon = 0.001157
 o11bf                                  8      0.0000       0.00000       A     3.04844e-01     6.12080e-01    ;  uncertainty sigma = 0.000030, epsilon = 0.001157
 n12bf                                  7      0.0000       0.00000       A     3.50737e-01     2.17907e-01    ;  uncertainty sigma = 0.000090, epsilon = 0.003822
 c13bf                                  6      0.0000       0.00000       A     3.39784e-01     4.51033e-01    ;  uncertainty sigma = 0.000012, epsilon = 0.001003
 c14bf                                  6      0.0000       0.00000       A     3.39783e-01     4.50616e-01    ;  uncertainty sigma = 0.000012, epsilon = 0.000870
 c15bf                                  6      0.0000       0.00000       A     3.39778e-01     4.51121e-01    ;  uncertainty sigma = 0.000011, epsilon = 0.000952
 c16bf                                  6      0.0000       0.00000       A     3.31503e-01     4.14103e-01    ;  uncertainty sigma = 0.000019, epsilon = 0.001327
 o17bf                                  8      0.0000       0.00000       A     3.04856e-01     6.12000e-01    ;  uncertainty sigma = 0.000014, epsilon = 0.001679
 n18bf                                  7      0.0000       0.00000       A     3.18104e-01     6.84089e-01    ;  uncertainty sigma = 0.000026, epsilon = 0.002216
 c19bf                                  6      0.0000       0.00000       A     3.39765e-01     4.50085e-01    ;  uncertainty sigma = 0.000013, epsilon = 0.000893
 c20bf                                  6      0.0000       0.00000       A     3.39757e-01     4.50850e-01    ;  uncertainty sigma = 0.000009, epsilon = 0.000447
 c21bf                                  6      0.0000       0.00000       A     3.31517e-01     4.12537e-01    ;  uncertainty sigma = 0.000018, epsilon = 0.001350
 o22bf                                  8      0.0000       0.00000       A     3.04822e-01     6.12836e-01    ;  uncertainty sigma = 0.000014, epsilon = 0.000674
 n23bf                                  7      0.0000       0.00000       A     3.18074e-01     6.83799e-01    ;  uncertainty sigma = 0.000019, epsilon = 0.001496
 c24bf                                  6      0.0000       0.00000       A     3.39785e-01     4.50976e-01    ;  uncertainty sigma = 0.000006, epsilon = 0.000726
 c25bf                                  6      0.0000       0.00000       A     3.39786e-01     4.50778e-01    ;  uncertainty sigma = 0.000006, epsilon = 0.000813
 o26bf                                  8      0.0000       0.00000       A     3.15603e-01     3.03473e-01    ;  uncertainty sigma = 0.000014, epsilon = 0.001064
 c27bf                                  6      0.0000       0.00000       A     3.39786e-01     4.50778e-01    ;  uncertainty sigma = 0.000006, epsilon = 0.000813
 c28bf                                  6      0.0000       0.00000       A     3.39785e-01     4.50976e-01    ;  uncertainty sigma = 0.000006, epsilon = 0.000726
 c29bf                                  6      0.0000       0.00000       A     3.31585e-01     4.12019e-01    ;  uncertainty sigma = 0.000022, epsilon = 0.000917
 h30bf                                  1      0.0000       0.00000       A     2.62594e-01     6.70140e-02    ;  uncertainty sigma = 0.000021, epsilon = 0.000844
 h31bf                                  1      0.0000       0.00000       A     2.62553e-01     6.69830e-02    ;  uncertainty sigma = 0.000022, epsilon = 0.000737
 h32bf                                  1      0.0000       0.00000       A     1.10633e-01     4.09567e-02    ;  uncertainty sigma = 0.000099, epsilon = 0.002184
 h33bf                                  1      0.0000       0.00000       A     2.42030e-01     8.68574e-02    ;  uncertainty sigma = 0.000019, epsilon = 0.001232
 h34bf                                  1      0.0000       0.00000       A     2.60025e-01     8.63275e-02    ;  uncertainty sigma = 0.000013, epsilon = 0.000679
 h35bf                                  1      0.0000       0.00000       A     2.60025e-01     8.63275e-02    ;  uncertainty sigma = 0.000013, epsilon = 0.000679
 h36bf                                  1      0.0000       0.00000       A     2.42200e-01     8.64335e-02    ;  uncertainty sigma = 0.000011, epsilon = 0.000932
 h37bf                                  1      0.0000       0.00000       A     2.42200e-01     8.64335e-02    ;  uncertainty sigma = 0.000011, epsilon = 0.000932
 h38bf                                  1      0.0000       0.00000       A     2.42203e-01     8.69613e-02    ;  uncertainty sigma = 0.000061, epsilon = 0.001014
 h39bf                                  1      0.0000       0.00000       A     2.60028e-01     8.67689e-02    ;  uncertainty sigma = 0.000014, epsilon = 0.000406
 h40bf                                  1      0.0000       0.00000       A     2.60028e-01     8.67689e-02    ;  uncertainty sigma = 0.000014, epsilon = 0.000406
 h41bf                                  1      0.0000       0.00000       A     2.60028e-01     8.67689e-02    ;  uncertainty sigma = 0.000014, epsilon = 0.000406
 h42bf                                  1      0.0000       0.00000       A     2.42216e-01     8.67300e-02    ;  uncertainty sigma = 0.000014, epsilon = 0.000623
 h43bf                                  1      0.0000       0.00000       A     2.42216e-01     8.67300e-02    ;  uncertainty sigma = 0.000014, epsilon = 0.000623
 h44bf                                  1      0.0000       0.00000       A     2.42211e-01     8.67300e-02    ;  uncertainty sigma = 0.000015, epsilon = 0.000752
 h45bf                                  1      0.0000       0.00000       A     2.42211e-01     8.67300e-02    ;  uncertainty sigma = 0.000015, epsilon = 0.000752
 h46bf                                  1      0.0000       0.00000       A     2.42211e-01     8.67300e-02    ;  uncertainty sigma = 0.000015, epsilon = 0.000752
 h47bf                                  1      0.0000       0.00000       A     2.42211e-01     8.67300e-02    ;  uncertainty sigma = 0.000015, epsilon = 0.000752
 h48bf                                  1      0.0000       0.00000       A     2.42216e-01     8.67299e-02    ;  uncertainty sigma = 0.000014, epsilon = 0.000623
 h49bf                                  1      0.0000       0.00000       A     2.42216e-01     8.67299e-02    ;  uncertainty sigma = 0.000014, epsilon = 0.000623
 h50bf                                  1      0.0000       0.00000       A     2.62553e-01     6.69554e-02    ;  uncertainty sigma = 0.000036, epsilon = 0.000785

[ moleculetype ]
;name             nrexcl
 MOL                   3

[ atoms ]
;       nr            type      resi   res      atom      cgnr      charge          mass ; qtot
         1           cl0bf         1   UNL       cl0         1    -0.16814       35.4530 ; qtot   -0.168
         2            c1bf         1   UNL        c1         2     0.51455       12.0110 ; qtot    0.346
         3            n2bf         1   UNL        n2         3    -0.61012       14.0070 ; qtot   -0.264
         4            c3bf         1   UNL        c3         4     0.41770       12.0110 ; qtot    0.154
         5            c4bf         1   UNL        c4         5    -0.13232       12.0110 ; qtot    0.022
         6            s5bf         1   UNL        s5         6     0.04904       32.0670 ; qtot    0.071
         7            c6bf         1   UNL        c6         7    -0.04397       12.0110 ; qtot    0.027
         8            c7bf         1   UNL        c7         8    -0.22979       12.0110 ; qtot   -0.203
         9            c8bf         1   UNL        c8         9    -0.24025       12.0110 ; qtot   -0.443
        10            s9bf         1   UNL        s9        10     1.25795       32.0670 ; qtot    0.815
        11           o10bf         1   UNL       o10        11    -0.58940       15.9990 ; qtot    0.225
        12           o11bf         1   UNL       o11        12    -0.58940       15.9990 ; qtot   -0.364
        13           n12bf         1   UNL       n12        13    -0.77023       14.0070 ; qtot   -1.134
        14           c13bf         1   UNL       c13        14     0.12770       12.0110 ; qtot   -1.007
        15           c14bf         1   UNL       c14        15    -0.09711       12.0110 ; qtot   -1.104
        16           c15bf         1   UNL       c15        16     0.09835       12.0110 ; qtot   -1.005
        17           c16bf         1   UNL       c16        17     0.69359       12.0110 ; qtot   -0.312
        18           o17bf         1   UNL       o17        18    -0.62440       15.9990 ; qtot   -0.936
        19           n18bf         1   UNL       n18        19    -0.46819       14.0070 ; qtot   -1.404
        20           c19bf         1   UNL       c19        20     0.05357       12.0110 ; qtot   -1.351
        21           c20bf         1   UNL       c20        21    -0.09682       12.0110 ; qtot   -1.448
        22           c21bf         1   UNL       c21        22     0.65569       12.0110 ; qtot   -0.792
        23           o22bf         1   UNL       o22        23    -0.59852       15.9990 ; qtot   -1.391
        24           n23bf         1   UNL       n23        24    -0.48329       14.0070 ; qtot   -1.874
        25           c24bf         1   UNL       c24        25     0.06631       12.0110 ; qtot   -1.808
        26           c25bf         1   UNL       c25        26     0.11525       12.0110 ; qtot   -1.692
        27           o26bf         1   UNL       o26        27    -0.41112       15.9990 ; qtot   -2.103
        28           c27bf         1   UNL       c27        28     0.11525       12.0110 ; qtot   -1.988
        29           c28bf         1   UNL       c28        29     0.06631       12.0110 ; qtot   -1.922
        30           c29bf         1   UNL       c29        30    -0.08562       12.0110 ; qtot   -2.007
        31           h30bf         1   UNL       h30        31     0.15289        1.0080 ; qtot   -1.855
        32           h31bf         1   UNL       h31        32     0.16176        1.0080 ; qtot   -1.693
        33           h32bf         1   UNL       h32        33     0.43318        1.0080 ; qtot   -1.260
        34           h33bf         1   UNL       h33        34     0.09162        1.0080 ; qtot   -1.168
        35           h34bf         1   UNL       h34        35     0.07326        1.0080 ; qtot   -1.095
        36           h35bf         1   UNL       h35        36     0.07326        1.0080 ; qtot   -1.021
        37           h36bf         1   UNL       h36        37     0.05597        1.0080 ; qtot   -0.965
        38           h37bf         1   UNL       h37        38     0.05597        1.0080 ; qtot   -0.910
        39           h38bf         1   UNL       h38        39     0.08023        1.0080 ; qtot   -0.829
        40           h39bf         1   UNL       h39        40     0.05231        1.0080 ; qtot   -0.777
        41           h40bf         1   UNL       h40        41     0.05231        1.0080 ; qtot   -0.725
        42           h41bf         1   UNL       h41        42     0.05231        1.0080 ; qtot   -0.672
        43           h42bf         1   UNL       h42        43     0.06503        1.0080 ; qtot   -0.607
        44           h43bf         1   UNL       h43        44     0.06503        1.0080 ; qtot   -0.542
        45           h44bf         1   UNL       h44        45     0.05533        1.0080 ; qtot   -0.487
        46           h45bf         1   UNL       h45        46     0.05533        1.0080 ; qtot   -0.432
        47           h46bf         1   UNL       h46        47     0.05533        1.0080 ; qtot   -0.376
        48           h47bf         1   UNL       h47        48     0.05533        1.0080 ; qtot   -0.321
        49           h48bf         1   UNL       h48        49     0.06503        1.0080 ; qtot   -0.256
        50           h49bf         1   UNL       h49        50     0.06503        1.0080 ; qtot   -0.191
        51           h50bf         1   UNL       h50        51     0.19092        1.0080 ; qtot    0.000

[ bonds ]
;       ai        aj funct               r               k
         1         2     1        0.175990   188306.801196    ;  uncertainty r = 0.000108, k = 6.587475
         2         3     1        0.131278   363577.904004    ;  uncertainty r = 0.000120, k = 8.969683
         2         8     1        0.141080   336063.762695    ;  uncertainty r = 0.000046, k = 8.394036
         3         4     1        0.134896   399353.810937    ;  uncertainty r = 0.000150, k = 14.509502
         4         5     1        0.141861   359821.905957    ;  uncertainty r = 0.000180, k = 6.220447
         4        30     1        0.144324   265970.832813    ;  uncertainty r = 0.000279, k = 28.995954
         5         6     1        0.175119   179490.407861    ;  uncertainty r = 0.000096, k = 16.951594
         5         7     1        0.139819   366358.563232    ;  uncertainty r = 0.000071, k = 7.090732
         6         9     1        0.175426   177691.458960    ;  uncertainty r = 0.000125, k = 10.708293
         7         8     1        0.138817   387058.969629    ;  uncertainty r = 0.000044, k = 3.998179
         7        31     1        0.108726   334781.569971    ;  uncertainty r = 0.000039, k = 2.348724
         8        32     1        0.108683   340623.694482    ;  uncertainty r = 0.000016, k = 1.587403
         9        10     1        0.177546   147571.728076    ;  uncertainty r = 0.000070, k = 11.579731
         9        30     1        0.136057   420403.079785    ;  uncertainty r = 0.000091, k = 7.645122
        10        11     1        0.146894   524770.589941    ;  uncertainty r = 0.000078, k = 10.487207
        10        12     1        0.146894   524770.589941    ;  uncertainty r = 0.000078, k = 10.487207
        10        13     1        0.170635   173145.100146    ;  uncertainty r = 0.000445, k = 42.717533
        13        14     1        0.145853   325967.487744    ;  uncertainty r = 0.000227, k = 23.567443
        13        33     1        0.102503   452537.088477    ;  uncertainty r = 0.000066, k = 4.496025
        14        15     1        0.153642   217518.917676    ;  uncertainty r = 0.000058, k = 11.337287
        14        17     1        0.152882   205251.324463    ;  uncertainty r = 0.000200, k = 16.619840
        14        34     1        0.109645   310616.620557    ;  uncertainty r = 0.000043, k = 2.401336
        15        16     1        0.154051   219214.019922    ;  uncertainty r = 0.000061, k = 4.273335
        15        35     1        0.109299   310844.386035    ;  uncertainty r = 0.000017, k = 1.748840
        15        36     1        0.109299   310844.386035    ;  uncertainty r = 0.000017, k = 1.748840
        16        19     1        0.146768   246650.400732    ;  uncertainty r = 0.000221, k = 12.930896
        16        37     1        0.109541   305996.165820    ;  uncertainty r = 0.000033, k = 2.444509
        16        38     1        0.109541   305996.165820    ;  uncertainty r = 0.000033, k = 2.444509
        17        18     1        0.123417   694917.965430    ;  uncertainty r = 0.000090, k = 12.430423
        17        19     1        0.136349   286304.756152    ;  uncertainty r = 0.000078, k = 23.105244
        19        20     1        0.145555   281517.671777    ;  uncertainty r = 0.000222, k = 19.681971
        20        21     1        0.153460   212444.030078    ;  uncertainty r = 0.000030, k = 6.319440
        20        22     1        0.154403   218642.780322    ;  uncertainty r = 0.000018, k = 16.462715
        20        39     1        0.109460   310823.190234    ;  uncertainty r = 0.000049, k = 2.513796
        21        40     1        0.109409   312861.000488    ;  uncertainty r = 0.000017, k = 1.141259
        21        41     1        0.109409   312861.000488    ;  uncertainty r = 0.000017, k = 1.141259
        21        42     1        0.109409   312861.000488    ;  uncertainty r = 0.000017, k = 1.141259
        22        23     1        0.123332   703381.882813    ;  uncertainty r = 0.000097, k = 9.602494
        22        24     1        0.136706   308486.621338    ;  uncertainty r = 0.000033, k = 12.395068
        24        25     1        0.146392   254501.759473    ;  uncertainty r = 0.000091, k = 8.526718
        24        29     1        0.146392   254501.759473    ;  uncertainty r = 0.000091, k = 8.526718
        25        26     1        0.152681   207263.227319    ;  uncertainty r = 0.000025, k = 4.718310
        25        43     1        0.109477   308256.276611    ;  uncertainty r = 0.000021, k = 2.245969
        25        44     1        0.109477   308256.276611    ;  uncertainty r = 0.000021, k = 2.245969
        26        27     1        0.142361   276005.563330    ;  uncertainty r = 0.000033, k = 2.914980
        26        45     1        0.109826   309629.075000    ;  uncertainty r = 0.000019, k = 1.877640
        26        46     1        0.109826   309629.075000    ;  uncertainty r = 0.000019, k = 1.877640
        27        28     1        0.142361   276005.563330    ;  uncertainty r = 0.000033, k = 2.914980
        28        29     1        0.152681   207263.227319    ;  uncertainty r = 0.000025, k = 4.718310
        28        47     1        0.109826   309629.075000    ;  uncertainty r = 0.000019, k = 1.877640
        28        48     1        0.109826   309629.075000    ;  uncertainty r = 0.000019, k = 1.877640
        29        49     1        0.109477   308256.276611    ;  uncertainty r = 0.000021, k = 2.245969
        29        50     1        0.109477   308256.251074    ;  uncertainty r = 0.000021, k = 2.245982
        30        51     1        0.108433   335238.633154    ;  uncertainty r = 0.000022, k = 2.281618

[ angles ]
;       ai        aj        ak funct           theta             cth
         1         2         3     1      117.395691      508.489751    ;  uncertainty theta = 0.004261, k = 0.217949
         1         2         8     1      119.549706      432.067621    ;  uncertainty theta = 0.003767, k = 0.108921
         2         3         4     1      114.003769      429.308495    ;  uncertainty theta = 0.006051, k = 0.210363
         2         8         7     1      117.850319      469.614098    ;  uncertainty theta = 0.001751, k = 0.104955
         2         8        32     1      122.350784      290.554782    ;  uncertainty theta = 0.002216, k = 0.074567
         3         2         8     1      124.858841      568.090491    ;  uncertainty theta = 0.002112, k = 0.232149
         3         4         5     1      122.411949      528.775153    ;  uncertainty theta = 0.002424, k = 0.137916
         3         4        30     1      125.469398      444.214123    ;  uncertainty theta = 0.006995, k = 0.209123
         4         5         6     1      111.989586      495.076352    ;  uncertainty theta = 0.003130, k = 0.084388
         4         5         7     1      117.113060      388.736094    ;  uncertainty theta = 0.004896, k = 0.130237
         4        30         9     1      110.728638      684.764436    ;  uncertainty theta = 0.001479, k = 0.114677
         4        30        51     1      123.557068      253.757276    ;  uncertainty theta = 0.002222, k = 0.266746
         5         4        30     1      112.656296      571.883582    ;  uncertainty theta = 0.003407, k = 0.317881
         5         6         9     1       89.192062     1169.951638    ;  uncertainty theta = 0.004905, k = 0.102198
         5         7         8     1      117.156090      512.354696    ;  uncertainty theta = 0.003541, k = 0.097671
         5         7        31     1      122.541824      290.408423    ;  uncertainty theta = 0.002714, k = 0.065168
         6         5         7     1      127.951187      372.277714    ;  uncertainty theta = 0.005646, k = 0.103370
         6         9        10     1      118.211670      336.314888    ;  uncertainty theta = 0.008725, k = 0.255746
         6         9        30     1      115.092384      445.671909    ;  uncertainty theta = 0.013836, k = 0.155040
         7         8        32     1      121.735718      281.866004    ;  uncertainty theta = 0.000672, k = 0.053341
         8         7        31     1      120.401405      280.598119    ;  uncertainty theta = 0.001918, k = 0.054420
         9        10        11     1      112.586342      585.991175    ;  uncertainty theta = 0.003907, k = 0.143110
         9        10        12     1      112.586342      585.991175    ;  uncertainty theta = 0.003907, k = 0.143110
         9        10        13     1      104.396851      645.359464    ;  uncertainty theta = 0.005519, k = 0.204090
         9        30        51     1      122.740829      241.445501    ;  uncertainty theta = 0.001768, k = 0.163320
        10         9        30     1      121.562279      301.336614    ;  uncertainty theta = 0.006031, k = 0.129689
        10        13        14     1      110.282471      418.357608    ;  uncertainty theta = 0.005350, k = 0.111693
        10        13        33     1      111.016151      439.757802    ;  uncertainty theta = 0.004101, k = 0.108138
        11        10        12     1      125.233780      796.026940    ;  uncertainty theta = 0.002447, k = 0.083500
        11        10        13     1      113.832970      815.277899    ;  uncertainty theta = 0.004058, k = 0.111798
        12        10        13     1      113.832970      815.277899    ;  uncertainty theta = 0.004058, k = 0.111798
        13        14        15     1      110.813522      582.281973    ;  uncertainty theta = 0.002117, k = 0.221116
        13        14        17     1      103.397507      504.632338    ;  uncertainty theta = 0.004719, k = 0.106833
        13        14        34     1      106.020554      411.108006    ;  uncertainty theta = 0.005220, k = 0.125690
        14        13        33     1      110.428833      398.947873    ;  uncertainty theta = 0.003145, k = 0.174898
        14        15        16     1      105.090866      704.961353    ;  uncertainty theta = 0.002584, k = 0.163493
        14        15        35     1      108.412819      386.708288    ;  uncertainty theta = 0.000541, k = 0.060988
        14        15        36     1      108.412819      386.708288    ;  uncertainty theta = 0.000541, k = 0.060988
        14        17        18     1      125.981590      461.544531    ;  uncertainty theta = 0.003053, k = 0.152205
        14        17        19     1      111.585571      487.843636    ;  uncertainty theta = 0.004459, k = 0.113759
        15        14        17     1      105.885330      714.826083    ;  uncertainty theta = 0.003343, k = 0.112684
        15        14        34     1      109.294922      381.983348    ;  uncertainty theta = 0.004210, k = 0.166194
        15        16        19     1      104.783669      782.725809    ;  uncertainty theta = 0.002755, k = 0.099545
        15        16        37     1      110.273422      402.520132    ;  uncertainty theta = 0.001363, k = 0.041871
        15        16        38     1      110.273422      402.520132    ;  uncertainty theta = 0.001363, k = 0.041871
        16        15        35     1      109.696510      408.338730    ;  uncertainty theta = 0.001401, k = 0.098939
        16        15        36     1      109.696510      408.338730    ;  uncertainty theta = 0.001401, k = 0.098939
        16        19        17     1      113.800400      558.185412    ;  uncertainty theta = 0.004051, k = 0.196713
        16        19        20     1      116.627670      418.914317    ;  uncertainty theta = 0.004736, k = 0.139254
        17        14        34     1      108.395241      373.986370    ;  uncertainty theta = 0.002018, k = 0.148960
        17        19        20     1      115.859238      394.898134    ;  uncertainty theta = 0.005834, k = 0.223208
        18        17        19     1      126.441208      689.779605    ;  uncertainty theta = 0.003327, k = 0.081511
        19        16        37     1      108.898422      451.460182    ;  uncertainty theta = 0.000848, k = 0.056988
        19        16        38     1      108.898422      451.460182    ;  uncertainty theta = 0.000848, k = 0.056988
        19        20        21     1      110.632401      680.881263    ;  uncertainty theta = 0.005659, k = 0.187610
        19        20        22     1      106.307907      510.576611    ;  uncertainty theta = 0.004206, k = 0.177546
        19        20        39     1      104.193527      439.162245    ;  uncertainty theta = 0.004577, k = 0.070621
        20        21        40     1      107.700577      390.638257    ;  uncertainty theta = 0.001974, k = 0.049172
        20        21        41     1      107.700577      390.638257    ;  uncertainty theta = 0.001974, k = 0.049172
        20        21        42     1      107.700577      390.638257    ;  uncertainty theta = 0.001974, k = 0.049172
        20        22        23     1      123.488663      491.647772    ;  uncertainty theta = 0.006202, k = 0.099047
        20        22        24     1      112.431114      386.828280    ;  uncertainty theta = 0.005821, k = 0.248360
        21        20        22     1      107.996933      498.807419    ;  uncertainty theta = 0.002482, k = 0.128252
        21        20        39     1      108.264465      418.620896    ;  uncertainty theta = 0.003532, k = 0.103854
        22        20        39     1      108.421043      367.404340    ;  uncertainty theta = 0.006220, k = 0.162230
        22        24        25     1      116.829430      363.497960    ;  uncertainty theta = 0.002063, k = 0.124181
        22        24        29     1      116.829430      363.497960    ;  uncertainty theta = 0.002063, k = 0.124181
        23        22        24     1      124.422546      748.757049    ;  uncertainty theta = 0.002982, k = 0.183298
        24        25        26     1      110.182350      714.010875    ;  uncertainty theta = 0.000722, k = 0.109108
        24        25        43     1      108.304482      458.396540    ;  uncertainty theta = 0.000957, k = 0.042005
        24        25        44     1      108.304482      458.396540    ;  uncertainty theta = 0.000957, k = 0.042005
        24        29        28     1      110.182350      714.010875    ;  uncertainty theta = 0.000722, k = 0.109108
        24        29        49     1      108.304482      458.396540    ;  uncertainty theta = 0.000957, k = 0.042005
        24        29        50     1      108.304482      458.396540    ;  uncertainty theta = 0.000957, k = 0.042005
        25        24        29     1      115.684769      415.199370    ;  uncertainty theta = 0.005388, k = 0.132019
        25        26        27     1      111.287369      644.552363    ;  uncertainty theta = 0.002689, k = 0.032587
        25        26        45     1      109.515793      404.665536    ;  uncertainty theta = 0.000894, k = 0.016388
        25        26        46     1      109.515793      404.665536    ;  uncertainty theta = 0.000894, k = 0.016388
        26        25        43     1      109.080734      409.167122    ;  uncertainty theta = 0.000740, k = 0.033495
        26        25        44     1      109.080734      409.167122    ;  uncertainty theta = 0.000740, k = 0.033495
        26        27        28     1      110.179764      541.020197    ;  uncertainty theta = 0.002124, k = 0.077936
        27        26        45     1      107.084984      465.302572    ;  uncertainty theta = 0.000967, k = 0.023146
        27        26        46     1      107.084984      465.302572    ;  uncertainty theta = 0.000967, k = 0.023146
        27        28        29     1      111.287369      644.552363    ;  uncertainty theta = 0.002689, k = 0.032587
        27        28        47     1      107.084984      465.302572    ;  uncertainty theta = 0.000967, k = 0.023146
        27        28        48     1      107.084984      465.302572    ;  uncertainty theta = 0.000967, k = 0.023146
        28        29        49     1      109.080734      409.167122    ;  uncertainty theta = 0.000740, k = 0.033495
        28        29        50     1      109.080734      409.167122    ;  uncertainty theta = 0.000740, k = 0.033495
        29        28        47     1      109.515793      404.665536    ;  uncertainty theta = 0.000894, k = 0.016388
        29        28        48     1      109.515793      404.665536    ;  uncertainty theta = 0.000894, k = 0.016388
        35        15        36     1      106.440086      304.816109    ;  uncertainty theta = 0.003856, k = 0.068106
        37        16        38     1      105.856216      304.101580    ;  uncertainty theta = 0.002097, k = 0.072369
        40        21        41     1      105.685402      315.694087    ;  uncertainty theta = 0.001842, k = 0.014287
        40        21        42     1      105.685402      315.694087    ;  uncertainty theta = 0.001842, k = 0.014287
        41        21        42     1      105.685402      315.694087    ;  uncertainty theta = 0.001842, k = 0.014287
        43        25        44     1      105.962692      319.495222    ;  uncertainty theta = 0.000795, k = 0.039018
        45        26        46     1      107.529320      317.902537    ;  uncertainty theta = 0.001237, k = 0.038568
        47        28        48     1      107.529320      317.902537    ;  uncertainty theta = 0.001237, k = 0.038569
        49        29        50     1      105.962692      319.495222    ;  uncertainty theta = 0.000795, k = 0.039019

[ dihedrals ] ; propers for gromacs 4.5 or higher, use funct 9
;       ai        aj        ak        al funct           phase               k        pn
         1         2         3         4     9        0.000000        0.224390         1    ;  uncertainty k = 0.708394
         1         2         3         4     9      180.000000       18.334691         2    ;  uncertainty k = 0.268392
         1         2         3         4     9        0.000000        2.847168         3    ;  uncertainty k = 0.504512
         1         2         3         4     9      180.000000        1.634211         4    ;  uncertainty k = 0.270184
         1         2         8         7     9        0.000000        0.084456         1    ;  uncertainty k = 0.227399
         1         2         8         7     9      180.000000        6.914941         2    ;  uncertainty k = 0.836371
         1         2         8         7     9        0.000000        1.231616         3    ;  uncertainty k = 0.353015
         1         2         8         7     9      180.000000        1.266035         4    ;  uncertainty k = 0.347615
         1         2         8        32     9        0.000000       -0.132193         1    ;  uncertainty k = 0.342412
         1         2         8        32     9      180.000000        5.816157         2    ;  uncertainty k = 0.454671
         1         2         8        32     9        0.000000        0.676926         3    ;  uncertainty k = 0.238032
         1         2         8        32     9      180.000000        0.814067         4    ;  uncertainty k = 0.187607
         2         3         4         5     9        0.000000       -0.357440         1    ;  uncertainty k = 0.767777
         2         3         4         5     9      180.000000       14.871541         2    ;  uncertainty k = 0.406236
         2         3         4         5     9        0.000000        0.446280         3    ;  uncertainty k = 0.239129
         2         3         4         5     9      180.000000        0.929148         4    ;  uncertainty k = 0.269395
         2         3         4        30     9        0.000000        0.905212         1    ;  uncertainty k = 0.681591
         2         3         4        30     9      180.000000       13.755465         2    ;  uncertainty k = 0.500382
         2         3         4        30     9        0.000000        2.243853         3    ;  uncertainty k = 0.406079
         2         3         4        30     9      180.000000        1.271950         4    ;  uncertainty k = 0.328130
         2         8         7         5     9        0.000000        0.248018         1    ;  uncertainty k = 0.285260
         2         8         7         5     9      180.000000       16.506099         2    ;  uncertainty k = 0.357191
         2         8         7         5     9        0.000000       -0.789241         3    ;  uncertainty k = 0.791676
         2         8         7         5     9      180.000000        0.722069         4    ;  uncertainty k = 0.469709
         2         8         7        31     9        0.000000        0.076569         1    ;  uncertainty k = 0.220341
         2         8         7        31     9      180.000000        9.197627         2    ;  uncertainty k = 0.300349
         2         8         7        31     9        0.000000        1.554220         3    ;  uncertainty k = 0.278675
         2         8         7        31     9      180.000000        1.737499         4    ;  uncertainty k = 0.273487
         3         2         8         7     9        0.000000        0.027141         1    ;  uncertainty k = 0.175735
         3         2         8         7     9      180.000000        9.621811         2    ;  uncertainty k = 0.565290
         3         2         8         7     9        0.000000       -0.500518         3    ;  uncertainty k = 0.593475
         3         2         8         7     9      180.000000        1.177096         4    ;  uncertainty k = 0.162622
         3         2         8        32     9        0.000000       -0.065972         1    ;  uncertainty k = 0.508925
         3         2         8        32     9      180.000000        5.954656         2    ;  uncertainty k = 1.009996
         3         2         8        32     9        0.000000        0.923636         3    ;  uncertainty k = 0.218264
         3         2         8        32     9      180.000000        1.455896         4    ;  uncertainty k = 0.219124
         3         4         5         6     9        0.000000        0.227870         1    ;  uncertainty k = 0.289713
         3         4         5         6     9      180.000000       10.105234         2    ;  uncertainty k = 0.271063
         3         4         5         6     9        0.000000        0.330624         3    ;  uncertainty k = 0.570008
         3         4         5         6     9      180.000000        1.087402         4    ;  uncertainty k = 0.238100
         3         4         5         7     9        0.000000       -0.207182         1    ;  uncertainty k = 0.535138
         3         4         5         7     9      180.000000        9.622991         2    ;  uncertainty k = 0.375980
         3         4         5         7     9        0.000000        0.004513         3    ;  uncertainty k = 0.248750
         3         4         5         7     9      180.000000        1.238154         4    ;  uncertainty k = 0.269520
         3         4        30         9     9        0.000000       -0.634981         1    ;  uncertainty k = 0.599834
         3         4        30         9     9      180.000000        8.716350         2    ;  uncertainty k = 0.159362
         3         4        30         9     9        0.000000        0.295721         3    ;  uncertainty k = 0.429062
         3         4        30         9     9      180.000000        0.584521         4    ;  uncertainty k = 0.222813
         3         4        30        51     9        0.000000       -0.256294         1    ;  uncertainty k = 1.150898
         3         4        30        51     9      180.000000        6.901953         2    ;  uncertainty k = 0.191714
         3         4        30        51     9        0.000000        1.099298         3    ;  uncertainty k = 0.104377
         3         4        30        51     9      180.000000        0.377761         4    ;  uncertainty k = 0.154118
         4         3         2         8     9        0.000000        0.236149         1    ;  uncertainty k = 1.004222
         4         3         2         8     9      180.000000       13.912555         2    ;  uncertainty k = 0.514886
         4         3         2         8     9        0.000000        1.868561         3    ;  uncertainty k = 0.456718
         4         3         2         8     9      180.000000        1.277940         4    ;  uncertainty k = 0.289779
         4         5         6         9     9        0.000000       -0.222526         1    ;  uncertainty k = 0.404750
         4         5         6         9     9      180.000000       14.733161         2    ;  uncertainty k = 1.038025
         4         5         6         9     9        0.000000       -6.270880         3    ;  uncertainty k = 1.315317
         4         5         6         9     9      180.000000        0.532655         4    ;  uncertainty k = 0.681544
         4         5         7         8     9        0.000000       -0.029432         1    ;  uncertainty k = 0.369852
         4         5         7         8     9      180.000000       12.235010         2    ;  uncertainty k = 0.519382
         4         5         7         8     9        0.000000       -1.058333         3    ;  uncertainty k = 0.085778
         4         5         7         8     9      180.000000        0.904314         4    ;  uncertainty k = 0.314252
         4         5         7        31     9        0.000000       -0.004278         1    ;  uncertainty k = 0.435634
         4         5         7        31     9      180.000000        6.736865         2    ;  uncertainty k = 0.838858
         4         5         7        31     9        0.000000        1.332675         3    ;  uncertainty k = 0.130832
         4         5         7        31     9      180.000000        1.285970         4    ;  uncertainty k = 0.317124
         4        30         9         6     9        0.000000       -0.445484         1    ;  uncertainty k = 0.775062
         4        30         9         6     9      180.000000       18.709757         2    ;  uncertainty k = 0.346400
         4        30         9         6     9        0.000000       -1.479634         3    ;  uncertainty k = 0.883441
         4        30         9         6     9      180.000000        1.031350         4    ;  uncertainty k = 0.597074
         4        30         9        10     9        0.000000        0.996461         1    ;  uncertainty k = 0.988689
         4        30         9        10     9      180.000000       15.029952         2    ;  uncertainty k = 0.400655
         4        30         9        10     9        0.000000        2.252924         3    ;  uncertainty k = 0.540767
         4        30         9        10     9      180.000000        0.737569         4    ;  uncertainty k = 0.275097
         5         4        30         9     9        0.000000       -0.420954         1    ;  uncertainty k = 0.769626
         5         4        30         9     9      180.000000       11.418964         2    ;  uncertainty k = 0.776065
         5         4        30         9     9        0.000000       -4.143814         3    ;  uncertainty k = 1.033911
         5         4        30         9     9      180.000000        1.087267         4    ;  uncertainty k = 0.467621
         5         4        30        51     9        0.000000       -0.322145         1    ;  uncertainty k = 0.920786
         5         4        30        51     9      180.000000        6.944977         2    ;  uncertainty k = 0.297535
         5         4        30        51     9        0.000000        0.860564         3    ;  uncertainty k = 0.773488
         5         4        30        51     9      180.000000        0.376453         4    ;  uncertainty k = 0.349263
         5         6         9        10     9        0.000000        1.423984         1    ;  uncertainty k = 1.333231
         5         6         9        10     9      180.000000        6.560575         2    ;  uncertainty k = 0.898052
         5         6         9        10     9        0.000000        1.417215         3    ;  uncertainty k = 0.193003
         5         6         9        10     9      180.000000        0.055212         4    ;  uncertainty k = 0.256752
         5         6         9        30     9        0.000000       -0.709638         1    ;  uncertainty k = 1.063250
         5         6         9        30     9      180.000000       13.360672         2    ;  uncertainty k = 0.288074
         5         6         9        30     9        0.000000       -6.013412         3    ;  uncertainty k = 0.684821
         5         6         9        30     9      180.000000        1.174418         4    ;  uncertainty k = 0.788876
         5         7         8        32     9        0.000000        0.193174         1    ;  uncertainty k = 0.257070
         5         7         8        32     9      180.000000       11.502008         2    ;  uncertainty k = 0.279866
         5         7         8        32     9        0.000000        1.307037         3    ;  uncertainty k = 0.523038
         5         7         8        32     9      180.000000        1.637422         4    ;  uncertainty k = 0.249278
         6         5         4        30     9        0.000000       -0.212938         1    ;  uncertainty k = 0.621685
         6         5         4        30     9      180.000000       10.581906         2    ;  uncertainty k = 0.376628
         6         5         4        30     9        0.000000       -0.612514         3    ;  uncertainty k = 0.757465
         6         5         4        30     9      180.000000        1.188972         4    ;  uncertainty k = 0.299120
         6         5         7         8     9        0.000000        0.312581         1    ;  uncertainty k = 0.648979
         6         5         7         8     9      180.000000        8.810009         2    ;  uncertainty k = 0.531375
         6         5         7         8     9        0.000000        1.139886         3    ;  uncertainty k = 0.268557
         6         5         7         8     9      180.000000        1.392748         4    ;  uncertainty k = 0.418416
         6         5         7        31     9        0.000000       -0.039943         1    ;  uncertainty k = 0.358861
         6         5         7        31     9      180.000000        5.215406         2    ;  uncertainty k = 0.482638
         6         5         7        31     9        0.000000        0.895836         3    ;  uncertainty k = 0.151254
         6         5         7        31     9      180.000000        0.729407         4    ;  uncertainty k = 0.231675
         6         9        10        11     9        0.000000       -7.505086         1    ;  uncertainty k = 0.636860
         6         9        10        11     9      180.000000        1.008695         2    ;  uncertainty k = 0.825323
         6         9        10        11     9        0.000000        0.704956         3    ;  uncertainty k = 0.286993
         6         9        10        11     9      180.000000        0.045663         4    ;  uncertainty k = 0.156844
         6         9        10        12     9        0.000000       -7.505086         1    ;  uncertainty k = 0.636860
         6         9        10        12     9      180.000000        1.008695         2    ;  uncertainty k = 0.825323
         6         9        10        12     9        0.000000        0.704956         3    ;  uncertainty k = 0.286993
         6         9        10        12     9      180.000000        0.045663         4    ;  uncertainty k = 0.156844
         6         9        10        13     9        0.000000       -2.942964         1    ;  uncertainty k = 0.971472
         6         9        10        13     9      180.000000        0.693136         2    ;  uncertainty k = 1.032151
         6         9        10        13     9        0.000000        0.501766         3    ;  uncertainty k = 0.436322
         6         9        10        13     9      180.000000       -0.109580         4    ;  uncertainty k = 0.225787
         6         9        30        51     9        0.000000        0.069701         1    ;  uncertainty k = 0.468663
         6         9        30        51     9      180.000000       11.983394         2    ;  uncertainty k = 0.440955
         6         9        30        51     9        0.000000        1.919589         3    ;  uncertainty k = 0.202586
         6         9        30        51     9      180.000000        1.136112         4    ;  uncertainty k = 0.262643
         7         5         4        30     9        0.000000       -0.081061         1    ;  uncertainty k = 0.849534
         7         5         4        30     9      180.000000        8.412037         2    ;  uncertainty k = 0.664329
         7         5         4        30     9        0.000000        0.224704         3    ;  uncertainty k = 0.637631
         7         5         4        30     9      180.000000        1.167404         4    ;  uncertainty k = 0.232798
         7         5         6         9     9        0.000000       -0.227291         1    ;  uncertainty k = 1.884659
         7         5         6         9     9      180.000000        6.613258         2    ;  uncertainty k = 1.408953
         7         5         6         9     9        0.000000        0.716510         3    ;  uncertainty k = 0.611185
         7         5         6         9     9      180.000000        0.629055         4    ;  uncertainty k = 0.532858
         9        10        13        14     9        0.000000       -5.354815         1    ;  uncertainty k = 2.018422
         9        10        13        14     9      180.000000       -3.786899         2    ;  uncertainty k = 0.594695
         9        10        13        14     9        0.000000        2.221371         3    ;  uncertainty k = 0.662691
         9        10        13        14     9      180.000000        0.047754         4    ;  uncertainty k = 0.324638
         9        10        13        33     9        0.000000        0.316337         1    ;  uncertainty k = 1.213649
         9        10        13        33     9      180.000000       -5.472929         2    ;  uncertainty k = 0.558492
         9        10        13        33     9        0.000000       -0.692190         3    ;  uncertainty k = 0.569747
         9        10        13        33     9      180.000000       -0.065266         4    ;  uncertainty k = 0.222505
        10         9        30        51     9        0.000000       -0.192170         1    ;  uncertainty k = 0.445692
        10         9        30        51     9      180.000000        9.529439         2    ;  uncertainty k = 0.397986
        10         9        30        51     9        0.000000        1.531400         3    ;  uncertainty k = 0.332689
        10         9        30        51     9      180.000000        0.620602         4    ;  uncertainty k = 0.152483
        10        13        14        15     9        0.000000       -3.235380         1    ;  uncertainty k = 1.572635
        10        13        14        15     9      180.000000       -1.505752         2    ;  uncertainty k = 0.855785
        10        13        14        15     9        0.000000        0.552099         3    ;  uncertainty k = 0.228836
        10        13        14        15     9      180.000000        0.019729         4    ;  uncertainty k = 0.176328
        10        13        14        17     9        0.000000        3.081791         1    ;  uncertainty k = 1.361390
        10        13        14        17     9      180.000000       -3.527723         2    ;  uncertainty k = 0.972948
        10        13        14        17     9        0.000000       -0.045139         3    ;  uncertainty k = 0.102226
        10        13        14        17     9      180.000000        0.201487         4    ;  uncertainty k = 0.241765
        10        13        14        34     9        0.000000        2.612142         1    ;  uncertainty k = 1.700351
        10        13        14        34     9      180.000000       -3.101884         2    ;  uncertainty k = 1.201533
        10        13        14        34     9        0.000000        0.302455         3    ;  uncertainty k = 0.366695
        10        13        14        34     9      180.000000        0.051472         4    ;  uncertainty k = 0.066388
        11        10         9        30     9        0.000000        1.908305         1    ;  uncertainty k = 1.106481
        11        10         9        30     9      180.000000        1.223385         2    ;  uncertainty k = 0.501131
        11        10         9        30     9        0.000000        0.563258         3    ;  uncertainty k = 0.165998
        11        10         9        30     9      180.000000        0.071087         4    ;  uncertainty k = 0.160079
        11        10        13        14     9        0.000000        1.130608         1    ;  uncertainty k = 1.288991
        11        10        13        14     9      180.000000        2.400264         2    ;  uncertainty k = 0.429724
        11        10        13        14     9        0.000000        1.535627         3    ;  uncertainty k = 0.459268
        11        10        13        14     9      180.000000       -0.338419         4    ;  uncertainty k = 0.308611
        11        10        13        33     9        0.000000        7.600082         1    ;  uncertainty k = 0.685334
        11        10        13        33     9      180.000000        0.584477         2    ;  uncertainty k = 0.924386
        11        10        13        33     9        0.000000       -0.452312         3    ;  uncertainty k = 0.217141
        11        10        13        33     9      180.000000       -0.143971         4    ;  uncertainty k = 0.221908
        12        10         9        30     9        0.000000        1.908305         1    ;  uncertainty k = 1.106481
        12        10         9        30     9      180.000000        1.223385         2    ;  uncertainty k = 0.501131
        12        10         9        30     9        0.000000        0.563258         3    ;  uncertainty k = 0.165998
        12        10         9        30     9      180.000000        0.071087         4    ;  uncertainty k = 0.160079
        12        10        13        14     9        0.000000        1.130608         1    ;  uncertainty k = 1.288991
        12        10        13        14     9      180.000000        2.400264         2    ;  uncertainty k = 0.429724
        12        10        13        14     9        0.000000        1.535627         3    ;  uncertainty k = 0.459268
        12        10        13        14     9      180.000000       -0.338419         4    ;  uncertainty k = 0.308611
        12        10        13        33     9        0.000000        7.600082         1    ;  uncertainty k = 0.685334
        12        10        13        33     9      180.000000        0.584477         2    ;  uncertainty k = 0.924386
        12        10        13        33     9        0.000000       -0.452312         3    ;  uncertainty k = 0.217141
        12        10        13        33     9      180.000000       -0.143971         4    ;  uncertainty k = 0.221908
        13        10         9        30     9        0.000000        3.590605         1    ;  uncertainty k = 1.389529
        13        10         9        30     9      180.000000        1.593998         2    ;  uncertainty k = 0.490604
        13        10         9        30     9        0.000000       -0.004139         3    ;  uncertainty k = 0.331041
        13        10         9        30     9      180.000000       -0.076346         4    ;  uncertainty k = 0.192273
        13        14        15        16     9        0.000000       -2.673566         1    ;  uncertainty k = 1.999000
        13        14        15        16     9      180.000000        0.134999         2    ;  uncertainty k = 0.485529
        13        14        15        16     9        0.000000        1.179017         3    ;  uncertainty k = 0.356891
        13        14        15        16     9      180.000000       -0.068891         4    ;  uncertainty k = 0.110695
        13        14        15        35     9        0.000000       -0.076072         1    ;  uncertainty k = 0.384009
        13        14        15        35     9      180.000000       -0.088130         2    ;  uncertainty k = 0.266944
        13        14        15        35     9        0.000000        1.220285         3    ;  uncertainty k = 0.207977
        13        14        15        35     9      180.000000        0.034595         4    ;  uncertainty k = 0.165275
        13        14        15        36     9        0.000000       -0.076072         1    ;  uncertainty k = 0.384009
        13        14        15        36     9      180.000000       -0.088130         2    ;  uncertainty k = 0.266944
        13        14        15        36     9        0.000000        1.220285         3    ;  uncertainty k = 0.207977
        13        14        15        36     9      180.000000        0.034595         4    ;  uncertainty k = 0.165275
        13        14        17        18     9        0.000000        0.714822         1    ;  uncertainty k = 1.245970
        13        14        17        18     9      180.000000        5.295990         2    ;  uncertainty k = 0.735965
        13        14        17        18     9        0.000000        0.623755         3    ;  uncertainty k = 0.343413
        13        14        17        18     9      180.000000        0.226353         4    ;  uncertainty k = 0.192090
        13        14        17        19     9        0.000000       -1.053606         1    ;  uncertainty k = 1.117428
        13        14        17        19     9      180.000000        3.396734         2    ;  uncertainty k = 0.712359
        13        14        17        19     9        0.000000        1.140704         3    ;  uncertainty k = 0.287433
        13        14        17        19     9      180.000000        0.427143         4    ;  uncertainty k = 0.178761
        14        15        16        19     9        0.000000       -0.900393         1    ;  uncertainty k = 0.824844
        14        15        16        19     9      180.000000        2.790783         2    ;  uncertainty k = 1.038021
        14        15        16        19     9        0.000000        0.577165         3    ;  uncertainty k = 0.450166
        14        15        16        19     9      180.000000       -1.567199         4    ;  uncertainty k = 0.413907
        14        15        16        37     9        0.000000        0.508141         1    ;  uncertainty k = 0.387437
        14        15        16        37     9      180.000000       -1.457961         2    ;  uncertainty k = 0.267737
        14        15        16        37     9        0.000000       -0.250955         3    ;  uncertainty k = 0.202329
        14        15        16        37     9      180.000000        0.083898         4    ;  uncertainty k = 0.135319
        14        15        16        38     9        0.000000        0.508141         1    ;  uncertainty k = 0.387437
        14        15        16        38     9      180.000000       -1.457961         2    ;  uncertainty k = 0.267737
        14        15        16        38     9        0.000000       -0.250955         3    ;  uncertainty k = 0.202329
        14        15        16        38     9      180.000000        0.083898         4    ;  uncertainty k = 0.135319
        14        17        19        16     9        0.000000        2.446281         1    ;  uncertainty k = 3.352831
        14        17        19        16     9      180.000000        7.692926         2    ;  uncertainty k = 1.164162
        14        17        19        16     9        0.000000        0.576922         3    ;  uncertainty k = 0.591422
        14        17        19        16     9      180.000000        0.260320         4    ;  uncertainty k = 0.390503
        14        17        19        20     9        0.000000        6.268749         1    ;  uncertainty k = 0.714423
        14        17        19        20     9      180.000000        8.670159         2    ;  uncertainty k = 0.732612
        14        17        19        20     9        0.000000        1.742597         3    ;  uncertainty k = 0.552802
        14        17        19        20     9      180.000000       -0.110520         4    ;  uncertainty k = 0.365021
        15        14        13        33     9        0.000000        4.066420         1    ;  uncertainty k = 1.427581
        15        14        13        33     9      180.000000       -3.677248         2    ;  uncertainty k = 0.721727
        15        14        13        33     9        0.000000        0.420882         3    ;  uncertainty k = 0.255218
        15        14        13        33     9      180.000000       -0.031156         4    ;  uncertainty k = 0.097571
        15        14        17        18     9        0.000000       -2.063845         1    ;  uncertainty k = 1.005656
        15        14        17        18     9      180.000000        2.959955         2    ;  uncertainty k = 0.800500
        15        14        17        18     9        0.000000        0.798161         3    ;  uncertainty k = 0.336073
        15        14        17        18     9      180.000000        0.507020         4    ;  uncertainty k = 0.177528
        15        14        17        19     9        0.000000       -3.401880         1    ;  uncertainty k = 1.863087
        15        14        17        19     9      180.000000        5.247245         2    ;  uncertainty k = 1.537078
        15        14        17        19     9        0.000000        0.089655         3    ;  uncertainty k = 0.514961
        15        14        17        19     9      180.000000        0.658535         4    ;  uncertainty k = 0.269589
        15        16        19        17     9        0.000000       -1.271696         1    ;  uncertainty k = 1.646556
        15        16        19        17     9      180.000000        3.031980         2    ;  uncertainty k = 0.927563
        15        16        19        17     9        0.000000       -0.420830         3    ;  uncertainty k = 0.323621
        15        16        19        17     9      180.000000        0.331591         4    ;  uncertainty k = 0.299174
        15        16        19        20     9        0.000000       -0.500053         1    ;  uncertainty k = 1.100375
        15        16        19        20     9      180.000000        1.256366         2    ;  uncertainty k = 0.392406
        15        16        19        20     9        0.000000        1.672566         3    ;  uncertainty k = 0.563027
        15        16        19        20     9      180.000000       -0.085895         4    ;  uncertainty k = 0.253752
        16        15        14        17     9        0.000000       -0.494033         1    ;  uncertainty k = 0.527541
        16        15        14        17     9      180.000000        3.655257         2    ;  uncertainty k = 1.314088
        16        15        14        17     9        0.000000       -0.080141         3    ;  uncertainty k = 0.299413
        16        15        14        17     9      180.000000       -0.133206         4    ;  uncertainty k = 0.238508
        16        15        14        34     9        0.000000       -1.046147         1    ;  uncertainty k = 0.683850
        16        15        14        34     9      180.000000        0.201248         2    ;  uncertainty k = 0.505601
        16        15        14        34     9        0.000000        0.194718         3    ;  uncertainty k = 0.165680
        16        15        14        34     9      180.000000       -0.007863         4    ;  uncertainty k = 0.028810
        16        19        17        18     9        0.000000        1.706007         1    ;  uncertainty k = 1.828933
        16        19        17        18     9      180.000000       15.708326         2    ;  uncertainty k = 0.448233
        16        19        17        18     9        0.000000        1.023144         3    ;  uncertainty k = 0.259184
        16        19        17        18     9      180.000000       -0.722973         4    ;  uncertainty k = 0.243370
        16        19        20        21     9        0.000000       -0.688492         1    ;  uncertainty k = 0.671699
        16        19        20        21     9      180.000000        0.533676         2    ;  uncertainty k = 0.436027
        16        19        20        21     9        0.000000        1.107179         3    ;  uncertainty k = 0.173282
        16        19        20        21     9      180.000000        0.093772         4    ;  uncertainty k = 0.021274
        16        19        20        22     9        0.000000       -0.395089         1    ;  uncertainty k = 0.653414
        16        19        20        22     9      180.000000       -0.350453         2    ;  uncertainty k = 0.414882
        16        19        20        22     9        0.000000        1.165686         3    ;  uncertainty k = 0.166063
        16        19        20        22     9      180.000000        0.181576         4    ;  uncertainty k = 0.126992
        16        19        20        39     9        0.000000       -2.305625         1    ;  uncertainty k = 0.822179
        16        19        20        39     9      180.000000        0.234101         2    ;  uncertainty k = 0.379196
        16        19        20        39     9        0.000000        0.742947         3    ;  uncertainty k = 0.268478
        16        19        20        39     9      180.000000        0.126564         4    ;  uncertainty k = 0.061018
        17        14        13        33     9        0.000000        6.425863         1    ;  uncertainty k = 0.686841
        17        14        13        33     9      180.000000       -5.137737         2    ;  uncertainty k = 0.767069
        17        14        13        33     9        0.000000        0.278868         3    ;  uncertainty k = 0.238341
        17        14        13        33     9      180.000000       -0.026449         4    ;  uncertainty k = 0.181107
        17        14        15        35     9        0.000000       -0.431560         1    ;  uncertainty k = 0.661123
        17        14        15        35     9      180.000000       -0.496918         2    ;  uncertainty k = 0.345767
        17        14        15        35     9        0.000000        0.474416         3    ;  uncertainty k = 0.068956
        17        14        15        35     9      180.000000        0.036686         4    ;  uncertainty k = 0.080817
        17        14        15        36     9        0.000000       -0.431560         1    ;  uncertainty k = 0.661123
        17        14        15        36     9      180.000000       -0.496918         2    ;  uncertainty k = 0.345767
        17        14        15        36     9        0.000000        0.474416         3    ;  uncertainty k = 0.068956
        17        14        15        36     9      180.000000        0.036686         4    ;  uncertainty k = 0.080817
        17        19        16        37     9        0.000000       -0.126021         1    ;  uncertainty k = 0.747628
        17        19        16        37     9      180.000000        0.293972         2    ;  uncertainty k = 0.484269
        17        19        16        37     9        0.000000        0.164615         3    ;  uncertainty k = 0.183342
        17        19        16        37     9      180.000000        0.417669         4    ;  uncertainty k = 0.109232
        17        19        16        38     9        0.000000       -0.126021         1    ;  uncertainty k = 0.747628
        17        19        16        38     9      180.000000        0.293972         2    ;  uncertainty k = 0.484269
        17        19        16        38     9        0.000000        0.164615         3    ;  uncertainty k = 0.183342
        17        19        16        38     9      180.000000        0.417669         4    ;  uncertainty k = 0.109232
        17        19        20        21     9        0.000000        0.832869         1    ;  uncertainty k = 0.469341
        17        19        20        21     9      180.000000        0.390728         2    ;  uncertainty k = 0.304508
        17        19        20        21     9        0.000000        0.474399         3    ;  uncertainty k = 0.139969
        17        19        20        21     9      180.000000        0.242619         4    ;  uncertainty k = 0.127693
        17        19        20        22     9        0.000000        1.833407         1    ;  uncertainty k = 0.853465
        17        19        20        22     9      180.000000        0.209535         2    ;  uncertainty k = 0.537380
        17        19        20        22     9        0.000000       -0.592888         3    ;  uncertainty k = 0.163296
        17        19        20        22     9      180.000000        0.840729         4    ;  uncertainty k = 0.057254
        17        19        20        39     9        0.000000       -0.205144         1    ;  uncertainty k = 0.599169
        17        19        20        39     9      180.000000        0.004804         2    ;  uncertainty k = 0.153471
        17        19        20        39     9        0.000000       -0.044376         3    ;  uncertainty k = 0.129015
        17        19        20        39     9      180.000000        0.266747         4    ;  uncertainty k = 0.031692
        18        17        14        34     9        0.000000       -0.939633         1    ;  uncertainty k = 0.920694
        18        17        14        34     9      180.000000        3.313286         2    ;  uncertainty k = 0.484581
        18        17        14        34     9        0.000000        0.041973         3    ;  uncertainty k = 0.545681
        18        17        14        34     9      180.000000        0.120210         4    ;  uncertainty k = 0.273969
        18        17        19        20     9        0.000000        2.731142         1    ;  uncertainty k = 1.962138
        18        17        19        20     9      180.000000       14.178956         2    ;  uncertainty k = 0.588436
        18        17        19        20     9        0.000000        0.947456         3    ;  uncertainty k = 0.406074
        18        17        19        20     9      180.000000       -0.454871         4    ;  uncertainty k = 0.414263
        19        16        15        35     9        0.000000       -1.829510         1    ;  uncertainty k = 0.456616
        19        16        15        35     9      180.000000        0.325894         2    ;  uncertainty k = 0.435580
        19        16        15        35     9        0.000000        1.355353         3    ;  uncertainty k = 0.143785
        19        16        15        35     9      180.000000        0.074444         4    ;  uncertainty k = 0.249644
        19        16        15        36     9        0.000000       -1.829510         1    ;  uncertainty k = 0.456616
        19        16        15        36     9      180.000000        0.325894         2    ;  uncertainty k = 0.435580
        19        16        15        36     9        0.000000        1.355353         3    ;  uncertainty k = 0.143785
        19        16        15        36     9      180.000000        0.074444         4    ;  uncertainty k = 0.249644
        19        17        14        34     9        0.000000       -2.118537         1    ;  uncertainty k = 2.522995
        19        17        14        34     9      180.000000        2.390437         2    ;  uncertainty k = 0.667943
        19        17        14        34     9        0.000000        0.967683         3    ;  uncertainty k = 0.295837
        19        17        14        34     9      180.000000        0.482077         4    ;  uncertainty k = 0.134499
        19        20        21        40     9        0.000000       -0.041715         1    ;  uncertainty k = 0.086802
        19        20        21        40     9      180.000000       -2.055705         2    ;  uncertainty k = 0.151824
        19        20        21        40     9        0.000000        1.070157         3    ;  uncertainty k = 0.088658
        19        20        21        40     9      180.000000       -0.169755         4    ;  uncertainty k = 0.104081
        19        20        21        41     9        0.000000       -0.041715         1    ;  uncertainty k = 0.086802
        19        20        21        41     9      180.000000       -2.055705         2    ;  uncertainty k = 0.151824
        19        20        21        41     9        0.000000        1.070157         3    ;  uncertainty k = 0.088658
        19        20        21        41     9      180.000000       -0.169755         4    ;  uncertainty k = 0.104081
        19        20        21        42     9        0.000000       -0.041715         1    ;  uncertainty k = 0.086802
        19        20        21        42     9      180.000000       -2.055705         2    ;  uncertainty k = 0.151824
        19        20        21        42     9        0.000000        1.070157         3    ;  uncertainty k = 0.088658
        19        20        21        42     9      180.000000       -0.169755         4    ;  uncertainty k = 0.104081
        19        20        22        23     9        0.000000        0.499396         1    ;  uncertainty k = 0.966558
        19        20        22        23     9      180.000000        6.109033         2    ;  uncertainty k = 0.130985
        19        20        22        23     9        0.000000        1.318031         3    ;  uncertainty k = 0.293046
        19        20        22        23     9      180.000000        0.376941         4    ;  uncertainty k = 0.128880
        19        20        22        24     9        0.000000        1.298771         1    ;  uncertainty k = 0.762727
        19        20        22        24     9      180.000000        3.730132         2    ;  uncertainty k = 0.411538
        19        20        22        24     9        0.000000        0.531949         3    ;  uncertainty k = 0.139911
        19        20        22        24     9      180.000000        0.104606         4    ;  uncertainty k = 0.060875
        20        19        16        37     9        0.000000       -0.171023         1    ;  uncertainty k = 0.466144
        20        19        16        37     9      180.000000       -0.753502         2    ;  uncertainty k = 0.394766
        20        19        16        37     9        0.000000        0.990987         3    ;  uncertainty k = 0.142757
        20        19        16        37     9      180.000000        0.391063         4    ;  uncertainty k = 0.162132
        20        19        16        38     9        0.000000       -0.171023         1    ;  uncertainty k = 0.466144
        20        19        16        38     9      180.000000       -0.753502         2    ;  uncertainty k = 0.394766
        20        19        16        38     9        0.000000        0.990987         3    ;  uncertainty k = 0.142757
        20        19        16        38     9      180.000000        0.391063         4    ;  uncertainty k = 0.162132
        20        22        24        25     9        0.000000        8.299487         1    ;  uncertainty k = 0.269860
        20        22        24        25     9      180.000000        6.005714         2    ;  uncertainty k = 0.421476
        20        22        24        25     9        0.000000        1.159671         3    ;  uncertainty k = 0.227098
        20        22        24        25     9      180.000000        0.103306         4    ;  uncertainty k = 0.158474
        20        22        24        29     9        0.000000        8.299487         1    ;  uncertainty k = 0.269860
        20        22        24        29     9      180.000000        6.005714         2    ;  uncertainty k = 0.421476
        20        22        24        29     9        0.000000        1.159671         3    ;  uncertainty k = 0.227098
        20        22        24        29     9      180.000000        0.103306         4    ;  uncertainty k = 0.158474
        21        20        22        23     9        0.000000       -0.918609         1    ;  uncertainty k = 0.498844
        21        20        22        23     9      180.000000        5.582712         2    ;  uncertainty k = 0.540220
        21        20        22        23     9        0.000000        1.479882         3    ;  uncertainty k = 0.175097
        21        20        22        23     9      180.000000        0.507220         4    ;  uncertainty k = 0.051889
        21        20        22        24     9        0.000000       -2.003223         1    ;  uncertainty k = 0.395192
        21        20        22        24     9      180.000000        3.012685         2    ;  uncertainty k = 0.516173
        21        20        22        24     9        0.000000        0.475109         3    ;  uncertainty k = 0.119059
        21        20        22        24     9      180.000000        0.075564         4    ;  uncertainty k = 0.082587
        22        20        21        40     9        0.000000        1.150537         1    ;  uncertainty k = 0.677576
        22        20        21        40     9      180.000000       -0.924040         2    ;  uncertainty k = 0.241314
        22        20        21        40     9        0.000000        0.735120         3    ;  uncertainty k = 0.069732
        22        20        21        40     9      180.000000       -0.019774         4    ;  uncertainty k = 0.058125
        22        20        21        41     9        0.000000        1.150537         1    ;  uncertainty k = 0.677576
        22        20        21        41     9      180.000000       -0.924040         2    ;  uncertainty k = 0.241314
        22        20        21        41     9        0.000000        0.735120         3    ;  uncertainty k = 0.069732
        22        20        21        41     9      180.000000       -0.019774         4    ;  uncertainty k = 0.058125
        22        20        21        42     9        0.000000        1.150537         1    ;  uncertainty k = 0.677576
        22        20        21        42     9      180.000000       -0.924040         2    ;  uncertainty k = 0.241314
        22        20        21        42     9        0.000000        0.735120         3    ;  uncertainty k = 0.069732
        22        20        21        42     9      180.000000       -0.019774         4    ;  uncertainty k = 0.058125
        22        24        25        26     9        0.000000        0.224961         1    ;  uncertainty k = 0.687788
        22        24        25        26     9      180.000000        0.114129         2    ;  uncertainty k = 0.146198
        22        24        25        26     9        0.000000       -0.233453         3    ;  uncertainty k = 0.126504
        22        24        25        26     9      180.000000        0.299264         4    ;  uncertainty k = 0.131991
        22        24        25        43     9        0.000000        1.489642         1    ;  uncertainty k = 0.595508
        22        24        25        43     9      180.000000       -0.191425         2    ;  uncertainty k = 0.136241
        22        24        25        43     9        0.000000        0.111797         3    ;  uncertainty k = 0.096189
        22        24        25        43     9      180.000000        0.140722         4    ;  uncertainty k = 0.049493
        22        24        25        44     9        0.000000        1.489642         1    ;  uncertainty k = 0.595508
        22        24        25        44     9      180.000000       -0.191425         2    ;  uncertainty k = 0.136241
        22        24        25        44     9        0.000000        0.111797         3    ;  uncertainty k = 0.096189
        22        24        25        44     9      180.000000        0.140722         4    ;  uncertainty k = 0.049493
        22        24        29        28     9        0.000000        0.224961         1    ;  uncertainty k = 0.687788
        22        24        29        28     9      180.000000        0.114129         2    ;  uncertainty k = 0.146198
        22        24        29        28     9        0.000000       -0.233453         3    ;  uncertainty k = 0.126504
        22        24        29        28     9      180.000000        0.299264         4    ;  uncertainty k = 0.131991
        22        24        29        49     9        0.000000        1.489642         1    ;  uncertainty k = 0.595508
        22        24        29        49     9      180.000000       -0.191425         2    ;  uncertainty k = 0.136241
        22        24        29        49     9        0.000000        0.111797         3    ;  uncertainty k = 0.096189
        22        24        29        49     9      180.000000        0.140722         4    ;  uncertainty k = 0.049493
        22        24        29        50     9        0.000000        1.489642         1    ;  uncertainty k = 0.595508
        22        24        29        50     9      180.000000       -0.191425         2    ;  uncertainty k = 0.136241
        22        24        29        50     9        0.000000        0.111797         3    ;  uncertainty k = 0.096189
        22        24        29        50     9      180.000000        0.140722         4    ;  uncertainty k = 0.049493
        23        22        20        39     9        0.000000       -1.193527         1    ;  uncertainty k = 0.618000
        23        22        20        39     9      180.000000        2.843837         2    ;  uncertainty k = 0.359543
        23        22        20        39     9        0.000000        0.832219         3    ;  uncertainty k = 0.209632
        23        22        20        39     9      180.000000        0.162966         4    ;  uncertainty k = 0.077189
        23        22        24        25     9        0.000000        6.603517         1    ;  uncertainty k = 0.334857
        23        22        24        25     9      180.000000       20.577585         2    ;  uncertainty k = 0.086866
        23        22        24        25     9        0.000000        0.266672         3    ;  uncertainty k = 0.142095
        23        22        24        25     9      180.000000       -1.495398         4    ;  uncertainty k = 0.102425
        23        22        24        29     9        0.000000        6.603517         1    ;  uncertainty k = 0.334857
        23        22        24        29     9      180.000000       20.577585         2    ;  uncertainty k = 0.086866
        23        22        24        29     9        0.000000        0.266672         3    ;  uncertainty k = 0.142095
        23        22        24        29     9      180.000000       -1.495398         4    ;  uncertainty k = 0.102425
        24        22        20        39     9        0.000000       -0.546567         1    ;  uncertainty k = 0.607387
        24        22        20        39     9      180.000000        2.439825         2    ;  uncertainty k = 0.362200
        24        22        20        39     9        0.000000        0.108278         3    ;  uncertainty k = 0.047116
        24        22        20        39     9      180.000000        0.170383         4    ;  uncertainty k = 0.050292
        24        25        26        27     9        0.000000        5.353992         1    ;  uncertainty k = 0.675529
        24        25        26        27     9      180.000000       -8.857338         2    ;  uncertainty k = 0.692100
        24        25        26        27     9        0.000000        3.059860         3    ;  uncertainty k = 0.495205
        24        25        26        27     9      180.000000       -0.099186         4    ;  uncertainty k = 0.227903
        24        25        26        45     9        0.000000        4.810866         1    ;  uncertainty k = 0.569234
        24        25        26        45     9      180.000000       -4.025620         2    ;  uncertainty k = 0.699778
        24        25        26        45     9        0.000000        0.136668         3    ;  uncertainty k = 0.307514
        24        25        26        45     9      180.000000        0.448548         4    ;  uncertainty k = 0.208534
        24        25        26        46     9        0.000000        4.810866         1    ;  uncertainty k = 0.569234
        24        25        26        46     9      180.000000       -4.025620         2    ;  uncertainty k = 0.699778
        24        25        26        46     9        0.000000        0.136668         3    ;  uncertainty k = 0.307514
        24        25        26        46     9      180.000000        0.448548         4    ;  uncertainty k = 0.208534
        24        29        28        27     9        0.000000        5.353992         1    ;  uncertainty k = 0.675529
        24        29        28        27     9      180.000000       -8.857338         2    ;  uncertainty k = 0.692100
        24        29        28        27     9        0.000000        3.059860         3    ;  uncertainty k = 0.495205
        24        29        28        27     9      180.000000       -0.099186         4    ;  uncertainty k = 0.227903
        24        29        28        47     9        0.000000        4.810866         1    ;  uncertainty k = 0.569234
        24        29        28        47     9      180.000000       -4.025620         2    ;  uncertainty k = 0.699778
        24        29        28        47     9        0.000000        0.136668         3    ;  uncertainty k = 0.307514
        24        29        28        47     9      180.000000        0.448548         4    ;  uncertainty k = 0.208534
        24        29        28        48     9        0.000000        4.810866         1    ;  uncertainty k = 0.569234
        24        29        28        48     9      180.000000       -4.025620         2    ;  uncertainty k = 0.699778
        24        29        28        48     9        0.000000        0.136668         3    ;  uncertainty k = 0.307514
        24        29        28        48     9      180.000000        0.448548         4    ;  uncertainty k = 0.208534
        25        24        29        28     9        0.000000       -5.632507         1    ;  uncertainty k = 1.372901
        25        24        29        28     9      180.000000        0.820042         2    ;  uncertainty k = 0.457968
        25        24        29        28     9        0.000000        1.551394         3    ;  uncertainty k = 0.353572
        25        24        29        28     9      180.000000       -0.465199         4    ;  uncertainty k = 0.242804
        25        24        29        49     9        0.000000       -5.630831         1    ;  uncertainty k = 1.116973
        25        24        29        49     9      180.000000        1.096405         2    ;  uncertainty k = 0.268716
        25        24        29        49     9        0.000000        1.209015         3    ;  uncertainty k = 0.133163
        25        24        29        49     9      180.000000       -0.230019         4    ;  uncertainty k = 0.154441
        25        24        29        50     9        0.000000       -5.630831         1    ;  uncertainty k = 1.116973
        25        24        29        50     9      180.000000        1.096405         2    ;  uncertainty k = 0.268716
        25        24        29        50     9        0.000000        1.209015         3    ;  uncertainty k = 0.133163
        25        24        29        50     9      180.000000       -0.230019         4    ;  uncertainty k = 0.154441
        25        26        27        28     9        0.000000       -4.283460         1    ;  uncertainty k = 1.346568
        25        26        27        28     9      180.000000        0.019562         2    ;  uncertainty k = 1.048764
        25        26        27        28     9        0.000000        0.786756         3    ;  uncertainty k = 0.331644
        25        26        27        28     9      180.000000       -0.317148         4    ;  uncertainty k = 0.268089
        26        25        24        29     9        0.000000       -5.632507         1    ;  uncertainty k = 1.372901
        26        25        24        29     9      180.000000        0.820042         2    ;  uncertainty k = 0.457968
        26        25        24        29     9        0.000000        1.551394         3    ;  uncertainty k = 0.353572
        26        25        24        29     9      180.000000       -0.465199         4    ;  uncertainty k = 0.242804
        26        27        28        29     9        0.000000       -4.283460         1    ;  uncertainty k = 1.346568
        26        27        28        29     9      180.000000        0.019562         2    ;  uncertainty k = 1.048764
        26        27        28        29     9        0.000000        0.786756         3    ;  uncertainty k = 0.331644
        26        27        28        29     9      180.000000       -0.317148         4    ;  uncertainty k = 0.268089
        26        27        28        47     9        0.000000       -5.824736         1    ;  uncertainty k = 1.874994
        26        27        28        47     9      180.000000        0.612519         2    ;  uncertainty k = 0.237167
        26        27        28        47     9        0.000000        0.759446         3    ;  uncertainty k = 0.174537
        26        27        28        47     9      180.000000       -0.645283         4    ;  uncertainty k = 0.153493
        26        27        28        48     9        0.000000       -5.824736         1    ;  uncertainty k = 1.874994
        26        27        28        48     9      180.000000        0.612519         2    ;  uncertainty k = 0.237167
        26        27        28        48     9        0.000000        0.759446         3    ;  uncertainty k = 0.174537
        26        27        28        48     9      180.000000       -0.645283         4    ;  uncertainty k = 0.153493
        27        26        25        43     9        0.000000        0.912216         1    ;  uncertainty k = 0.334790
        27        26        25        43     9      180.000000       -0.812586         2    ;  uncertainty k = 0.665020
        27        26        25        43     9        0.000000        1.061498         3    ;  uncertainty k = 0.198448
        27        26        25        43     9      180.000000        0.211215         4    ;  uncertainty k = 0.255400
        27        26        25        44     9        0.000000        0.912216         1    ;  uncertainty k = 0.334790
        27        26        25        44     9      180.000000       -0.812586         2    ;  uncertainty k = 0.665020
        27        26        25        44     9        0.000000        1.061498         3    ;  uncertainty k = 0.198448
        27        26        25        44     9      180.000000        0.211215         4    ;  uncertainty k = 0.255400
        27        28        29        49     9        0.000000        0.912216         1    ;  uncertainty k = 0.334790
        27        28        29        49     9      180.000000       -0.812586         2    ;  uncertainty k = 0.665020
        27        28        29        49     9        0.000000        1.061498         3    ;  uncertainty k = 0.198448
        27        28        29        49     9      180.000000        0.211215         4    ;  uncertainty k = 0.255400
        27        28        29        50     9        0.000000        0.912216         1    ;  uncertainty k = 0.334790
        27        28        29        50     9      180.000000       -0.812586         2    ;  uncertainty k = 0.665020
        27        28        29        50     9        0.000000        1.061498         3    ;  uncertainty k = 0.198448
        27        28        29        50     9      180.000000        0.211215         4    ;  uncertainty k = 0.255400
        28        27        26        45     9        0.000000       -5.824736         1    ;  uncertainty k = 1.874994
        28        27        26        45     9      180.000000        0.612519         2    ;  uncertainty k = 0.237167
        28        27        26        45     9        0.000000        0.759446         3    ;  uncertainty k = 0.174537
        28        27        26        45     9      180.000000       -0.645283         4    ;  uncertainty k = 0.153493
        28        27        26        46     9        0.000000       -5.824736         1    ;  uncertainty k = 1.874994
        28        27        26        46     9      180.000000        0.612519         2    ;  uncertainty k = 0.237167
        28        27        26        46     9        0.000000        0.759446         3    ;  uncertainty k = 0.174537
        28        27        26        46     9      180.000000       -0.645283         4    ;  uncertainty k = 0.153493
        29        24        25        43     9        0.000000       -5.630831         1    ;  uncertainty k = 1.116973
        29        24        25        43     9      180.000000        1.096405         2    ;  uncertainty k = 0.268716
        29        24        25        43     9        0.000000        1.209015         3    ;  uncertainty k = 0.133163
        29        24        25        43     9      180.000000       -0.230019         4    ;  uncertainty k = 0.154441
        29        24        25        44     9        0.000000       -5.630831         1    ;  uncertainty k = 1.116973
        29        24        25        44     9      180.000000        1.096405         2    ;  uncertainty k = 0.268716
        29        24        25        44     9        0.000000        1.209015         3    ;  uncertainty k = 0.133163
        29        24        25        44     9      180.000000       -0.230019         4    ;  uncertainty k = 0.154441
        31         7         8        32     9        0.000000       -0.173130         1    ;  uncertainty k = 0.247508
        31         7         8        32     9      180.000000        8.214720         2    ;  uncertainty k = 0.410482
        31         7         8        32     9        0.000000       -0.262124         3    ;  uncertainty k = 0.411095
        31         7         8        32     9      180.000000        0.143248         4    ;  uncertainty k = 0.225524
        33        13        14        34     9        0.000000        4.345244         1    ;  uncertainty k = 1.216546
        33        13        14        34     9      180.000000       -2.461431         2    ;  uncertainty k = 0.501511
        33        13        14        34     9        0.000000        0.266842         3    ;  uncertainty k = 0.221333
        33        13        14        34     9      180.000000        0.136959         4    ;  uncertainty k = 0.122236
        34        14        15        35     9        0.000000        0.650807         1    ;  uncertainty k = 0.242049
        34        14        15        35     9      180.000000       -0.603199         2    ;  uncertainty k = 0.142605
        34        14        15        35     9        0.000000        0.567622         3    ;  uncertainty k = 0.099350
        34        14        15        35     9      180.000000        0.058597         4    ;  uncertainty k = 0.065547
        34        14        15        36     9        0.000000        0.650807         1    ;  uncertainty k = 0.242049
        34        14        15        36     9      180.000000       -0.603199         2    ;  uncertainty k = 0.142605
        34        14        15        36     9        0.000000        0.567622         3    ;  uncertainty k = 0.099350
        34        14        15        36     9      180.000000        0.058597         4    ;  uncertainty k = 0.065547
        35        15        16        37     9        0.000000        0.823414         1    ;  uncertainty k = 0.215557
        35        15        16        37     9      180.000000       -0.170976         2    ;  uncertainty k = 0.266678
        35        15        16        37     9        0.000000        0.469348         3    ;  uncertainty k = 0.038030
        35        15        16        37     9      180.000000        0.043270         4    ;  uncertainty k = 0.022809
        35        15        16        38     9        0.000000        0.823414         1    ;  uncertainty k = 0.215557
        35        15        16        38     9      180.000000       -0.170976         2    ;  uncertainty k = 0.266678
        35        15        16        38     9        0.000000        0.469348         3    ;  uncertainty k = 0.038030
        35        15        16        38     9      180.000000        0.043270         4    ;  uncertainty k = 0.022809
        36        15        16        37     9        0.000000        0.823414         1    ;  uncertainty k = 0.215557
        36        15        16        37     9      180.000000       -0.170976         2    ;  uncertainty k = 0.266678
        36        15        16        37     9        0.000000        0.469348         3    ;  uncertainty k = 0.038030
        36        15        16        37     9      180.000000        0.043270         4    ;  uncertainty k = 0.022809
        36        15        16        38     9        0.000000        0.823414         1    ;  uncertainty k = 0.215557
        36        15        16        38     9      180.000000       -0.170976         2    ;  uncertainty k = 0.266678
        36        15        16        38     9        0.000000        0.469348         3    ;  uncertainty k = 0.038030
        36        15        16        38     9      180.000000        0.043270         4    ;  uncertainty k = 0.022809
        39        20        21        40     9        0.000000        0.143668         1    ;  uncertainty k = 0.287689
        39        20        21        40     9      180.000000       -0.308389         2    ;  uncertainty k = 0.120561
        39        20        21        40     9        0.000000        0.423570         3    ;  uncertainty k = 0.126378
        39        20        21        40     9      180.000000       -0.021121         4    ;  uncertainty k = 0.092887
        39        20        21        41     9        0.000000        0.143668         1    ;  uncertainty k = 0.287689
        39        20        21        41     9      180.000000       -0.308389         2    ;  uncertainty k = 0.120561
        39        20        21        41     9        0.000000        0.423570         3    ;  uncertainty k = 0.126378
        39        20        21        41     9      180.000000       -0.021121         4    ;  uncertainty k = 0.092887
        39        20        21        42     9        0.000000        0.143668         1    ;  uncertainty k = 0.287689
        39        20        21        42     9      180.000000       -0.308389         2    ;  uncertainty k = 0.120561
        39        20        21        42     9        0.000000        0.423570         3    ;  uncertainty k = 0.126378
        39        20        21        42     9      180.000000       -0.021121         4    ;  uncertainty k = 0.092887
        43        25        26        45     9        0.000000       -2.278074         1    ;  uncertainty k = 1.043178
        43        25        26        45     9      180.000000        1.532748         2    ;  uncertainty k = 0.718723
        43        25        26        45     9        0.000000       -0.092826         3    ;  uncertainty k = 0.085920
        43        25        26        45     9      180.000000       -0.789690         4    ;  uncertainty k = 0.177408
        43        25        26        46     9        0.000000       -2.278074         1    ;  uncertainty k = 1.043178
        43        25        26        46     9      180.000000        1.532748         2    ;  uncertainty k = 0.718723
        43        25        26        46     9        0.000000       -0.092826         3    ;  uncertainty k = 0.085920
        43        25        26        46     9      180.000000       -0.789690         4    ;  uncertainty k = 0.177408
        44        25        26        45     9        0.000000       -2.278074         1    ;  uncertainty k = 1.043178
        44        25        26        45     9      180.000000        1.532748         2    ;  uncertainty k = 0.718723
        44        25        26        45     9        0.000000       -0.092826         3    ;  uncertainty k = 0.085920
        44        25        26        45     9      180.000000       -0.789690         4    ;  uncertainty k = 0.177408
        44        25        26        46     9        0.000000       -2.278074         1    ;  uncertainty k = 1.043178
        44        25        26        46     9      180.000000        1.532748         2    ;  uncertainty k = 0.718723
        44        25        26        46     9        0.000000       -0.092826         3    ;  uncertainty k = 0.085920
        44        25        26        46     9      180.000000       -0.789690         4    ;  uncertainty k = 0.177408
        47        28        29        49     9        0.000000       -2.278074         1    ;  uncertainty k = 1.043178
        47        28        29        49     9      180.000000        1.532748         2    ;  uncertainty k = 0.718723
        47        28        29        49     9        0.000000       -0.092826         3    ;  uncertainty k = 0.085920
        47        28        29        49     9      180.000000       -0.789690         4    ;  uncertainty k = 0.177408
        47        28        29        50     9        0.000000       -2.278074         1    ;  uncertainty k = 1.043178
        47        28        29        50     9      180.000000        1.532748         2    ;  uncertainty k = 0.718723
        47        28        29        50     9        0.000000       -0.092826         3    ;  uncertainty k = 0.085920
        47        28        29        50     9      180.000000       -0.789690         4    ;  uncertainty k = 0.177408
        48        28        29        49     9        0.000000       -2.278074         1    ;  uncertainty k = 1.043178
        48        28        29        49     9      180.000000        1.532748         2    ;  uncertainty k = 0.718723
        48        28        29        49     9        0.000000       -0.092826         3    ;  uncertainty k = 0.085920
        48        28        29        49     9      180.000000       -0.789690         4    ;  uncertainty k = 0.177408
        48        28        29        50     9        0.000000       -2.278074         1    ;  uncertainty k = 1.043178
        48        28        29        50     9      180.000000        1.532748         2    ;  uncertainty k = 0.718723
        48        28        29        50     9        0.000000       -0.092826         3    ;  uncertainty k = 0.085920
        48        28        29        50     9      180.000000       -0.789690         4    ;  uncertainty k = 0.177408

[ dihedrals ] ; impropers
;       ai        aj        ak        al funct           phase               k        pn
         2         1         3         8     4      180.000000       23.048295         2    ;  uncertainty k = 0.038004
         2         3         8         1     4      180.000000       23.048295         2    ;  uncertainty k = 0.038004
         2         8         1         3     4      180.000000       23.048295         2    ;  uncertainty k = 0.038004
         4         3         5        30     4      180.000000        8.341725         2    ;  uncertainty k = 0.314269
         4         5        30         3     4      180.000000        8.341725         2    ;  uncertainty k = 0.314269
         4        30         3         5     4      180.000000        8.341725         2    ;  uncertainty k = 0.314269
         5         4         6         7     4      180.000000        0.947249         2    ;  uncertainty k = 0.892951
         5         6         7         4     4      180.000000        0.947249         2    ;  uncertainty k = 0.892951
         5         7         4         6     4      180.000000        0.947249         2    ;  uncertainty k = 0.892951
         7         5         8        31     4      180.000000        6.596457         2    ;  uncertainty k = 0.091812
         7         8        31         5     4      180.000000        6.596457         2    ;  uncertainty k = 0.091812
         7        31         5         8     4      180.000000        6.596457         2    ;  uncertainty k = 0.091812
         8         2         7        32     4      180.000000        2.417266         2    ;  uncertainty k = 0.190105
         8         7        32         2     4      180.000000        2.417266         2    ;  uncertainty k = 0.190105
         8        32         2         7     4      180.000000        2.417266         2    ;  uncertainty k = 0.190105
         9         6        10        30     4      180.000000        2.099822         2    ;  uncertainty k = 0.712343
         9        10        30         6     4      180.000000        2.099822         2    ;  uncertainty k = 0.712343
         9        30         6        10     4      180.000000        2.099822         2    ;  uncertainty k = 0.712343
        17        14        18        19     4      180.000000       48.908342         2    ;  uncertainty k = 0.034977
        17        18        19        14     4      180.000000       48.908342         2    ;  uncertainty k = 0.034977
        17        19        14        18     4      180.000000       48.908342         2    ;  uncertainty k = 0.034977
        22        20        23        24     4      180.000000       50.108480         2    ;  uncertainty k = 0.051863
        22        23        24        20     4      180.000000       50.108480         2    ;  uncertainty k = 0.051863
        22        24        20        23     4      180.000000       50.108480         2    ;  uncertainty k = 0.051863
        30         4         9        51     4      180.000000        2.803707         2    ;  uncertainty k = 0.386918
        30         9        51         4     4      180.000000        2.803707         2    ;  uncertainty k = 0.386918
        30        51         4         9     4      180.000000        2.803707         2    ;  uncertainty k = 0.386918

[ pairs ]
;       ai        aj funct
         1         4     1
         1         7     1
         1        32     1
         2         5     1
         2        30     1
         2        31     1
         3         6     1
         3         7     1
         3         9     1
         3        32     1
         3        51     1
         4         8     1
         4        10     1
         4        31     1
         5        10     1
         5        32     1
         5        51     1
         6         8     1
         6        11     1
         6        12     1
         6        13     1
         6        31     1
         6        51     1
         7         9     1
         7        30     1
         9        14     1
         9        33     1
        10        15     1
        10        17     1
        10        34     1
        10        51     1
        11        14     1
        11        30     1
        11        33     1
        12        14     1
        12        30     1
        12        33     1
        13        16     1
        13        18     1
        13        19     1
        13        30     1
        13        35     1
        13        36     1
        14        20     1
        14        37     1
        14        38     1
        15        18     1
        15        20     1
        15        33     1
        16        18     1
        16        21     1
        16        22     1
        16        34     1
        16        39     1
        17        21     1
        17        22     1
        17        33     1
        17        35     1
        17        36     1
        17        37     1
        17        38     1
        17        39     1
        18        20     1
        18        34     1
        19        23     1
        19        24     1
        19        34     1
        19        35     1
        19        36     1
        19        40     1
        19        41     1
        19        42     1
        20        25     1
        20        29     1
        20        37     1
        20        38     1
        21        23     1
        21        24     1
        22        26     1
        22        28     1
        22        40     1
        22        41     1
        22        42     1
        22        43     1
        22        44     1
        22        49     1
        22        50     1
        23        25     1
        23        29     1
        23        39     1
        24        27     1
        24        39     1
        24        45     1
        24        46     1
        24        47     1
        24        48     1
        25        28     1
        25        49     1
        25        50     1
        26        29     1
        26        47     1
        26        48     1
        27        43     1
        27        44     1
        27        49     1
        27        50     1
        28        45     1
        28        46     1
        29        43     1
        29        44     1
        31        32     1
        33        34     1
        34        35     1
        34        36     1
        35        37     1
        35        38     1
        36        37     1
        36        38     1
        39        40     1
        39        41     1
        39        42     1
        43        45     1
        43        46     1
        44        45     1
        44        46     1
        47        49     1
        47        50     1
        48        49     1
        48        50     1
