; ITP file created by ByteFF-ML, 2026-02-21 08:23:38.649214

[ atomtypes ]
;name           bonded.type        at.num        mass        charge   ptype           sigma         epsilon
 s0bf                                  16      0.0000       0.00000       A     3.53064e-01     1.17901e+00
 c1bf                                   6      0.0000       0.00000       A     3.31755e-01     4.09816e-01
 c2bf                                   6      0.0000       0.00000       A     3.31349e-01     4.08441e-01
 c3bf                                   6      0.0000       0.00000       A     3.31198e-01     4.12218e-01
 c4bf                                   6      0.0000       0.00000       A     3.31630e-01     4.13561e-01
 c5bf                                   6      0.0000       0.00000       A     3.31455e-01     4.10610e-01
 o6bf                                   8      0.0000       0.00000       A     3.05104e-01     6.09960e-01
 o7bf                                   8      0.0000       0.00000       A     3.05104e-01     6.09960e-01
 c8bf                                   6      0.0000       0.00000       A     3.31402e-01     4.09911e-01
 c9bf                                   6      0.0000       0.00000       A     3.31755e-01     4.13320e-01
 c10bf                                  6      0.0000       0.00000       A     3.31500e-01     4.12118e-01
 c11bf                                  6      0.0000       0.00000       A     3.31497e-01     4.11971e-01
 c12bf                                  6      0.0000       0.00000       A     3.31502e-01     4.13345e-01
 c13bf                                  6      0.0000       0.00000       A     3.31465e-01     4.11762e-01
 br14bf                                35      0.0000       0.00000       A     3.61379e-01     1.65034e+00
 o15bf                                  8      0.0000       0.00000       A     3.15911e-01     3.03161e-01
 c16bf                                  6      0.0000       0.00000       A     3.39643e-01     4.49664e-01
 c17bf                                  6      0.0000       0.00000       A     3.31634e-01     4.10394e-01
 o18bf                                  8      0.0000       0.00000       A     3.04741e-01     6.09601e-01
 o19bf                                  8      0.0000       0.00000       A     3.04741e-01     6.09601e-01
 n20bf                                  7      0.0000       0.00000       A     3.27954e-01     6.46057e-01
 c21bf                                  6      0.0000       0.00000       A     3.39769e-01     4.49986e-01
 h22bf                                  1      0.0000       0.00000       A     2.62340e-01     6.80229e-02
 h23bf                                  1      0.0000       0.00000       A     2.62479e-01     6.72791e-02
 h24bf                                  1      0.0000       0.00000       A     2.62530e-01     6.75680e-02
 h25bf                                  1      0.0000       0.00000       A     2.62513e-01     6.75409e-02
 h26bf                                  1      0.0000       0.00000       A     2.41481e-01     8.75971e-02
 h27bf                                  1      0.0000       0.00000       A     2.41481e-01     8.75971e-02
 h28bf                                  1      0.0000       0.00000       A     1.10625e-01     3.98012e-02
 h29bf                                  1      0.0000       0.00000       A     2.41990e-01     8.72507e-02
 h30bf                                  1      0.0000       0.00000       A     2.41990e-01     8.72507e-02
 c31bf                                  6      0.0000       0.00000       A     3.31497e-01     4.12822e-01
 c32bf                                  6      0.0000       0.00000       A     3.31504e-01     4.13288e-01
 c33bf                                  6      0.0000       0.00000       A     3.31538e-01     4.13189e-01
 c34bf                                  6      0.0000       0.00000       A     3.31412e-01     4.12298e-01
 c35bf                                  6      0.0000       0.00000       A     3.31538e-01     4.13189e-01
 c36bf                                  6      0.0000       0.00000       A     3.31504e-01     4.13288e-01
 h37bf                                  1      0.0000       0.00000       A     2.62457e-01     6.73477e-02
 h38bf                                  1      0.0000       0.00000       A     2.62458e-01     6.72983e-02
 h39bf                                  1      0.0000       0.00000       A     2.62506e-01     6.76558e-02
 h40bf                                  1      0.0000       0.00000       A     2.62506e-01     6.76558e-02
 h41bf                                  1      0.0000       0.00000       A     2.62458e-01     6.72983e-02

[ moleculetype ]
;name             nrexcl
 20669                 3

[ atoms ]
;       nr            type      resi   res      atom      cgnr      charge          mass ; qtot
         1            s0bf         1   UNL        s0         1     0.19677       32.0670 ; qtot    0.197
         2            c1bf         1   UNL        c1         2    -0.26026       12.0110 ; qtot   -0.063
         3            c2bf         1   UNL        c2         3     0.11437       12.0110 ; qtot    0.051
         4            c3bf         1   UNL        c3         4    -0.05837       12.0110 ; qtot   -0.007
         5            c4bf         1   UNL        c4         5    -0.16762       12.0110 ; qtot   -0.175
         6            c5bf         1   UNL        c5         6     0.72713       12.0110 ; qtot    0.552
         7            o6bf         1   UNL        o6         7    -0.72308       15.9990 ; qtot   -0.171
         8            o7bf         1   UNL        o7         8    -0.72308       15.9990 ; qtot   -0.894
         9            c8bf         1   UNL        c8         9     0.01550       12.0110 ; qtot   -0.879
        10            c9bf         1   UNL        c9        10    -0.15594       12.0110 ; qtot   -1.035
        11           c10bf         1   UNL       c10        11     0.29223       12.0110 ; qtot   -0.742
        12           c11bf         1   UNL       c11        12    -0.17224       12.0110 ; qtot   -0.915
        13           c12bf         1   UNL       c12        13    -0.07520       12.0110 ; qtot   -0.990
        14           c13bf         1   UNL       c13        14    -0.11953       12.0110 ; qtot   -1.109
        15          br14bf         1   UNL      br14        15    -0.08621       79.9040 ; qtot   -1.196
        16           o15bf         1   UNL       o15        16    -0.35606       15.9990 ; qtot   -1.552
        17           c16bf         1   UNL       c16        17    -0.01490       12.0110 ; qtot   -1.566
        18           c17bf         1   UNL       c17        18     0.70991       12.0110 ; qtot   -0.857
        19           o18bf         1   UNL       o18        19    -0.73348       15.9990 ; qtot   -1.590
        20           o19bf         1   UNL       o19        20    -0.73348       15.9990 ; qtot   -2.324
        21           n20bf         1   UNL       n20        21    -0.93144       14.0070 ; qtot   -3.255
        22           c21bf         1   UNL       c21        22     0.24608       12.0110 ; qtot   -3.009
        23           h22bf         1   UNL       h22        23     0.11833        1.0080 ; qtot   -2.891
        24           h23bf         1   UNL       h23        24     0.11656        1.0080 ; qtot   -2.774
        25           h24bf         1   UNL       h24        25     0.11469        1.0080 ; qtot   -2.659
        26           h25bf         1   UNL       h25        26     0.12297        1.0080 ; qtot   -2.536
        27           h26bf         1   UNL       h26        27     0.02487        1.0080 ; qtot   -2.511
        28           h27bf         1   UNL       h27        28     0.02487        1.0080 ; qtot   -2.487
        29           h28bf         1   UNL       h28        29     0.45578        1.0080 ; qtot   -2.031
        30           h29bf         1   UNL       h29        30     0.05084        1.0080 ; qtot   -1.980
        31           h30bf         1   UNL       h30        31     0.05084        1.0080 ; qtot   -1.929
        32           c31bf         1   UNL       c31        32    -0.10570       12.0110 ; qtot   -2.035
        33           c32bf         1   UNL       c32        33    -0.11562       12.0110 ; qtot   -2.150
        34           c33bf         1   UNL       c33        34    -0.09670       12.0110 ; qtot   -2.247
        35           c34bf         1   UNL       c34        35    -0.11939       12.0110 ; qtot   -2.367
        36           c35bf         1   UNL       c35        36    -0.09670       12.0110 ; qtot   -2.463
        37           c36bf         1   UNL       c36        37    -0.11562       12.0110 ; qtot   -2.579
        38           h37bf         1   UNL       h37        38     0.11320        1.0080 ; qtot   -2.466
        39           h38bf         1   UNL       h38        39     0.11455        1.0080 ; qtot   -2.351
        40           h39bf         1   UNL       h39        40     0.11830        1.0080 ; qtot   -2.233
        41           h40bf         1   UNL       h40        41     0.11830        1.0080 ; qtot   -2.115
        42           h41bf         1   UNL       h41        42     0.11453        1.0080 ; qtot   -2.000

[ bonds ]
;       ai        aj funct               r               k
         1         2     1        0.174464   145572.874683
         1         5     1        0.175012   149020.499365
         2         3     1        0.138277   335024.121436
         2         6     1        0.154034   112597.124561
         3         4     1        0.143994   223875.334033
         3        16     1        0.134833   300010.369531
         4         5     1        0.138169   338414.734521
         4        15     1        0.190996   130541.361816
         5         9     1        0.147093   228535.907568
         6         7     1        0.125984   484107.493164
         6         8     1        0.125984   484107.493164
         9        10     1        0.140368   291683.535352
         9        14     1        0.140552   287864.358496
        10        11     1        0.140680   282559.739063
        10        23     1        0.108452   320626.324707
        11        12     1        0.140930   278303.775488
        11        21     1        0.139759   276242.956299
        12        13     1        0.139558   317940.842285
        12        24     1        0.108553   319384.276318
        13        14     1        0.139596   315210.286865
        13        25     1        0.108664   317947.788379
        14        26     1        0.108491   321875.217041
        16        17     1        0.145852   151865.231201
        17        18     1        0.156538   116742.448608
        17        27     1        0.109566   293138.384473
        17        28     1        0.109566   293138.384473
        18        19     1        0.126057   487285.433203
        18        20     1        0.126057   487285.433203
        21        22     1        0.146192   206367.832422
        21        29     1        0.101298   411541.268701
        22        30     1        0.109678   287884.098682
        22        31     1        0.109678   287884.098682
        22        35     1        0.151564   193934.426758
        32        33     1        0.139942   306485.456836
        32        37     1        0.139942   306485.456836
        32        38     1        0.108629   319751.295654
        33        34     1        0.139852   310312.601270
        33        39     1        0.108641   319172.548145
        34        35     1        0.140220   290522.618359
        34        40     1        0.108676   316958.889355
        35        36     1        0.140220   290522.618359
        36        37     1        0.139852   310312.601270
        36        41     1        0.108676   316958.889355
        37        42     1        0.108641   319172.548145

[ angles ]
;       ai        aj        ak funct           theta             cth
         1         2         3     1      110.160385      167.360000
         1         2         6     1      115.033363      592.691984
         1         5         4     1      108.982101      167.360000
         1         5         9     1      120.229660      422.331023
         2         1         5     1       93.195396      186.526063
         2         3         4     1      112.155884      382.616764
         2         3        16     1      126.134293      420.691381
         2         6         7     1      114.627625      339.029323
         2         6         8     1      114.627625      339.029323
         3         2         6     1      134.051437      467.327122
         3         4         5     1      114.634010      370.337213
         3         4        15     1      121.312027      306.426064
         3        16        17     1      117.821022      473.127047
         4         3        16     1      120.298485      422.691671
         4         5         9     1      130.790405      405.315902
         5         4        15     1      123.746353      284.291870
         5         9        10     1      119.996681      401.757179
         5         9        14     1      120.656311      465.974518
         7         6         8     1      130.398407      705.552920
         9        10        11     1      121.170738      753.559238
         9        10        23     1      119.087486      432.148860
         9        14        13     1      119.529007      676.945420
         9        14        26     1      119.963768      443.762787
        10         9        14     1      119.418701      617.709286
        10        11        12     1      118.531532      639.692396
        10        11        21     1      120.398819      534.899431
        11        10        23     1      119.612244      424.934116
        11        12        13     1      120.079506      765.519671
        11        12        24     1      120.131790      429.381053
        11        21        22     1      120.935219      525.096277
        11        21        29     1      113.352219      488.964236
        12        11        21     1      120.940857      589.867261
        12        13        14     1      121.070473      689.634938
        12        13        25     1      119.189613      429.598214
        13        12        24     1      119.833023      428.547011
        13        14        26     1      120.315689      428.479178
        14        13        25     1      119.607445      437.399003
        16        17        18     1      113.930588      533.838045
        16        17        27     1      107.778183      447.857886
        16        17        28     1      107.778183      447.857886
        17        18        19     1      114.982224      326.587708
        17        18        20     1      114.982224      326.587708
        18        17        27     1      109.132095      476.479910
        18        17        28     1      109.132095      476.479910
        19        18        20     1      130.064850      720.626454
        21        22        30     1      109.603172      455.230481
        21        22        31     1      109.603172      455.230481
        21        22        35     1      111.671242      541.191615
        22        21        29     1      112.943321      464.465817
        22        35        34     1      120.526352      507.064493
        22        35        36     1      120.526352      507.064493
        27        17        28     1      108.416725      344.620386
        30        22        31     1      106.571640      357.614178
        30        22        35     1      109.597496      481.432226
        31        22        35     1      109.597496      481.432226
        32        33        34     1      120.117111      708.703625
        32        33        39     1      120.073936      427.455906
        32        37        36     1      120.117111      708.703625
        32        37        42     1      120.073936      427.455906
        33        32        37     1      119.655594      698.411531
        33        32        38     1      120.190224      430.715941
        33        34        35     1      120.603012      708.352043
        33        34        40     1      119.971359      429.047187
        34        33        39     1      119.850952      429.646607
        34        35        36     1      118.844093      712.796457
        35        34        40     1      119.500870      390.591524
        35        36        37     1      120.603004      708.352043
        35        36        41     1      119.500870      390.591524
        36        37        42     1      119.850937      429.646607
        37        32        38     1      120.190224      430.715941
        37        36        41     1      119.971359      429.047187

[ dihedrals ] ; propers for gromacs 4.5 or higher, use funct 9
;       ai        aj        ak        al funct           phase               k        pn
         1         2         3         4     9        0.000000       -0.157449         1
         1         2         3         4     9      180.000000       23.193074         2
         1         2         3         4     9        0.000000       -4.968979         3
         1         2         3         4     9      180.000000       -0.609654         4
         1         2         3        16     9        0.000000        0.970784         1
         1         2         3        16     9      180.000000       21.885524         2
         1         2         3        16     9        0.000000        0.406670         3
         1         2         3        16     9      180.000000       -1.347848         4
         1         2         6         7     9        0.000000        1.117411         1
         1         2         6         7     9      180.000000        4.117929         2
         1         2         6         7     9        0.000000        0.067199         3
         1         2         6         7     9      180.000000        0.180393         4
         1         2         6         8     9        0.000000        1.117411         1
         1         2         6         8     9      180.000000        4.117929         2
         1         2         6         8     9        0.000000        0.067199         3
         1         2         6         8     9      180.000000        0.180393         4
         1         5         4         3     9        0.000000       -0.306829         1
         1         5         4         3     9      180.000000       24.522085         2
         1         5         4         3     9        0.000000       -5.964297         3
         1         5         4         3     9      180.000000       -0.599844         4
         1         5         4        15     9        0.000000        0.499553         1
         1         5         4        15     9      180.000000       17.380840         2
         1         5         4        15     9        0.000000        0.197540         3
         1         5         4        15     9      180.000000       -1.066303         4
         1         5         9        10     9        0.000000       -0.423555         1
         1         5         9        10     9      180.000000        3.261855         2
         1         5         9        10     9        0.000000       -0.043011         3
         1         5         9        10     9      180.000000        0.304127         4
         1         5         9        14     9        0.000000       -0.241015         1
         1         5         9        14     9      180.000000        3.130459         2
         1         5         9        14     9        0.000000        0.160234         3
         1         5         9        14     9      180.000000        0.213160         4
         2         1         5         4     9        0.000000       -0.388546         1
         2         1         5         4     9      180.000000       24.242164         2
         2         1         5         4     9        0.000000       -5.021316         3
         2         1         5         4     9      180.000000       -0.471890         4
         2         1         5         9     9        0.000000       -0.228997         1
         2         1         5         9     9      180.000000       15.260397         2
         2         1         5         9     9        0.000000        0.261989         3
         2         1         5         9     9      180.000000       -0.613219         4
         2         3         4         5     9        0.000000       -0.251748         1
         2         3         4         5     9      180.000000       14.214229         2
         2         3         4         5     9        0.000000       -2.698729         3
         2         3         4         5     9      180.000000       -0.310431         4
         2         3         4        15     9        0.000000        0.248323         1
         2         3         4        15     9      180.000000       11.562275         2
         2         3         4        15     9        0.000000        0.148422         3
         2         3         4        15     9      180.000000       -0.630060         4
         2         3        16        17     9        0.000000        0.701674         1
         2         3        16        17     9      180.000000        2.973538         2
         2         3        16        17     9        0.000000        0.307642         3
         2         3        16        17     9      180.000000       -0.218272         4
         3         2         1         5     9        0.000000       -0.083281         1
         3         2         1         5     9      180.000000       22.870917         2
         3         2         1         5     9        0.000000       -3.551991         3
         3         2         1         5     9      180.000000       -0.695859         4
         3         2         6         7     9        0.000000       -5.137617         1
         3         2         6         7     9      180.000000        2.933940         2
         3         2         6         7     9        0.000000        0.193554         3
         3         2         6         7     9      180.000000       -0.187922         4
         3         2         6         8     9        0.000000       -5.137617         1
         3         2         6         8     9      180.000000        2.933940         2
         3         2         6         8     9        0.000000        0.193554         3
         3         2         6         8     9      180.000000       -0.187922         4
         3         4         5         9     9        0.000000        0.184932         1
         3         4         5         9     9      180.000000       16.360751         2
         3         4         5         9     9        0.000000       -0.408970         3
         3         4         5         9     9      180.000000       -1.038577         4
         3        16        17        18     9        0.000000       -4.760844         1
         3        16        17        18     9      180.000000       -1.857167         2
         3        16        17        18     9        0.000000        0.352751         3
         3        16        17        18     9      180.000000        0.004621         4
         3        16        17        27     9        0.000000       -0.294822         1
         3        16        17        27     9      180.000000       -0.281191         2
         3        16        17        27     9        0.000000        0.570610         3
         3        16        17        27     9      180.000000        0.007077         4
         3        16        17        28     9        0.000000       -0.294822         1
         3        16        17        28     9      180.000000       -0.281191         2
         3        16        17        28     9        0.000000        0.570610         3
         3        16        17        28     9      180.000000        0.007077         4
         4         3         2         6     9        0.000000       -0.190053         1
         4         3         2         6     9      180.000000       11.755029         2
         4         3         2         6     9        0.000000       -0.719247         3
         4         3         2         6     9      180.000000       -0.502059         4
         4         3        16        17     9        0.000000        2.857399         1
         4         3        16        17     9      180.000000        2.426502         2
         4         3        16        17     9        0.000000        0.581872         3
         4         3        16        17     9      180.000000       -0.192707         4
         4         5         9        10     9        0.000000       -0.318292         1
         4         5         9        10     9      180.000000        2.274566         2
         4         5         9        10     9        0.000000       -0.080423         3
         4         5         9        10     9      180.000000        0.028439         4
         4         5         9        14     9        0.000000        0.340147         1
         4         5         9        14     9      180.000000        2.094118         2
         4         5         9        14     9        0.000000       -0.054086         3
         4         5         9        14     9      180.000000        0.037100         4
         5         1         2         6     9        0.000000        0.985272         1
         5         1         2         6     9      180.000000       10.250466         2
         5         1         2         6     9        0.000000       -0.288305         3
         5         1         2         6     9      180.000000        0.044596         4
         5         4         3        16     9        0.000000        0.518482         1
         5         4         3        16     9      180.000000       12.721722         2
         5         4         3        16     9        0.000000        0.352406         3
         5         4         3        16     9      180.000000       -0.184802         4
         5         9        10        11     9        0.000000        0.357723         1
         5         9        10        11     9      180.000000       15.845064         2
         5         9        10        11     9        0.000000        0.027368         3
         5         9        10        11     9      180.000000       -0.411363         4
         5         9        10        23     9        0.000000        0.050846         1
         5         9        10        23     9      180.000000       13.017847         2
         5         9        10        23     9        0.000000       -0.152540         3
         5         9        10        23     9      180.000000        0.165593         4
         5         9        14        13     9        0.000000        0.323380         1
         5         9        14        13     9      180.000000       16.546331         2
         5         9        14        13     9        0.000000       -0.188607         3
         5         9        14        13     9      180.000000       -0.363240         4
         5         9        14        26     9        0.000000        0.105406         1
         5         9        14        26     9      180.000000       12.927510         2
         5         9        14        26     9        0.000000       -0.234453         3
         5         9        14        26     9      180.000000        0.179787         4
         6         2         3        16     9        0.000000        0.216703         1
         6         2         3        16     9      180.000000       15.170354         2
         6         2         3        16     9        0.000000        0.500829         3
         6         2         3        16     9      180.000000       -0.921398         4
         9         5         4        15     9        0.000000        0.443053         1
         9         5         4        15     9      180.000000       13.000813         2
         9         5         4        15     9        0.000000        0.559607         3
         9         5         4        15     9      180.000000       -0.488031         4
         9        10        11        12     9        0.000000       -0.000315         1
         9        10        11        12     9      180.000000       15.422882         2
         9        10        11        12     9        0.000000       -0.874585         3
         9        10        11        12     9      180.000000       -0.173073         4
         9        10        11        21     9        0.000000        0.238432         1
         9        10        11        21     9      180.000000       17.367842         2
         9        10        11        21     9        0.000000        0.274140         3
         9        10        11        21     9      180.000000       -0.541197         4
         9        14        13        12     9        0.000000        0.021717         1
         9        14        13        12     9      180.000000       19.178493         2
         9        14        13        12     9        0.000000       -1.583371         3
         9        14        13        12     9      180.000000       -0.449556         4
         9        14        13        25     9        0.000000       -0.025859         1
         9        14        13        25     9      180.000000       14.972083         2
         9        14        13        25     9        0.000000       -0.527875         3
         9        14        13        25     9      180.000000        0.059429         4
        10         9        14        13     9        0.000000       -0.114538         1
        10         9        14        13     9      180.000000       17.803691         2
        10         9        14        13     9        0.000000       -1.424598         3
        10         9        14        13     9      180.000000       -0.270562         4
        10         9        14        26     9        0.000000       -0.028706         1
        10         9        14        26     9      180.000000       13.576581         2
        10         9        14        26     9        0.000000       -0.487769         3
        10         9        14        26     9      180.000000        0.140387         4
        10        11        12        13     9        0.000000        0.083915         1
        10        11        12        13     9      180.000000       15.312633         2
        10        11        12        13     9        0.000000       -0.750126         3
        10        11        12        13     9      180.000000       -0.147233         4
        10        11        12        24     9        0.000000        0.078120         1
        10        11        12        24     9      180.000000       12.471035         2
        10        11        12        24     9        0.000000       -0.295739         3
        10        11        12        24     9      180.000000        0.114541         4
        10        11        21        22     9        0.000000       -0.697727         1
        10        11        21        22     9      180.000000        4.219825         2
        10        11        21        22     9        0.000000       -0.025173         3
        10        11        21        22     9      180.000000        0.074125         4
        10        11        21        29     9        0.000000        0.362705         1
        10        11        21        29     9      180.000000        5.001841         2
        10        11        21        29     9        0.000000        0.046792         3
        10        11        21        29     9      180.000000       -0.266869         4
        11        10         9        14     9        0.000000       -0.155517         1
        11        10         9        14     9      180.000000       17.770002         2
        11        10         9        14     9        0.000000       -1.622106         3
        11        10         9        14     9      180.000000       -0.404015         4
        11        12        13        14     9        0.000000       -0.014353         1
        11        12        13        14     9      180.000000       18.051285         2
        11        12        13        14     9        0.000000       -1.601423         3
        11        12        13        14     9      180.000000       -0.425739         4
        11        12        13        25     9        0.000000        0.012208         1
        11        12        13        25     9      180.000000       14.424456         2
        11        12        13        25     9        0.000000       -0.612308         3
        11        12        13        25     9      180.000000        0.040216         4
        11        21        22        30     9        0.000000       -0.420855         1
        11        21        22        30     9      180.000000        0.180177         2
        11        21        22        30     9        0.000000        1.191859         3
        11        21        22        30     9      180.000000       -0.052271         4
        11        21        22        31     9        0.000000       -0.420855         1
        11        21        22        31     9      180.000000        0.180177         2
        11        21        22        31     9        0.000000        1.191859         3
        11        21        22        31     9      180.000000       -0.052271         4
        11        21        22        35     9        0.000000        1.919787         1
        11        21        22        35     9      180.000000       -1.399372         2
        11        21        22        35     9        0.000000        1.123619         3
        11        21        22        35     9      180.000000        0.081721         4
        12        11        10        23     9        0.000000        0.100068         1
        12        11        10        23     9      180.000000       12.426094         2
        12        11        10        23     9        0.000000       -0.335853         3
        12        11        10        23     9      180.000000        0.168971         4
        12        11        21        22     9        0.000000       -0.432750         1
        12        11        21        22     9      180.000000        4.161164         2
        12        11        21        22     9        0.000000        0.127197         3
        12        11        21        22     9      180.000000       -0.005121         4
        12        11        21        29     9        0.000000       -0.082602         1
        12        11        21        29     9      180.000000        5.019632         2
        12        11        21        29     9        0.000000        0.060146         3
        12        11        21        29     9      180.000000       -0.276667         4
        12        13        14        26     9        0.000000        0.065853         1
        12        13        14        26     9      180.000000       14.534169         2
        12        13        14        26     9        0.000000       -0.692489         3
        12        13        14        26     9      180.000000        0.149810         4
        13        12        11        21     9        0.000000        0.282086         1
        13        12        11        21     9      180.000000       17.168305         2
        13        12        11        21     9        0.000000        0.216334         3
        13        12        11        21     9      180.000000       -0.251465         4
        14         9        10        23     9        0.000000        0.092070         1
        14         9        10        23     9      180.000000       13.490731         2
        14         9        10        23     9        0.000000       -0.456839         3
        14         9        10        23     9      180.000000        0.158600         4
        14        13        12        24     9        0.000000        0.109508         1
        14        13        12        24     9      180.000000       14.118124         2
        14        13        12        24     9        0.000000       -0.632735         3
        14        13        12        24     9      180.000000        0.158470         4
        15         4         3        16     9        0.000000       -0.153280         1
        15         4         3        16     9      180.000000       12.598060         2
        15         4         3        16     9        0.000000        0.466981         3
        15         4         3        16     9      180.000000       -0.523506         4
        16        17        18        19     9        0.000000       -1.573021         1
        16        17        18        19     9      180.000000        4.124889         2
        16        17        18        19     9        0.000000        0.247417         3
        16        17        18        19     9      180.000000        0.125480         4
        16        17        18        20     9        0.000000       -1.573021         1
        16        17        18        20     9      180.000000        4.124889         2
        16        17        18        20     9        0.000000        0.247417         3
        16        17        18        20     9      180.000000        0.125480         4
        19        18        17        27     9        0.000000        0.050675         1
        19        18        17        27     9      180.000000       -0.380925         2
        19        18        17        27     9        0.000000        0.149856         3
        19        18        17        27     9      180.000000        0.058403         4
        19        18        17        28     9        0.000000        0.050675         1
        19        18        17        28     9      180.000000       -0.380925         2
        19        18        17        28     9        0.000000        0.149856         3
        19        18        17        28     9      180.000000        0.058403         4
        20        18        17        27     9        0.000000        0.050675         1
        20        18        17        27     9      180.000000       -0.380925         2
        20        18        17        27     9        0.000000        0.149856         3
        20        18        17        27     9      180.000000        0.058403         4
        20        18        17        28     9        0.000000        0.050675         1
        20        18        17        28     9      180.000000       -0.380925         2
        20        18        17        28     9        0.000000        0.149856         3
        20        18        17        28     9      180.000000        0.058403         4
        21        11        10        23     9        0.000000       -0.101841         1
        21        11        10        23     9      180.000000       14.186501         2
        21        11        10        23     9        0.000000        0.001804         3
        21        11        10        23     9      180.000000        0.235609         4
        21        11        12        24     9        0.000000       -0.157834         1
        21        11        12        24     9      180.000000       14.039263         2
        21        11        12        24     9        0.000000       -0.062231         3
        21        11        12        24     9      180.000000        0.238061         4
        21        22        35        34     9        0.000000       -0.008943         1
        21        22        35        34     9      180.000000        1.388480         2
        21        22        35        34     9        0.000000       -0.038325         3
        21        22        35        34     9      180.000000        0.158428         4
        21        22        35        36     9        0.000000       -0.008943         1
        21        22        35        36     9      180.000000        1.388480         2
        21        22        35        36     9        0.000000       -0.038325         3
        21        22        35        36     9      180.000000        0.158428         4
        22        35        34        33     9        0.000000       -0.007642         1
        22        35        34        33     9      180.000000       15.173905         2
        22        35        34        33     9        0.000000       -0.298789         3
        22        35        34        33     9      180.000000       -0.170716         4
        22        35        34        40     9        0.000000       -0.166249         1
        22        35        34        40     9      180.000000       12.878434         2
        22        35        34        40     9        0.000000       -0.381643         3
        22        35        34        40     9      180.000000        0.169298         4
        22        35        36        37     9        0.000000       -0.007642         1
        22        35        36        37     9      180.000000       15.173905         2
        22        35        36        37     9        0.000000       -0.298789         3
        22        35        36        37     9      180.000000       -0.170716         4
        22        35        36        41     9        0.000000       -0.166249         1
        22        35        36        41     9      180.000000       12.878434         2
        22        35        36        41     9        0.000000       -0.381643         3
        22        35        36        41     9      180.000000        0.169298         4
        24        12        13        25     9        0.000000       -0.144084         1
        24        12        13        25     9      180.000000       11.643130         2
        24        12        13        25     9        0.000000       -0.513946         3
        24        12        13        25     9      180.000000        0.237733         4
        25        13        14        26     9        0.000000       -0.187364         1
        25        13        14        26     9      180.000000       11.886129         2
        25        13        14        26     9        0.000000       -0.629805         3
        25        13        14        26     9      180.000000        0.293723         4
        29        21        22        30     9        0.000000       -0.247537         1
        29        21        22        30     9      180.000000        0.091719         2
        29        21        22        30     9        0.000000       -0.205373         3
        29        21        22        30     9      180.000000       -0.069273         4
        29        21        22        31     9        0.000000       -0.247537         1
        29        21        22        31     9      180.000000        0.091719         2
        29        21        22        31     9        0.000000       -0.205373         3
        29        21        22        31     9      180.000000       -0.069273         4
        29        21        22        35     9        0.000000        3.130471         1
        29        21        22        35     9      180.000000       -1.284414         2
        29        21        22        35     9        0.000000       -0.278088         3
        29        21        22        35     9      180.000000       -0.089256         4
        30        22        35        34     9        0.000000       -0.017222         1
        30        22        35        34     9      180.000000       -0.060181         2
        30        22        35        34     9        0.000000        0.027328         3
        30        22        35        34     9      180.000000       -0.003004         4
        30        22        35        36     9        0.000000       -0.017222         1
        30        22        35        36     9      180.000000       -0.060181         2
        30        22        35        36     9        0.000000        0.027328         3
        30        22        35        36     9      180.000000       -0.003004         4
        31        22        35        34     9        0.000000       -0.017222         1
        31        22        35        34     9      180.000000       -0.060181         2
        31        22        35        34     9        0.000000        0.027328         3
        31        22        35        34     9      180.000000       -0.003004         4
        31        22        35        36     9        0.000000       -0.017222         1
        31        22        35        36     9      180.000000       -0.060181         2
        31        22        35        36     9        0.000000        0.027328         3
        31        22        35        36     9      180.000000       -0.003004         4
        32        33        34        35     9        0.000000        0.092184         1
        32        33        34        35     9      180.000000       18.416505         2
        32        33        34        35     9        0.000000       -1.504820         3
        32        33        34        35     9      180.000000       -0.409677         4
        32        33        34        40     9        0.000000        0.095382         1
        32        33        34        40     9      180.000000       14.477771         2
        32        33        34        40     9        0.000000       -0.627116         3
        32        33        34        40     9      180.000000        0.110933         4
        32        37        36        35     9        0.000000        0.092184         1
        32        37        36        35     9      180.000000       18.416505         2
        32        37        36        35     9        0.000000       -1.504820         3
        32        37        36        35     9      180.000000       -0.409677         4
        32        37        36        41     9        0.000000        0.095382         1
        32        37        36        41     9      180.000000       14.477771         2
        32        37        36        41     9        0.000000       -0.627116         3
        32        37        36        41     9      180.000000        0.110933         4
        33        32        37        36     9        0.000000       -0.045621         1
        33        32        37        36     9      180.000000       18.696969         2
        33        32        37        36     9        0.000000       -1.632532         3
        33        32        37        36     9      180.000000       -0.396772         4
        33        32        37        42     9        0.000000        0.007521         1
        33        32        37        42     9      180.000000       14.230067         2
        33        32        37        42     9        0.000000       -0.801977         3
        33        32        37        42     9      180.000000        0.149726         4
        33        34        35        36     9        0.000000       -0.060912         1
        33        34        35        36     9      180.000000       19.003877         2
        33        34        35        36     9        0.000000       -1.329461         3
        33        34        35        36     9      180.000000       -0.485829         4
        34        33        32        37     9        0.000000       -0.045621         1
        34        33        32        37     9      180.000000       18.696969         2
        34        33        32        37     9        0.000000       -1.632532         3
        34        33        32        37     9      180.000000       -0.396772         4
        34        33        32        38     9        0.000000        0.042970         1
        34        33        32        38     9      180.000000       14.333200         2
        34        33        32        38     9        0.000000       -0.806089         3
        34        33        32        38     9      180.000000        0.130780         4
        34        35        36        37     9        0.000000       -0.060912         1
        34        35        36        37     9      180.000000       19.003877         2
        34        35        36        37     9        0.000000       -1.329461         3
        34        35        36        37     9      180.000000       -0.485829         4
        34        35        36        41     9        0.000000       -0.044441         1
        34        35        36        41     9      180.000000       14.249185         2
        34        35        36        41     9        0.000000       -0.559772         3
        34        35        36        41     9      180.000000        0.015006         4
        35        34        33        39     9        0.000000        0.082569         1
        35        34        33        39     9      180.000000       14.740999         2
        35        34        33        39     9        0.000000       -0.648733         3
        35        34        33        39     9      180.000000        0.061988         4
        35        36        37        42     9        0.000000        0.082569         1
        35        36        37        42     9      180.000000       14.740999         2
        35        36        37        42     9        0.000000       -0.648733         3
        35        36        37        42     9      180.000000        0.061988         4
        36        35        34        40     9        0.000000       -0.044441         1
        36        35        34        40     9      180.000000       14.249185         2
        36        35        34        40     9        0.000000       -0.559772         3
        36        35        34        40     9      180.000000        0.015006         4
        36        37        32        38     9        0.000000        0.042970         1
        36        37        32        38     9      180.000000       14.333200         2
        36        37        32        38     9        0.000000       -0.806089         3
        36        37        32        38     9      180.000000        0.130780         4
        37        32        33        39     9        0.000000        0.007521         1
        37        32        33        39     9      180.000000       14.230067         2
        37        32        33        39     9        0.000000       -0.801977         3
        37        32        33        39     9      180.000000        0.149726         4
        38        32        33        39     9        0.000000       -0.084870         1
        38        32        33        39     9      180.000000       11.579938         2
        38        32        33        39     9        0.000000       -0.600983         3
        38        32        33        39     9      180.000000        0.260597         4
        38        32        37        42     9        0.000000       -0.084870         1
        38        32        37        42     9      180.000000       11.579938         2
        38        32        37        42     9        0.000000       -0.600983         3
        38        32        37        42     9      180.000000        0.260597         4
        39        33        34        40     9        0.000000       -0.108045         1
        39        33        34        40     9      180.000000       11.952417         2
        39        33        34        40     9        0.000000       -0.620630         3
        39        33        34        40     9      180.000000        0.248289         4
        41        36        37        42     9        0.000000       -0.108045         1
        41        36        37        42     9      180.000000       11.952417         2
        41        36        37        42     9        0.000000       -0.620630         3
        41        36        37        42     9      180.000000        0.248289         4

[ dihedrals ] ; impropers
;       ai        aj        ak        al funct           phase               k        pn
         6         2         7         8     4      180.000000       27.893333         2
         6         7         8         2     4      180.000000       27.893333         2
         6         8         2         7     4      180.000000       27.893333         2
        18        17        19        20     4      180.000000       27.893333         2
        18        19        20        17     4      180.000000       27.893333         2
        18        20        17        19     4      180.000000       27.893333         2
        32        33        37        38     4      180.000000        1.032153         2
        32        37        38        33     4      180.000000        1.032153         2
        32        38        33        37     4      180.000000        1.032153         2
        33        32        34        39     4      180.000000        2.673701         2
        33        34        39        32     4      180.000000        2.673701         2
        33        39        32        34     4      180.000000        2.673701         2
        34        33        35        40     4      180.000000        2.049062         2
        34        35        40        33     4      180.000000        2.049062         2
        34        40        33        35     4      180.000000        2.049062         2
        36        35        37        41     4      180.000000        2.049062         2
        36        37        41        35     4      180.000000        2.049062         2
        36        41        35        37     4      180.000000        2.049062         2
        37        32        36        42     4      180.000000        2.673700         2
        37        36        42        32     4      180.000000        2.673700         2
        37        42        32        36     4      180.000000        2.673700         2

[ pairs ]
;       ai        aj funct
         1         7     1
         1         8     1
         1        10     1
         1        14     1
         1        15     1
         1        16     1
         2         9     1
         2        15     1
         2        17     1
         3         7     1
         3         8     1
         3         9     1
         3        18     1
         3        27     1
         3        28     1
         4         6     1
         4        10     1
         4        14     1
         4        17     1
         5         6     1
         5        11     1
         5        13     1
         5        16     1
         5        23     1
         5        26     1
         6        16     1
         9        12     1
         9        15     1
         9        21     1
         9        25     1
        10        13     1
        10        22     1
        10        24     1
        10        26     1
        10        29     1
        11        14     1
        11        25     1
        11        30     1
        11        31     1
        11        35     1
        12        22     1
        12        23     1
        12        26     1
        12        29     1
        13        21     1
        14        23     1
        14        24     1
        15        16     1
        16        19     1
        16        20     1
        19        27     1
        19        28     1
        20        27     1
        20        28     1
        21        23     1
        21        24     1
        21        34     1
        21        36     1
        22        33     1
        22        37     1
        22        40     1
        22        41     1
        24        25     1
        25        26     1
        29        30     1
        29        31     1
        29        35     1
        30        34     1
        30        36     1
        31        34     1
        31        36     1
        32        35     1
        32        40     1
        32        41     1
        33        36     1
        33        42     1
        34        37     1
        34        38     1
        34        41     1
        35        39     1
        35        42     1
        36        38     1
        36        40     1
        37        39     1
        38        39     1
        38        42     1
        39        40     1
        41        42     1
