; ITP file created by ByteFF-ML, 2026-02-21 08:23:44.344523

[ atomtypes ]
;name           bonded.type        at.num        mass        charge   ptype           sigma         epsilon
 s0bf                                  16      0.0000       0.00000       A     3.53064e-01     1.17901e+00
 c1bf                                   6      0.0000       0.00000       A     3.31755e-01     4.09816e-01
 c2bf                                   6      0.0000       0.00000       A     3.31349e-01     4.08441e-01
 c3bf                                   6      0.0000       0.00000       A     3.31198e-01     4.12218e-01
 c4bf                                   6      0.0000       0.00000       A     3.31630e-01     4.13561e-01
 c5bf                                   6      0.0000       0.00000       A     3.31455e-01     4.10610e-01
 o6bf                                   8      0.0000       0.00000       A     3.05104e-01     6.09960e-01
 o7bf                                   8      0.0000       0.00000       A     3.05104e-01     6.09960e-01
 c8bf                                   6      0.0000       0.00000       A     3.31407e-01     4.09944e-01
 c9bf                                   6      0.0000       0.00000       A     3.31733e-01     4.14065e-01
 c10bf                                  6      0.0000       0.00000       A     3.31483e-01     4.11278e-01
 c11bf                                  6      0.0000       0.00000       A     3.31454e-01     4.12646e-01
 c12bf                                  6      0.0000       0.00000       A     3.31487e-01     4.13404e-01
 c13bf                                  6      0.0000       0.00000       A     3.31465e-01     4.11762e-01
 br14bf                                35      0.0000       0.00000       A     3.61379e-01     1.65034e+00
 o15bf                                  8      0.0000       0.00000       A     3.15911e-01     3.03161e-01
 c16bf                                  6      0.0000       0.00000       A     3.39643e-01     4.49664e-01
 c17bf                                  6      0.0000       0.00000       A     3.31634e-01     4.10394e-01
 o18bf                                  8      0.0000       0.00000       A     3.04741e-01     6.09601e-01
 o19bf                                  8      0.0000       0.00000       A     3.04741e-01     6.09601e-01
 n20bf                                  7      0.0000       0.00000       A     3.28017e-01     6.43762e-01
 c21bf                                  6      0.0000       0.00000       A     3.39808e-01     4.52002e-01
 c22bf                                  6      0.0000       0.00000       A     3.39828e-01     4.49669e-01
 c23bf                                  6      0.0000       0.00000       A     3.39618e-01     4.49180e-01
 n24bf                                  7      0.0000       0.00000       A     3.36789e-01     3.55505e-01
 c25bf                                  6      0.0000       0.00000       A     3.39618e-01     4.49180e-01
 c26bf                                  6      0.0000       0.00000       A     3.39828e-01     4.49669e-01
 s27bf                                 16      0.0000       0.00000       A     4.05841e-01     2.57251e-01
 o28bf                                  8      0.0000       0.00000       A     3.04913e-01     6.10658e-01
 o29bf                                  8      0.0000       0.00000       A     3.04913e-01     6.10658e-01
 c30bf                                  6      0.0000       0.00000       A     3.39712e-01     4.50995e-01
 c31bf                                  6      0.0000       0.00000       A     3.31403e-01     4.12335e-01
 c32bf                                  6      0.0000       0.00000       A     3.31460e-01     4.12646e-01
 c33bf                                  6      0.0000       0.00000       A     3.31501e-01     4.13198e-01
 c34bf                                  6      0.0000       0.00000       A     3.31497e-01     4.12822e-01
 c35bf                                  6      0.0000       0.00000       A     3.31501e-01     4.13198e-01
 c36bf                                  6      0.0000       0.00000       A     3.31460e-01     4.12646e-01
 h37bf                                  1      0.0000       0.00000       A     2.62345e-01     6.78010e-02
 h38bf                                  1      0.0000       0.00000       A     2.62464e-01     6.74084e-02
 h39bf                                  1      0.0000       0.00000       A     2.62530e-01     6.75680e-02
 h40bf                                  1      0.0000       0.00000       A     2.62513e-01     6.75409e-02
 h41bf                                  1      0.0000       0.00000       A     2.41481e-01     8.75971e-02
 h42bf                                  1      0.0000       0.00000       A     2.41481e-01     8.75971e-02
 h43bf                                  1      0.0000       0.00000       A     1.10452e-01     4.15441e-02
 h44bf                                  1      0.0000       0.00000       A     2.42273e-01     8.59675e-02
 h45bf                                  1      0.0000       0.00000       A     2.59836e-01     8.73353e-02
 h46bf                                  1      0.0000       0.00000       A     2.59836e-01     8.73353e-02
 h47bf                                  1      0.0000       0.00000       A     2.42102e-01     8.73816e-02
 h48bf                                  1      0.0000       0.00000       A     2.42102e-01     8.73816e-02
 h49bf                                  1      0.0000       0.00000       A     2.42102e-01     8.73816e-02
 h50bf                                  1      0.0000       0.00000       A     2.42102e-01     8.73816e-02
 h51bf                                  1      0.0000       0.00000       A     2.59836e-01     8.73353e-02
 h52bf                                  1      0.0000       0.00000       A     2.59836e-01     8.73353e-02
 h53bf                                  1      0.0000       0.00000       A     2.42389e-01     8.85036e-02
 h54bf                                  1      0.0000       0.00000       A     2.42389e-01     8.85036e-02
 h55bf                                  1      0.0000       0.00000       A     2.62521e-01     6.76542e-02
 h56bf                                  1      0.0000       0.00000       A     2.62458e-01     6.72983e-02
 h57bf                                  1      0.0000       0.00000       A     2.62457e-01     6.73477e-02
 h58bf                                  1      0.0000       0.00000       A     2.62458e-01     6.72983e-02
 h59bf                                  1      0.0000       0.00000       A     2.62521e-01     6.76542e-02

[ moleculetype ]
;name             nrexcl
 20667                 3

[ atoms ]
;       nr            type      resi   res      atom      cgnr      charge          mass ; qtot
         1            s0bf         1   UNL        s0         1     0.19677       32.0670 ; qtot    0.197
         2            c1bf         1   UNL        c1         2    -0.26026       12.0110 ; qtot   -0.063
         3            c2bf         1   UNL        c2         3     0.11437       12.0110 ; qtot    0.051
         4            c3bf         1   UNL        c3         4    -0.05837       12.0110 ; qtot   -0.007
         5            c4bf         1   UNL        c4         5    -0.16790       12.0110 ; qtot   -0.175
         6            c5bf         1   UNL        c5         6     0.72713       12.0110 ; qtot    0.552
         7            o6bf         1   UNL        o6         7    -0.72308       15.9990 ; qtot   -0.171
         8            o7bf         1   UNL        o7         8    -0.72308       15.9990 ; qtot   -0.894
         9            c8bf         1   UNL        c8         9     0.01360       12.0110 ; qtot   -0.881
        10            c9bf         1   UNL        c9        10    -0.15550       12.0110 ; qtot   -1.036
        11           c10bf         1   UNL       c10        11     0.30004       12.0110 ; qtot   -0.736
        12           c11bf         1   UNL       c11        12    -0.17262       12.0110 ; qtot   -0.909
        13           c12bf         1   UNL       c12        13    -0.07788       12.0110 ; qtot   -0.987
        14           c13bf         1   UNL       c13        14    -0.11595       12.0110 ; qtot   -1.103
        15          br14bf         1   UNL      br14        15    -0.08621       79.9040 ; qtot   -1.189
        16           o15bf         1   UNL       o15        16    -0.35606       15.9990 ; qtot   -1.545
        17           c16bf         1   UNL       c16        17    -0.01490       12.0110 ; qtot   -1.560
        18           c17bf         1   UNL       c17        18     0.70991       12.0110 ; qtot   -0.850
        19           o18bf         1   UNL       o18        19    -0.73348       15.9990 ; qtot   -1.583
        20           o19bf         1   UNL       o19        20    -0.73348       15.9990 ; qtot   -2.317
        21           n20bf         1   UNL       n20        21    -0.93549       14.0070 ; qtot   -3.252
        22           c21bf         1   UNL       c21        22     0.20483       12.0110 ; qtot   -3.048
        23           c22bf         1   UNL       c22        23    -0.10255       12.0110 ; qtot   -3.150
        24           c23bf         1   UNL       c23        24     0.20464       12.0110 ; qtot   -2.946
        25           n24bf         1   UNL       n24        25    -0.73264       14.0070 ; qtot   -3.678
        26           c25bf         1   UNL       c25        26     0.20464       12.0110 ; qtot   -3.474
        27           c26bf         1   UNL       c26        27    -0.10255       12.0110 ; qtot   -3.576
        28           s27bf         1   UNL       s27        28     1.11013       32.0670 ; qtot   -2.466
        29           o28bf         1   UNL       o28        29    -0.51620       15.9990 ; qtot   -2.982
        30           o29bf         1   UNL       o29        30    -0.51620       15.9990 ; qtot   -3.498
        31           c30bf         1   UNL       c30        31    -0.21226       12.0110 ; qtot   -3.711
        32           c31bf         1   UNL       c31        32    -0.08508       12.0110 ; qtot   -3.796
        33           c32bf         1   UNL       c32        33    -0.09243       12.0110 ; qtot   -3.888
        34           c33bf         1   UNL       c33        34    -0.11257       12.0110 ; qtot   -4.001
        35           c34bf         1   UNL       c34        35    -0.10173       12.0110 ; qtot   -4.102
        36           c35bf         1   UNL       c35        36    -0.11257       12.0110 ; qtot   -4.215
        37           c36bf         1   UNL       c36        37    -0.09243       12.0110 ; qtot   -4.307
        38           h37bf         1   UNL       h37        38     0.11944        1.0080 ; qtot   -4.188
        39           h38bf         1   UNL       h38        39     0.11684        1.0080 ; qtot   -4.071
        40           h39bf         1   UNL       h39        40     0.11521        1.0080 ; qtot   -3.956
        41           h40bf         1   UNL       h40        41     0.12297        1.0080 ; qtot   -3.833
        42           h41bf         1   UNL       h41        42     0.02487        1.0080 ; qtot   -3.808
        43           h42bf         1   UNL       h42        43     0.02487        1.0080 ; qtot   -3.783
        44           h43bf         1   UNL       h43        44     0.44904        1.0080 ; qtot   -3.334
        45           h44bf         1   UNL       h44        45     0.05842        1.0080 ; qtot   -3.276
        46           h45bf         1   UNL       h45        46     0.05820        1.0080 ; qtot   -3.218
        47           h46bf         1   UNL       h46        47     0.05820        1.0080 ; qtot   -3.159
        48           h47bf         1   UNL       h47        48     0.06313        1.0080 ; qtot   -3.096
        49           h48bf         1   UNL       h48        49     0.06313        1.0080 ; qtot   -3.033
        50           h49bf         1   UNL       h49        50     0.06313        1.0080 ; qtot   -2.970
        51           h50bf         1   UNL       h50        51     0.06313        1.0080 ; qtot   -2.907
        52           h51bf         1   UNL       h51        52     0.05820        1.0080 ; qtot   -2.849
        53           h52bf         1   UNL       h52        53     0.05820        1.0080 ; qtot   -2.790
        54           h53bf         1   UNL       h53        54     0.10108        1.0080 ; qtot   -2.689
        55           h54bf         1   UNL       h54        55     0.10108        1.0080 ; qtot   -2.588
        56           h55bf         1   UNL       h55        56     0.12105        1.0080 ; qtot   -2.467
        57           h56bf         1   UNL       h56        57     0.11650        1.0080 ; qtot   -2.351
        58           h57bf         1   UNL       h57        58     0.11320        1.0080 ; qtot   -2.238
        59           h58bf         1   UNL       h58        59     0.11650        1.0080 ; qtot   -2.121
        60           h59bf         1   UNL       h59        60     0.12102        1.0080 ; qtot   -2.000

[ bonds ]
;       ai        aj funct               r               k
         1         2     1        0.174464   145572.874683
         1         5     1        0.175012   149020.499365
         2         3     1        0.138277   335024.121436
         2         6     1        0.154034   112597.124561
         3         4     1        0.143994   223875.334033
         3        16     1        0.134833   300010.369531
         4         5     1        0.138169   338414.734521
         4        15     1        0.190996   130541.361816
         5         9     1        0.147084   228751.721680
         6         7     1        0.125984   484107.493164
         6         8     1        0.125984   484107.493164
         9        10     1        0.140377   291227.953320
         9        14     1        0.140541   288006.012842
        10        11     1        0.140742   280197.786279
        10        38     1        0.108446   320758.019580
        11        12     1        0.140989   276427.972656
        11        21     1        0.139545   278571.915137
        12        13     1        0.139570   317260.431543
        12        39     1        0.108555   319413.260938
        13        14     1        0.139561   315911.765723
        13        40     1        0.108655   318238.579443
        14        41     1        0.108491   321875.217041
        16        17     1        0.145852   151865.231201
        17        18     1        0.156538   116742.448608
        17        42     1        0.109566   293138.384473
        17        43     1        0.109566   293138.384473
        18        19     1        0.126057   487285.382129
        18        20     1        0.126057   487285.382129
        21        22     1        0.146504   195224.867969
        21        44     1        0.101297   410037.235107
        22        23     1        0.154186   170495.165381
        22        27     1        0.154186   170495.165381
        22        45     1        0.109537   296979.574316
        23        24     1        0.153128   185387.935132
        23        46     1        0.109428   299143.537891
        23        47     1        0.109428   299143.537891
        24        25     1        0.148137   169512.076050
        24        48     1        0.109356   298413.202100
        24        49     1        0.109356   298413.202100
        25        26     1        0.148137   169512.076050
        25        28     1        0.168053   153113.485107
        26        27     1        0.153128   185387.935132
        26        50     1        0.109356   298413.202100
        26        51     1        0.109356   298413.202100
        27        52     1        0.109428   299143.537891
        27        53     1        0.109428   299143.537891
        28        29     1        0.146778   513414.901367
        28        30     1        0.146778   513414.901367
        28        31     1        0.183539   116975.972705
        31        32     1        0.150078   202090.123999
        31        54     1        0.109170   310174.266748
        31        55     1        0.109170   310174.266748
        32        33     1        0.140258   290287.038525
        32        37     1        0.140258   290287.038525
        33        34     1        0.139774   313710.058301
        33        56     1        0.108643   318215.928027
        34        35     1        0.139934   306464.567480
        34        57     1        0.108626   319775.658057
        35        36     1        0.139934   306464.567480
        35        58     1        0.108629   319751.295654
        36        37     1        0.139774   313710.058301
        36        59     1        0.108626   319775.658057
        37        60     1        0.108643   318215.928027

[ angles ]
;       ai        aj        ak funct           theta             cth
         1         2         3     1      110.160385      167.360000
         1         2         6     1      115.033363      592.691984
         1         5         4     1      108.982101      167.360000
         1         5         9     1      120.225929      422.231428
         2         1         5     1       93.195396      186.526063
         2         3         4     1      112.155884      382.616764
         2         3        16     1      126.134293      420.691381
         2         6         7     1      114.627625      339.029323
         2         6         8     1      114.627625      339.029323
         3         2         6     1      134.051437      467.327122
         3         4         5     1      114.634010      370.337213
         3         4        15     1      121.312027      306.426064
         3        16        17     1      117.821022      473.127047
         4         3        16     1      120.298485      422.691671
         4         5         9     1      130.788895      405.060084
         5         4        15     1      123.746353      284.291870
         5         9        10     1      120.007790      401.373068
         5         9        14     1      120.687035      464.389365
         7         6         8     1      130.398407      705.552920
         9        10        11     1      121.282242      752.470464
         9        10        38     1      119.060143      432.006938
         9        14        13     1      119.572464      680.278779
         9        14        41     1      119.945923      442.999546
        10         9        14     1      119.370499      624.161364
        10        11        12     1      118.375778      643.555331
        10        11        21     1      120.515274      518.245341
        11        10        38     1      119.620193      426.272516
        11        12        13     1      120.154808      764.362840
        11        12        39     1      120.110031      429.854926
        11        21        22     1      122.706627      477.364483
        11        21        44     1      112.770615      497.342707
        12        11        21     1      121.205200      577.235585
        12        13        14     1      121.024757      692.684898
        12        13        40     1      119.224258      431.436279
        13        12        39     1      119.858887      427.872161
        13        14        41     1      120.310341      426.702306
        14        13        40     1      119.644348      436.855158
        16        17        18     1      113.930588      533.838045
        16        17        42     1      107.778183      447.857886
        16        17        43     1      107.778183      447.857886
        17        18        19     1      114.982224      326.587708
        17        18        20     1      114.982224      326.587708
        18        17        42     1      109.132095      476.479910
        18        17        43     1      109.132095      476.479910
        19        18        20     1      130.064850      720.626454
        21        22        23     1      111.568802      599.457212
        21        22        27     1      111.568802      599.457212
        21        22        45     1      107.355751      493.417302
        22        21        44     1      112.659531      472.392855
        22        23        24     1      111.592873      644.336447
        22        23        46     1      109.720291      495.415261
        22        23        47     1      109.720291      495.415261
        22        27        26     1      111.592873      644.336447
        22        27        52     1      109.720291      495.415261
        22        27        53     1      109.720291      495.415261
        23        22        27     1      110.012161      550.496699
        23        22        45     1      108.048447      480.145730
        23        24        25     1      109.876770      652.582635
        23        24        48     1      110.673294      495.473709
        23        24        49     1      110.673294      495.473709
        24        23        46     1      109.145676      512.611344
        24        23        47     1      109.145676      512.611344
        24        25        26     1      115.503883      498.548792
        24        25        28     1      116.852966      579.735924
        25        24        48     1      108.981468      427.477134
        25        24        49     1      108.981468      427.477134
        25        26        27     1      109.876770      652.582635
        25        26        50     1      108.981468      427.477134
        25        26        51     1      108.981468      427.477134
        25        28        29     1      108.098839      633.117931
        25        28        30     1      108.098839      633.117931
        25        28        31     1      103.072411      476.993940
        26        25        28     1      116.852966      579.735924
        26        27        52     1      109.145676      512.611344
        26        27        53     1      109.145676      512.611344
        27        22        45     1      108.048447      480.145730
        27        26        50     1      110.673294      495.473709
        27        26        51     1      110.673294      495.473709
        28        31        32     1      111.069435      630.145603
        28        31        54     1      105.103867      561.429902
        28        31        55     1      105.103867      561.429902
        29        28        30     1      120.934853      729.467912
        29        28        31     1      107.298401      608.481707
        30        28        31     1      107.298401      608.481707
        31        32        33     1      120.332436      480.212158
        31        32        37     1      120.332436      480.212158
        32        31        54     1      112.676392      471.542565
        32        31        55     1      112.676392      471.542565
        32        33        34     1      120.460205      684.857966
        32        33        56     1      119.583359      408.547336
        32        37        36     1      120.460205      684.857966
        32        37        60     1      119.583359      408.547336
        33        32        37     1      119.052284      688.213734
        33        34        35     1      120.083267      708.083648
        33        34        57     1      119.855690      428.550809
        34        33        56     1      119.984535      428.586306
        34        35        36     1      119.688011      698.088168
        34        35        58     1      120.174377      430.249666
        35        34        57     1      120.083885      428.643190
        35        36        37     1      120.083275      708.083648
        35        36        59     1      120.083885      428.643190
        36        35        58     1      120.174377      430.249666
        36        37        60     1      119.984535      428.586306
        37        36        59     1      119.855690      428.550809
        42        17        43     1      108.416725      344.620386
        46        23        47     1      107.221519      355.872324
        48        24        49     1      107.587914      345.987483
        50        26        51     1      107.587914      345.987483
        52        27        53     1      107.221519      355.872324
        54        31        55     1      109.555618      335.104557

[ dihedrals ] ; propers for gromacs 4.5 or higher, use funct 9
;       ai        aj        ak        al funct           phase               k        pn
         1         2         3         4     9        0.000000       -0.157449         1
         1         2         3         4     9      180.000000       23.193074         2
         1         2         3         4     9        0.000000       -4.968979         3
         1         2         3         4     9      180.000000       -0.609654         4
         1         2         3        16     9        0.000000        0.970784         1
         1         2         3        16     9      180.000000       21.885524         2
         1         2         3        16     9        0.000000        0.406670         3
         1         2         3        16     9      180.000000       -1.347848         4
         1         2         6         7     9        0.000000        1.117411         1
         1         2         6         7     9      180.000000        4.117929         2
         1         2         6         7     9        0.000000        0.067199         3
         1         2         6         7     9      180.000000        0.180393         4
         1         2         6         8     9        0.000000        1.117411         1
         1         2         6         8     9      180.000000        4.117929         2
         1         2         6         8     9        0.000000        0.067199         3
         1         2         6         8     9      180.000000        0.180393         4
         1         5         4         3     9        0.000000       -0.306829         1
         1         5         4         3     9      180.000000       24.522085         2
         1         5         4         3     9        0.000000       -5.964297         3
         1         5         4         3     9      180.000000       -0.599844         4
         1         5         4        15     9        0.000000        0.499553         1
         1         5         4        15     9      180.000000       17.380840         2
         1         5         4        15     9        0.000000        0.197540         3
         1         5         4        15     9      180.000000       -1.066303         4
         1         5         9        10     9        0.000000       -0.425147         1
         1         5         9        10     9      180.000000        3.268779         2
         1         5         9        10     9        0.000000       -0.033326         3
         1         5         9        10     9      180.000000        0.312058         4
         1         5         9        14     9        0.000000       -0.234776         1
         1         5         9        14     9      180.000000        3.130943         2
         1         5         9        14     9        0.000000        0.163278         3
         1         5         9        14     9      180.000000        0.213167         4
         2         1         5         4     9        0.000000       -0.388546         1
         2         1         5         4     9      180.000000       24.242164         2
         2         1         5         4     9        0.000000       -5.021316         3
         2         1         5         4     9      180.000000       -0.471890         4
         2         1         5         9     9        0.000000       -0.206097         1
         2         1         5         9     9      180.000000       15.224347         2
         2         1         5         9     9        0.000000        0.250585         3
         2         1         5         9     9      180.000000       -0.604674         4
         2         3         4         5     9        0.000000       -0.251748         1
         2         3         4         5     9      180.000000       14.214229         2
         2         3         4         5     9        0.000000       -2.698729         3
         2         3         4         5     9      180.000000       -0.310431         4
         2         3         4        15     9        0.000000        0.248323         1
         2         3         4        15     9      180.000000       11.562275         2
         2         3         4        15     9        0.000000        0.148422         3
         2         3         4        15     9      180.000000       -0.630060         4
         2         3        16        17     9        0.000000        0.701674         1
         2         3        16        17     9      180.000000        2.973538         2
         2         3        16        17     9        0.000000        0.307642         3
         2         3        16        17     9      180.000000       -0.218272         4
         3         2         1         5     9        0.000000       -0.083281         1
         3         2         1         5     9      180.000000       22.870917         2
         3         2         1         5     9        0.000000       -3.551991         3
         3         2         1         5     9      180.000000       -0.695859         4
         3         2         6         7     9        0.000000       -5.137617         1
         3         2         6         7     9      180.000000        2.933940         2
         3         2         6         7     9        0.000000        0.193554         3
         3         2         6         7     9      180.000000       -0.187922         4
         3         2         6         8     9        0.000000       -5.137617         1
         3         2         6         8     9      180.000000        2.933940         2
         3         2         6         8     9        0.000000        0.193554         3
         3         2         6         8     9      180.000000       -0.187922         4
         3         4         5         9     9        0.000000        0.188116         1
         3         4         5         9     9      180.000000       16.319500         2
         3         4         5         9     9        0.000000       -0.399596         3
         3         4         5         9     9      180.000000       -1.039713         4
         3        16        17        18     9        0.000000       -4.760844         1
         3        16        17        18     9      180.000000       -1.857167         2
         3        16        17        18     9        0.000000        0.352751         3
         3        16        17        18     9      180.000000        0.004621         4
         3        16        17        42     9        0.000000       -0.294822         1
         3        16        17        42     9      180.000000       -0.281191         2
         3        16        17        42     9        0.000000        0.570610         3
         3        16        17        42     9      180.000000        0.007077         4
         3        16        17        43     9        0.000000       -0.294822         1
         3        16        17        43     9      180.000000       -0.281191         2
         3        16        17        43     9        0.000000        0.570610         3
         3        16        17        43     9      180.000000        0.007077         4
         4         3         2         6     9        0.000000       -0.190053         1
         4         3         2         6     9      180.000000       11.755029         2
         4         3         2         6     9        0.000000       -0.719247         3
         4         3         2         6     9      180.000000       -0.502059         4
         4         3        16        17     9        0.000000        2.857399         1
         4         3        16        17     9      180.000000        2.426502         2
         4         3        16        17     9        0.000000        0.581872         3
         4         3        16        17     9      180.000000       -0.192707         4
         4         5         9        10     9        0.000000       -0.333835         1
         4         5         9        10     9      180.000000        2.272960         2
         4         5         9        10     9        0.000000       -0.067112         3
         4         5         9        10     9      180.000000        0.026737         4
         4         5         9        14     9        0.000000        0.327177         1
         4         5         9        14     9      180.000000        2.100762         2
         4         5         9        14     9        0.000000       -0.053534         3
         4         5         9        14     9      180.000000        0.035750         4
         5         1         2         6     9        0.000000        0.985272         1
         5         1         2         6     9      180.000000       10.250466         2
         5         1         2         6     9        0.000000       -0.288305         3
         5         1         2         6     9      180.000000        0.044596         4
         5         4         3        16     9        0.000000        0.518482         1
         5         4         3        16     9      180.000000       12.721722         2
         5         4         3        16     9        0.000000        0.352406         3
         5         4         3        16     9      180.000000       -0.184802         4
         5         9        10        11     9        0.000000        0.371647         1
         5         9        10        11     9      180.000000       15.800528         2
         5         9        10        11     9        0.000000        0.005688         3
         5         9        10        11     9      180.000000       -0.389350         4
         5         9        10        38     9        0.000000        0.048615         1
         5         9        10        38     9      180.000000       13.061744         2
         5         9        10        38     9        0.000000       -0.174551         3
         5         9        10        38     9      180.000000        0.168319         4
         5         9        14        13     9        0.000000        0.323235         1
         5         9        14        13     9      180.000000       16.538936         2
         5         9        14        13     9        0.000000       -0.195176         3
         5         9        14        13     9      180.000000       -0.362011         4
         5         9        14        41     9        0.000000        0.092667         1
         5         9        14        41     9      180.000000       12.926460         2
         5         9        14        41     9        0.000000       -0.242138         3
         5         9        14        41     9      180.000000        0.176107         4
         6         2         3        16     9        0.000000        0.216703         1
         6         2         3        16     9      180.000000       15.170354         2
         6         2         3        16     9        0.000000        0.500829         3
         6         2         3        16     9      180.000000       -0.921398         4
         9         5         4        15     9        0.000000        0.444437         1
         9         5         4        15     9      180.000000       13.006978         2
         9         5         4        15     9        0.000000        0.562767         3
         9         5         4        15     9      180.000000       -0.482422         4
         9        10        11        12     9        0.000000        0.059642         1
         9        10        11        12     9      180.000000       15.493287         2
         9        10        11        12     9        0.000000       -0.815862         3
         9        10        11        12     9      180.000000       -0.189726         4
         9        10        11        21     9        0.000000        0.256507         1
         9        10        11        21     9      180.000000       17.209378         2
         9        10        11        21     9        0.000000        0.244722         3
         9        10        11        21     9      180.000000       -0.431440         4
         9        14        13        12     9        0.000000        0.008362         1
         9        14        13        12     9      180.000000       19.169942         2
         9        14        13        12     9        0.000000       -1.601727         3
         9        14        13        12     9      180.000000       -0.448224         4
         9        14        13        40     9        0.000000       -0.030494         1
         9        14        13        40     9      180.000000       15.022380         2
         9        14        13        40     9        0.000000       -0.524511         3
         9        14        13        40     9      180.000000        0.059106         4
        10         9        14        13     9        0.000000       -0.118252         1
        10         9        14        13     9      180.000000       17.939734         2
        10         9        14        13     9        0.000000       -1.432276         3
        10         9        14        13     9      180.000000       -0.289354         4
        10         9        14        41     9        0.000000       -0.041016         1
        10         9        14        41     9      180.000000       13.590058         2
        10         9        14        41     9        0.000000       -0.500060         3
        10         9        14        41     9      180.000000        0.135491         4
        10        11        12        13     9        0.000000        0.084500         1
        10        11        12        13     9      180.000000       15.445870         2
        10        11        12        13     9        0.000000       -0.749013         3
        10        11        12        13     9      180.000000       -0.158771         4
        10        11        12        39     9        0.000000        0.100986         1
        10        11        12        39     9      180.000000       12.283458         2
        10        11        12        39     9        0.000000       -0.302961         3
        10        11        12        39     9      180.000000        0.152739         4
        10        11        21        22     9        0.000000        0.109428         1
        10        11        21        22     9      180.000000        4.254972         2
        10        11        21        22     9        0.000000        0.392809         3
        10        11        21        22     9      180.000000       -0.111897         4
        10        11        21        44     9        0.000000        0.418303         1
        10        11        21        44     9      180.000000        5.465324         2
        10        11        21        44     9        0.000000        0.012857         3
        10        11        21        44     9      180.000000       -0.449760         4
        11        10         9        14     9        0.000000       -0.200068         1
        11        10         9        14     9      180.000000       17.806994         2
        11        10         9        14     9        0.000000       -1.588766         3
        11        10         9        14     9      180.000000       -0.402748         4
        11        12        13        14     9        0.000000       -0.024912         1
        11        12        13        14     9      180.000000       18.028415         2
        11        12        13        14     9        0.000000       -1.593670         3
        11        12        13        14     9      180.000000       -0.416432         4
        11        12        13        40     9        0.000000        0.016942         1
        11        12        13        40     9      180.000000       14.276363         2
        11        12        13        40     9        0.000000       -0.581911         3
        11        12        13        40     9      180.000000        0.067359         4
        11        21        22        23     9        0.000000        1.181867         1
        11        21        22        23     9      180.000000        0.125592         2
        11        21        22        23     9        0.000000        1.128134         3
        11        21        22        23     9      180.000000        0.035376         4
        11        21        22        27     9        0.000000        1.181867         1
        11        21        22        27     9      180.000000        0.125592         2
        11        21        22        27     9        0.000000        1.128134         3
        11        21        22        27     9      180.000000        0.035376         4
        11        21        22        45     9        0.000000       -1.384429         1
        11        21        22        45     9      180.000000        0.027975         2
        11        21        22        45     9        0.000000        1.384360         3
        11        21        22        45     9      180.000000       -0.052368         4
        12        11        10        38     9        0.000000        0.094542         1
        12        11        10        38     9      180.000000       12.302434         2
        12        11        10        38     9        0.000000       -0.330069         3
        12        11        10        38     9      180.000000        0.189144         4
        12        11        21        22     9        0.000000        0.341931         1
        12        11        21        22     9      180.000000        4.177048         2
        12        11        21        22     9        0.000000        0.573814         3
        12        11        21        22     9      180.000000       -0.174617         4
        12        11        21        44     9        0.000000       -0.037696         1
        12        11        21        44     9      180.000000        5.473717         2
        12        11        21        44     9        0.000000        0.053881         3
        12        11        21        44     9      180.000000       -0.452250         4
        12        13        14        41     9        0.000000        0.059409         1
        12        13        14        41     9      180.000000       14.509544         2
        12        13        14        41     9        0.000000       -0.716558         3
        12        13        14        41     9      180.000000        0.159687         4
        13        12        11        21     9        0.000000        0.254356         1
        13        12        11        21     9      180.000000       16.909080         2
        13        12        11        21     9        0.000000        0.151268         3
        13        12        11        21     9      180.000000       -0.177572         4
        14         9        10        38     9        0.000000        0.077332         1
        14         9        10        38     9      180.000000       13.475288         2
        14         9        10        38     9        0.000000       -0.459271         3
        14         9        10        38     9      180.000000        0.143299         4
        14        13        12        39     9        0.000000        0.105666         1
        14        13        12        39     9      180.000000       14.164092         2
        14        13        12        39     9        0.000000       -0.635373         3
        14        13        12        39     9      180.000000        0.151673         4
        15         4         3        16     9        0.000000       -0.153280         1
        15         4         3        16     9      180.000000       12.598060         2
        15         4         3        16     9        0.000000        0.466981         3
        15         4         3        16     9      180.000000       -0.523506         4
        16        17        18        19     9        0.000000       -1.573021         1
        16        17        18        19     9      180.000000        4.124889         2
        16        17        18        19     9        0.000000        0.247417         3
        16        17        18        19     9      180.000000        0.125480         4
        16        17        18        20     9        0.000000       -1.573021         1
        16        17        18        20     9      180.000000        4.124889         2
        16        17        18        20     9        0.000000        0.247417         3
        16        17        18        20     9      180.000000        0.125480         4
        19        18        17        42     9        0.000000        0.050675         1
        19        18        17        42     9      180.000000       -0.380925         2
        19        18        17        42     9        0.000000        0.149856         3
        19        18        17        42     9      180.000000        0.058403         4
        19        18        17        43     9        0.000000        0.050675         1
        19        18        17        43     9      180.000000       -0.380925         2
        19        18        17        43     9        0.000000        0.149856         3
        19        18        17        43     9      180.000000        0.058403         4
        20        18        17        42     9        0.000000        0.050675         1
        20        18        17        42     9      180.000000       -0.380925         2
        20        18        17        42     9        0.000000        0.149856         3
        20        18        17        42     9      180.000000        0.058403         4
        20        18        17        43     9        0.000000        0.050675         1
        20        18        17        43     9      180.000000       -0.380925         2
        20        18        17        43     9        0.000000        0.149856         3
        20        18        17        43     9      180.000000        0.058403         4
        21        11        10        38     9        0.000000       -0.228593         1
        21        11        10        38     9      180.000000       14.159200         2
        21        11        10        38     9        0.000000       -0.030143         3
        21        11        10        38     9      180.000000        0.257752         4
        21        11        12        39     9        0.000000       -0.293365         1
        21        11        12        39     9      180.000000       13.806795         2
        21        11        12        39     9        0.000000       -0.098357         3
        21        11        12        39     9      180.000000        0.262289         4
        21        22        23        24     9        0.000000       -1.875284         1
        21        22        23        24     9      180.000000       -0.960374         2
        21        22        23        24     9        0.000000        0.142634         3
        21        22        23        24     9      180.000000        0.337243         4
        21        22        23        46     9        0.000000        0.026269         1
        21        22        23        46     9      180.000000        0.064111         2
        21        22        23        46     9        0.000000        0.295934         3
        21        22        23        46     9      180.000000       -0.023857         4
        21        22        23        47     9        0.000000        0.026269         1
        21        22        23        47     9      180.000000        0.064111         2
        21        22        23        47     9        0.000000        0.295934         3
        21        22        23        47     9      180.000000       -0.023857         4
        21        22        27        26     9        0.000000       -1.875284         1
        21        22        27        26     9      180.000000       -0.960374         2
        21        22        27        26     9        0.000000        0.142634         3
        21        22        27        26     9      180.000000        0.337243         4
        21        22        27        52     9        0.000000        0.026269         1
        21        22        27        52     9      180.000000        0.064111         2
        21        22        27        52     9        0.000000        0.295934         3
        21        22        27        52     9      180.000000       -0.023857         4
        21        22        27        53     9        0.000000        0.026269         1
        21        22        27        53     9      180.000000        0.064111         2
        21        22        27        53     9        0.000000        0.295934         3
        21        22        27        53     9      180.000000       -0.023857         4
        22        23        24        25     9        0.000000        0.005650         1
        22        23        24        25     9      180.000000       -1.873272         2
        22        23        24        25     9        0.000000        0.265195         3
        22        23        24        25     9      180.000000        0.036648         4
        22        23        24        48     9        0.000000       -0.002388         1
        22        23        24        48     9      180.000000        0.062581         2
        22        23        24        48     9        0.000000        0.158267         3
        22        23        24        48     9      180.000000        0.019930         4
        22        23        24        49     9        0.000000       -0.002388         1
        22        23        24        49     9      180.000000        0.062581         2
        22        23        24        49     9        0.000000        0.158267         3
        22        23        24        49     9      180.000000        0.019930         4
        22        27        26        25     9        0.000000        0.005650         1
        22        27        26        25     9      180.000000       -1.873272         2
        22        27        26        25     9        0.000000        0.265195         3
        22        27        26        25     9      180.000000        0.036648         4
        22        27        26        50     9        0.000000       -0.002388         1
        22        27        26        50     9      180.000000        0.062581         2
        22        27        26        50     9        0.000000        0.158267         3
        22        27        26        50     9      180.000000        0.019930         4
        22        27        26        51     9        0.000000       -0.002388         1
        22        27        26        51     9      180.000000        0.062581         2
        22        27        26        51     9        0.000000        0.158267         3
        22        27        26        51     9      180.000000        0.019930         4
        23        22        21        44     9        0.000000       -0.201558         1
        23        22        21        44     9      180.000000       -0.067461         2
        23        22        21        44     9        0.000000       -0.036021         3
        23        22        21        44     9      180.000000        0.082091         4
        23        22        27        26     9        0.000000        2.449754         1
        23        22        27        26     9      180.000000       -2.834778         2
        23        22        27        26     9        0.000000        0.040636         3
        23        22        27        26     9      180.000000        0.193934         4
        23        22        27        52     9        0.000000       -0.049302         1
        23        22        27        52     9      180.000000        0.073596         2
        23        22        27        52     9        0.000000        0.268365         3
        23        22        27        52     9      180.000000        0.021051         4
        23        22        27        53     9        0.000000       -0.049302         1
        23        22        27        53     9      180.000000        0.073596         2
        23        22        27        53     9        0.000000        0.268365         3
        23        22        27        53     9      180.000000        0.021051         4
        23        24        25        26     9        0.000000        3.570595         1
        23        24        25        26     9      180.000000       -1.802065         2
        23        24        25        26     9        0.000000        0.359639         3
        23        24        25        26     9      180.000000        0.253193         4
        23        24        25        28     9        0.000000       -5.499896         1
        23        24        25        28     9      180.000000        0.628786         2
        23        24        25        28     9        0.000000        0.210263         3
        23        24        25        28     9      180.000000       -0.450847         4
        24        23        22        27     9        0.000000        2.449754         1
        24        23        22        27     9      180.000000       -2.834778         2
        24        23        22        27     9        0.000000        0.040636         3
        24        23        22        27     9      180.000000        0.193934         4
        24        23        22        45     9        0.000000       -0.262713         1
        24        23        22        45     9      180.000000       -0.028615         2
        24        23        22        45     9        0.000000        0.189212         3
        24        23        22        45     9      180.000000        0.052117         4
        24        25        26        27     9        0.000000        3.570595         1
        24        25        26        27     9      180.000000       -1.802065         2
        24        25        26        27     9        0.000000        0.359639         3
        24        25        26        27     9      180.000000        0.253193         4
        24        25        26        50     9        0.000000       -0.045242         1
        24        25        26        50     9      180.000000        0.259789         2
        24        25        26        50     9        0.000000        0.754464         3
        24        25        26        50     9      180.000000        0.050508         4
        24        25        26        51     9        0.000000       -0.045242         1
        24        25        26        51     9      180.000000        0.259789         2
        24        25        26        51     9        0.000000        0.754464         3
        24        25        26        51     9      180.000000        0.050508         4
        24        25        28        29     9        0.000000        0.124416         1
        24        25        28        29     9      180.000000        1.256065         2
        24        25        28        29     9        0.000000        0.617960         3
        24        25        28        29     9      180.000000        0.014254         4
        24        25        28        30     9        0.000000        0.124416         1
        24        25        28        30     9      180.000000        1.256065         2
        24        25        28        30     9        0.000000        0.617960         3
        24        25        28        30     9      180.000000        0.014254         4
        24        25        28        31     9        0.000000       -1.228541         1
        24        25        28        31     9      180.000000       -4.275192         2
        24        25        28        31     9        0.000000        0.724940         3
        24        25        28        31     9      180.000000       -1.276505         4
        25        24        23        46     9        0.000000        0.008529         1
        25        24        23        46     9      180.000000        0.045374         2
        25        24        23        46     9        0.000000        0.198974         3
        25        24        23        46     9      180.000000       -0.046745         4
        25        24        23        47     9        0.000000        0.008529         1
        25        24        23        47     9      180.000000        0.045374         2
        25        24        23        47     9        0.000000        0.198974         3
        25        24        23        47     9      180.000000       -0.046745         4
        25        26        27        52     9        0.000000        0.008529         1
        25        26        27        52     9      180.000000        0.045374         2
        25        26        27        52     9        0.000000        0.198974         3
        25        26        27        52     9      180.000000       -0.046745         4
        25        26        27        53     9        0.000000        0.008529         1
        25        26        27        53     9      180.000000        0.045374         2
        25        26        27        53     9        0.000000        0.198974         3
        25        26        27        53     9      180.000000       -0.046745         4
        25        28        31        32     9        0.000000       -1.293512         1
        25        28        31        32     9      180.000000       -0.035628         2
        25        28        31        32     9        0.000000        0.601590         3
        25        28        31        32     9      180.000000       -0.013748         4
        25        28        31        54     9        0.000000        0.293494         1
        25        28        31        54     9      180.000000        0.083644         2
        25        28        31        54     9        0.000000        0.510515         3
        25        28        31        54     9      180.000000        0.050764         4
        25        28        31        55     9        0.000000        0.293494         1
        25        28        31        55     9      180.000000        0.083644         2
        25        28        31        55     9        0.000000        0.510515         3
        25        28        31        55     9      180.000000        0.050764         4
        26        25        24        48     9        0.000000       -0.045242         1
        26        25        24        48     9      180.000000        0.259789         2
        26        25        24        48     9        0.000000        0.754464         3
        26        25        24        48     9      180.000000        0.050508         4
        26        25        24        49     9        0.000000       -0.045242         1
        26        25        24        49     9      180.000000        0.259789         2
        26        25        24        49     9        0.000000        0.754464         3
        26        25        24        49     9      180.000000        0.050508         4
        26        25        28        29     9        0.000000        0.124416         1
        26        25        28        29     9      180.000000        1.256065         2
        26        25        28        29     9        0.000000        0.617960         3
        26        25        28        29     9      180.000000        0.014254         4
        26        25        28        30     9        0.000000        0.124416         1
        26        25        28        30     9      180.000000        1.256065         2
        26        25        28        30     9        0.000000        0.617960         3
        26        25        28        30     9      180.000000        0.014254         4
        26        25        28        31     9        0.000000       -1.228541         1
        26        25        28        31     9      180.000000       -4.275192         2
        26        25        28        31     9        0.000000        0.724940         3
        26        25        28        31     9      180.000000       -1.276505         4
        26        27        22        45     9        0.000000       -0.262713         1
        26        27        22        45     9      180.000000       -0.028615         2
        26        27        22        45     9        0.000000        0.189212         3
        26        27        22        45     9      180.000000        0.052117         4
        27        22        21        44     9        0.000000       -0.201558         1
        27        22        21        44     9      180.000000       -0.067461         2
        27        22        21        44     9        0.000000       -0.036021         3
        27        22        21        44     9      180.000000        0.082091         4
        27        22        23        46     9        0.000000       -0.049302         1
        27        22        23        46     9      180.000000        0.073596         2
        27        22        23        46     9        0.000000        0.268365         3
        27        22        23        46     9      180.000000        0.021051         4
        27        22        23        47     9        0.000000       -0.049302         1
        27        22        23        47     9      180.000000        0.073596         2
        27        22        23        47     9        0.000000        0.268365         3
        27        22        23        47     9      180.000000        0.021051         4
        27        26        25        28     9        0.000000       -5.499896         1
        27        26        25        28     9      180.000000        0.628786         2
        27        26        25        28     9        0.000000        0.210263         3
        27        26        25        28     9      180.000000       -0.450847         4
        28        25        24        48     9        0.000000        0.093038         1
        28        25        24        48     9      180.000000        0.061678         2
        28        25        24        48     9        0.000000        0.212638         3
        28        25        24        48     9      180.000000        0.038559         4
        28        25        24        49     9        0.000000        0.093038         1
        28        25        24        49     9      180.000000        0.061678         2
        28        25        24        49     9        0.000000        0.212638         3
        28        25        24        49     9      180.000000        0.038559         4
        28        25        26        50     9        0.000000        0.093038         1
        28        25        26        50     9      180.000000        0.061678         2
        28        25        26        50     9        0.000000        0.212638         3
        28        25        26        50     9      180.000000        0.038559         4
        28        25        26        51     9        0.000000        0.093038         1
        28        25        26        51     9      180.000000        0.061678         2
        28        25        26        51     9        0.000000        0.212638         3
        28        25        26        51     9      180.000000        0.038559         4
        28        31        32        33     9        0.000000       -0.683863         1
        28        31        32        33     9      180.000000       -0.710243         2
        28        31        32        33     9        0.000000        0.148329         3
        28        31        32        33     9      180.000000        0.066425         4
        28        31        32        37     9        0.000000       -0.683863         1
        28        31        32        37     9      180.000000       -0.710243         2
        28        31        32        37     9        0.000000        0.148329         3
        28        31        32        37     9      180.000000        0.066425         4
        29        28        31        32     9        0.000000        0.034860         1
        29        28        31        32     9      180.000000        0.137576         2
        29        28        31        32     9        0.000000        0.545522         3
        29        28        31        32     9      180.000000       -0.065435         4
        29        28        31        54     9        0.000000       -0.009453         1
        29        28        31        54     9      180.000000        0.063614         2
        29        28        31        54     9        0.000000        0.502239         3
        29        28        31        54     9      180.000000        0.016510         4
        29        28        31        55     9        0.000000       -0.009453         1
        29        28        31        55     9      180.000000        0.063614         2
        29        28        31        55     9        0.000000        0.502239         3
        29        28        31        55     9      180.000000        0.016510         4
        30        28        31        32     9        0.000000        0.034860         1
        30        28        31        32     9      180.000000        0.137576         2
        30        28        31        32     9        0.000000        0.545522         3
        30        28        31        32     9      180.000000       -0.065435         4
        30        28        31        54     9        0.000000       -0.009453         1
        30        28        31        54     9      180.000000        0.063614         2
        30        28        31        54     9        0.000000        0.502239         3
        30        28        31        54     9      180.000000        0.016510         4
        30        28        31        55     9        0.000000       -0.009453         1
        30        28        31        55     9      180.000000        0.063614         2
        30        28        31        55     9        0.000000        0.502239         3
        30        28        31        55     9      180.000000        0.016510         4
        31        32        33        34     9        0.000000        0.002642         1
        31        32        33        34     9      180.000000       15.329174         2
        31        32        33        34     9        0.000000       -0.223718         3
        31        32        33        34     9      180.000000       -0.133890         4
        31        32        33        56     9        0.000000       -0.142436         1
        31        32        33        56     9      180.000000       12.806421         2
        31        32        33        56     9        0.000000       -0.467082         3
        31        32        33        56     9      180.000000        0.205934         4
        31        32        37        36     9        0.000000        0.002642         1
        31        32        37        36     9      180.000000       15.329174         2
        31        32        37        36     9        0.000000       -0.223718         3
        31        32        37        36     9      180.000000       -0.133890         4
        31        32        37        60     9        0.000000       -0.142436         1
        31        32        37        60     9      180.000000       12.806421         2
        31        32        37        60     9        0.000000       -0.467082         3
        31        32        37        60     9      180.000000        0.205934         4
        32        33        34        35     9        0.000000        0.072919         1
        32        33        34        35     9      180.000000       18.629533         2
        32        33        34        35     9        0.000000       -1.505709         3
        32        33        34        35     9      180.000000       -0.387820         4
        32        33        34        57     9        0.000000        0.065519         1
        32        33        34        57     9      180.000000       14.561451         2
        32        33        34        57     9        0.000000       -0.662113         3
        32        33        34        57     9      180.000000        0.121013         4
        32        37        36        35     9        0.000000        0.072919         1
        32        37        36        35     9      180.000000       18.629533         2
        32        37        36        35     9        0.000000       -1.505709         3
        32        37        36        35     9      180.000000       -0.387820         4
        32        37        36        59     9        0.000000        0.065519         1
        32        37        36        59     9      180.000000       14.561451         2
        32        37        36        59     9        0.000000       -0.662113         3
        32        37        36        59     9      180.000000        0.121013         4
        33        32        31        54     9        0.000000        0.073471         1
        33        32        31        54     9      180.000000        0.468190         2
        33        32        31        54     9        0.000000        0.210416         3
        33        32        31        54     9      180.000000        0.006334         4
        33        32        31        55     9        0.000000        0.073471         1
        33        32        31        55     9      180.000000        0.468190         2
        33        32        31        55     9        0.000000        0.210416         3
        33        32        31        55     9      180.000000        0.006334         4
        33        32        37        36     9        0.000000       -0.016429         1
        33        32        37        36     9      180.000000       18.992794         2
        33        32        37        36     9        0.000000       -1.466578         3
        33        32        37        36     9      180.000000       -0.435906         4
        33        32        37        60     9        0.000000        0.057233         1
        33        32        37        60     9      180.000000       14.146108         2
        33        32        37        60     9        0.000000       -0.615035         3
        33        32        37        60     9      180.000000        0.054584         4
        33        34        35        36     9        0.000000       -0.042239         1
        33        34        35        36     9      180.000000       18.545190         2
        33        34        35        36     9        0.000000       -1.655935         3
        33        34        35        36     9      180.000000       -0.377441         4
        33        34        35        58     9        0.000000        0.044272         1
        33        34        35        58     9      180.000000       14.491251         2
        33        34        35        58     9        0.000000       -0.797966         3
        33        34        35        58     9      180.000000        0.110451         4
        34        33        32        37     9        0.000000       -0.016429         1
        34        33        32        37     9      180.000000       18.992794         2
        34        33        32        37     9        0.000000       -1.466578         3
        34        33        32        37     9      180.000000       -0.435906         4
        34        35        36        37     9        0.000000       -0.042239         1
        34        35        36        37     9      180.000000       18.545190         2
        34        35        36        37     9        0.000000       -1.655935         3
        34        35        36        37     9      180.000000       -0.377441         4
        34        35        36        59     9        0.000000        0.010067         1
        34        35        36        59     9      180.000000       14.248561         2
        34        35        36        59     9        0.000000       -0.800275         3
        34        35        36        59     9      180.000000        0.153151         4
        35        34        33        56     9        0.000000        0.099180         1
        35        34        33        56     9      180.000000       14.691068         2
        35        34        33        56     9        0.000000       -0.681452         3
        35        34        33        56     9      180.000000        0.131803         4
        35        36        37        60     9        0.000000        0.099180         1
        35        36        37        60     9      180.000000       14.691068         2
        35        36        37        60     9        0.000000       -0.681452         3
        35        36        37        60     9      180.000000        0.131803         4
        36        35        34        57     9        0.000000        0.010067         1
        36        35        34        57     9      180.000000       14.248561         2
        36        35        34        57     9        0.000000       -0.800275         3
        36        35        34        57     9      180.000000        0.153151         4
        37        32        31        54     9        0.000000        0.073471         1
        37        32        31        54     9      180.000000        0.468190         2
        37        32        31        54     9        0.000000        0.210416         3
        37        32        31        54     9      180.000000        0.006334         4
        37        32        31        55     9        0.000000        0.073471         1
        37        32        31        55     9      180.000000        0.468190         2
        37        32        31        55     9        0.000000        0.210416         3
        37        32        31        55     9      180.000000        0.006334         4
        37        32        33        56     9        0.000000        0.057233         1
        37        32        33        56     9      180.000000       14.146108         2
        37        32        33        56     9        0.000000       -0.615035         3
        37        32        33        56     9      180.000000        0.054584         4
        37        36        35        58     9        0.000000        0.044272         1
        37        36        35        58     9      180.000000       14.491251         2
        37        36        35        58     9        0.000000       -0.797966         3
        37        36        35        58     9      180.000000        0.110451         4
        39        12        13        40     9        0.000000       -0.139149         1
        39        12        13        40     9      180.000000       11.679764         2
        39        12        13        40     9        0.000000       -0.530097         3
        39        12        13        40     9      180.000000        0.235346         4
        40        13        14        41     9        0.000000       -0.191662         1
        40        13        14        41     9      180.000000       11.920421         2
        40        13        14        41     9        0.000000       -0.632898         3
        40        13        14        41     9      180.000000        0.289657         4
        44        21        22        45     9        0.000000       -0.449362         1
        44        21        22        45     9      180.000000       -0.598442         2
        44        21        22        45     9        0.000000        0.007449         3
        44        21        22        45     9      180.000000        0.011988         4
        45        22        23        46     9        0.000000       -0.021624         1
        45        22        23        46     9      180.000000        0.010472         2
        45        22        23        46     9        0.000000        0.289292         3
        45        22        23        46     9      180.000000        0.061297         4
        45        22        23        47     9        0.000000       -0.021624         1
        45        22        23        47     9      180.000000        0.010472         2
        45        22        23        47     9        0.000000        0.289292         3
        45        22        23        47     9      180.000000        0.061297         4
        45        22        27        52     9        0.000000       -0.021624         1
        45        22        27        52     9      180.000000        0.010472         2
        45        22        27        52     9        0.000000        0.289292         3
        45        22        27        52     9      180.000000        0.061297         4
        45        22        27        53     9        0.000000       -0.021624         1
        45        22        27        53     9      180.000000        0.010472         2
        45        22        27        53     9        0.000000        0.289292         3
        45        22        27        53     9      180.000000        0.061297         4
        46        23        24        48     9        0.000000        0.027766         1
        46        23        24        48     9      180.000000       -0.007817         2
        46        23        24        48     9        0.000000        0.228742         3
        46        23        24        48     9      180.000000        0.021320         4
        46        23        24        49     9        0.000000        0.027766         1
        46        23        24        49     9      180.000000       -0.007817         2
        46        23        24        49     9        0.000000        0.228742         3
        46        23        24        49     9      180.000000        0.021320         4
        47        23        24        48     9        0.000000        0.027766         1
        47        23        24        48     9      180.000000       -0.007817         2
        47        23        24        48     9        0.000000        0.228742         3
        47        23        24        48     9      180.000000        0.021320         4
        47        23        24        49     9        0.000000        0.027766         1
        47        23        24        49     9      180.000000       -0.007817         2
        47        23        24        49     9        0.000000        0.228742         3
        47        23        24        49     9      180.000000        0.021320         4
        50        26        27        52     9        0.000000        0.027766         1
        50        26        27        52     9      180.000000       -0.007817         2
        50        26        27        52     9        0.000000        0.228742         3
        50        26        27        52     9      180.000000        0.021320         4
        50        26        27        53     9        0.000000        0.027766         1
        50        26        27        53     9      180.000000       -0.007817         2
        50        26        27        53     9        0.000000        0.228742         3
        50        26        27        53     9      180.000000        0.021320         4
        51        26        27        52     9        0.000000        0.027766         1
        51        26        27        52     9      180.000000       -0.007817         2
        51        26        27        52     9        0.000000        0.228742         3
        51        26        27        52     9      180.000000        0.021320         4
        51        26        27        53     9        0.000000        0.027766         1
        51        26        27        53     9      180.000000       -0.007817         2
        51        26        27        53     9        0.000000        0.228742         3
        51        26        27        53     9      180.000000        0.021320         4
        56        33        34        57     9        0.000000       -0.075054         1
        56        33        34        57     9      180.000000       11.882012         2
        56        33        34        57     9        0.000000       -0.701535         3
        56        33        34        57     9      180.000000        0.311132         4
        57        34        35        58     9        0.000000       -0.075951         1
        57        34        35        58     9      180.000000       11.581401         2
        57        34        35        58     9        0.000000       -0.597888         3
        57        34        35        58     9      180.000000        0.262465         4
        58        35        36        59     9        0.000000       -0.075951         1
        58        35        36        59     9      180.000000       11.581402         2
        58        35        36        59     9        0.000000       -0.597888         3
        58        35        36        59     9      180.000000        0.262465         4
        59        36        37        60     9        0.000000       -0.075054         1
        59        36        37        60     9      180.000000       11.882012         2
        59        36        37        60     9        0.000000       -0.701535         3
        59        36        37        60     9      180.000000        0.311132         4

[ dihedrals ] ; impropers
;       ai        aj        ak        al funct           phase               k        pn
         6         2         7         8     4      180.000000       27.893333         2
         6         7         8         2     4      180.000000       27.893333         2
         6         8         2         7     4      180.000000       27.893333         2
        18        17        19        20     4      180.000000       27.893333         2
        18        19        20        17     4      180.000000       27.893333         2
        18        20        17        19     4      180.000000       27.893333         2
        34        33        35        57     4      180.000000        0.240374         2
        34        35        57        33     4      180.000000        0.240374         2
        34        57        33        35     4      180.000000        0.240374         2
        35        34        36        58     4      180.000000        0.857013         2
        35        36        58        34     4      180.000000        0.857013         2
        35        58        34        36     4      180.000000        0.857013         2
        36        35        37        59     4      180.000000        0.240374         2
        36        37        59        35     4      180.000000        0.240374         2
        36        59        35        37     4      180.000000        0.240374         2

[ pairs ]
;       ai        aj funct
         1         7     1
         1         8     1
         1        10     1
         1        14     1
         1        15     1
         1        16     1
         2         9     1
         2        15     1
         2        17     1
         3         7     1
         3         8     1
         3         9     1
         3        18     1
         3        42     1
         3        43     1
         4         6     1
         4        10     1
         4        14     1
         4        17     1
         5         6     1
         5        11     1
         5        13     1
         5        16     1
         5        38     1
         5        41     1
         6        16     1
         9        12     1
         9        15     1
         9        21     1
         9        40     1
        10        13     1
        10        22     1
        10        39     1
        10        41     1
        10        44     1
        11        14     1
        11        23     1
        11        27     1
        11        40     1
        11        45     1
        12        22     1
        12        38     1
        12        41     1
        12        44     1
        13        21     1
        14        38     1
        14        39     1
        15        16     1
        16        19     1
        16        20     1
        19        42     1
        19        43     1
        20        42     1
        20        43     1
        21        24     1
        21        26     1
        21        38     1
        21        39     1
        21        46     1
        21        47     1
        21        52     1
        21        53     1
        22        25     1
        22        48     1
        22        49     1
        22        50     1
        22        51     1
        23        26     1
        23        28     1
        23        44     1
        23        52     1
        23        53     1
        24        27     1
        24        29     1
        24        30     1
        24        31     1
        24        45     1
        24        50     1
        24        51     1
        25        32     1
        25        46     1
        25        47     1
        25        52     1
        25        53     1
        25        54     1
        25        55     1
        26        29     1
        26        30     1
        26        31     1
        26        45     1
        26        48     1
        26        49     1
        27        28     1
        27        44     1
        27        46     1
        27        47     1
        28        33     1
        28        37     1
        28        48     1
        28        49     1
        28        50     1
        28        51     1
        29        32     1
        29        54     1
        29        55     1
        30        32     1
        30        54     1
        30        55     1
        31        34     1
        31        36     1
        31        56     1
        31        60     1
        32        35     1
        32        57     1
        32        59     1
        33        36     1
        33        54     1
        33        55     1
        33        58     1
        33        60     1
        34        37     1
        34        59     1
        35        56     1
        35        60     1
        36        57     1
        37        54     1
        37        55     1
        37        56     1
        37        58     1
        39        40     1
        40        41     1
        44        45     1
        45        46     1
        45        47     1
        45        52     1
        45        53     1
        46        48     1
        46        49     1
        47        48     1
        47        49     1
        50        52     1
        50        53     1
        51        52     1
        51        53     1
        56        57     1
        57        58     1
        58        59     1
        59        60     1
