; ITP file created by ByteFF-ML, 2026-02-21 08:23:35.552896

[ atomtypes ]
;name           bonded.type        at.num        mass        charge   ptype           sigma         epsilon
 s0bf                                  16      0.0000       0.00000       A     3.53064e-01     1.17901e+00
 c1bf                                   6      0.0000       0.00000       A     3.31755e-01     4.09816e-01
 c2bf                                   6      0.0000       0.00000       A     3.31349e-01     4.08441e-01
 c3bf                                   6      0.0000       0.00000       A     3.31198e-01     4.12218e-01
 c4bf                                   6      0.0000       0.00000       A     3.31630e-01     4.13561e-01
 c5bf                                   6      0.0000       0.00000       A     3.31455e-01     4.10610e-01
 o6bf                                   8      0.0000       0.00000       A     3.05104e-01     6.09960e-01
 o7bf                                   8      0.0000       0.00000       A     3.05104e-01     6.09960e-01
 c8bf                                   6      0.0000       0.00000       A     3.31407e-01     4.09944e-01
 c9bf                                   6      0.0000       0.00000       A     3.31733e-01     4.14065e-01
 c10bf                                  6      0.0000       0.00000       A     3.31483e-01     4.11278e-01
 c11bf                                  6      0.0000       0.00000       A     3.31454e-01     4.12646e-01
 c12bf                                  6      0.0000       0.00000       A     3.31487e-01     4.13404e-01
 c13bf                                  6      0.0000       0.00000       A     3.31465e-01     4.11762e-01
 br14bf                                35      0.0000       0.00000       A     3.61379e-01     1.65034e+00
 o15bf                                  8      0.0000       0.00000       A     3.15911e-01     3.03161e-01
 c16bf                                  6      0.0000       0.00000       A     3.39643e-01     4.49664e-01
 c17bf                                  6      0.0000       0.00000       A     3.31634e-01     4.10394e-01
 o18bf                                  8      0.0000       0.00000       A     3.04741e-01     6.09601e-01
 o19bf                                  8      0.0000       0.00000       A     3.04741e-01     6.09601e-01
 n20bf                                  7      0.0000       0.00000       A     3.27994e-01     6.42927e-01
 c21bf                                  6      0.0000       0.00000       A     3.39801e-01     4.52264e-01
 c22bf                                  6      0.0000       0.00000       A     3.39719e-01     4.48465e-01
 c23bf                                  6      0.0000       0.00000       A     3.39976e-01     4.48966e-01
 c24bf                                  6      0.0000       0.00000       A     3.39769e-01     4.48850e-01
 c25bf                                  6      0.0000       0.00000       A     3.39976e-01     4.48966e-01
 c26bf                                  6      0.0000       0.00000       A     3.39719e-01     4.48465e-01
 h27bf                                  1      0.0000       0.00000       A     2.62345e-01     6.78010e-02
 h28bf                                  1      0.0000       0.00000       A     2.62464e-01     6.74084e-02
 h29bf                                  1      0.0000       0.00000       A     2.62530e-01     6.75680e-02
 h30bf                                  1      0.0000       0.00000       A     2.62513e-01     6.75409e-02
 h31bf                                  1      0.0000       0.00000       A     2.41481e-01     8.75971e-02
 h32bf                                  1      0.0000       0.00000       A     2.41481e-01     8.75971e-02
 h33bf                                  1      0.0000       0.00000       A     1.10452e-01     4.15441e-02
 h34bf                                  1      0.0000       0.00000       A     2.42199e-01     8.55078e-02
 h35bf                                  1      0.0000       0.00000       A     2.59802e-01     8.70177e-02
 h36bf                                  1      0.0000       0.00000       A     2.59802e-01     8.70177e-02
 h37bf                                  1      0.0000       0.00000       A     2.59802e-01     8.70177e-02
 h38bf                                  1      0.0000       0.00000       A     2.59802e-01     8.70177e-02
 c39bf                                  6      0.0000       0.00000       A     3.39855e-01     4.50438e-01
 h40bf                                  1      0.0000       0.00000       A     2.59795e-01     8.78812e-02
 h41bf                                  1      0.0000       0.00000       A     2.59795e-01     8.78812e-02
 h42bf                                  1      0.0000       0.00000       A     2.59795e-01     8.78812e-02
 c43bf                                  6      0.0000       0.00000       A     3.39855e-01     4.50438e-01
 h44bf                                  1      0.0000       0.00000       A     2.59795e-01     8.78812e-02
 h45bf                                  1      0.0000       0.00000       A     2.59795e-01     8.78812e-02
 h46bf                                  1      0.0000       0.00000       A     2.59795e-01     8.78812e-02
 c47bf                                  6      0.0000       0.00000       A     3.39855e-01     4.50438e-01
 h48bf                                  1      0.0000       0.00000       A     2.59795e-01     8.78812e-02
 h49bf                                  1      0.0000       0.00000       A     2.59795e-01     8.78812e-02
 h50bf                                  1      0.0000       0.00000       A     2.59795e-01     8.78812e-02
 c51bf                                  6      0.0000       0.00000       A     3.39855e-01     4.50438e-01
 h52bf                                  1      0.0000       0.00000       A     2.59795e-01     8.78812e-02
 h53bf                                  1      0.0000       0.00000       A     2.59795e-01     8.78812e-02
 h54bf                                  1      0.0000       0.00000       A     2.59795e-01     8.78812e-02
 h55bf                                  1      0.0000       0.00000       A     2.59907e-01     8.66171e-02
 h56bf                                  1      0.0000       0.00000       A     2.59907e-01     8.66171e-02

[ moleculetype ]
;name             nrexcl
 23330                 3

[ atoms ]
;       nr            type      resi   res      atom      cgnr      charge          mass ; qtot
         1            s0bf         1   UNL        s0         1     0.19677       32.0670 ; qtot    0.197
         2            c1bf         1   UNL        c1         2    -0.26026       12.0110 ; qtot   -0.063
         3            c2bf         1   UNL        c2         3     0.11437       12.0110 ; qtot    0.051
         4            c3bf         1   UNL        c3         4    -0.05837       12.0110 ; qtot   -0.007
         5            c4bf         1   UNL        c4         5    -0.16790       12.0110 ; qtot   -0.175
         6            c5bf         1   UNL        c5         6     0.72713       12.0110 ; qtot    0.552
         7            o6bf         1   UNL        o6         7    -0.72308       15.9990 ; qtot   -0.171
         8            o7bf         1   UNL        o7         8    -0.72308       15.9990 ; qtot   -0.894
         9            c8bf         1   UNL        c8         9     0.01360       12.0110 ; qtot   -0.881
        10            c9bf         1   UNL        c9        10    -0.15550       12.0110 ; qtot   -1.036
        11           c10bf         1   UNL       c10        11     0.30052       12.0110 ; qtot   -0.736
        12           c11bf         1   UNL       c11        12    -0.17262       12.0110 ; qtot   -0.908
        13           c12bf         1   UNL       c12        13    -0.07788       12.0110 ; qtot   -0.986
        14           c13bf         1   UNL       c13        14    -0.11595       12.0110 ; qtot   -1.102
        15          br14bf         1   UNL      br14        15    -0.08621       79.9040 ; qtot   -1.188
        16           o15bf         1   UNL       o15        16    -0.35606       15.9990 ; qtot   -1.545
        17           c16bf         1   UNL       c16        17    -0.01490       12.0110 ; qtot   -1.559
        18           c17bf         1   UNL       c17        18     0.70991       12.0110 ; qtot   -0.850
        19           o18bf         1   UNL       o18        19    -0.73348       15.9990 ; qtot   -1.583
        20           o19bf         1   UNL       o19        20    -0.73348       15.9990 ; qtot   -2.316
        21           n20bf         1   UNL       n20        21    -0.93260       14.0070 ; qtot   -3.249
        22           c21bf         1   UNL       c21        22     0.20794       12.0110 ; qtot   -3.041
        23           c22bf         1   UNL       c22        23    -0.07908       12.0110 ; qtot   -3.120
        24           c23bf         1   UNL       c23        24    -0.04584       12.0110 ; qtot   -3.166
        25           c24bf         1   UNL       c24        25    -0.06659       12.0110 ; qtot   -3.233
        26           c25bf         1   UNL       c25        26    -0.04584       12.0110 ; qtot   -3.278
        27           c26bf         1   UNL       c26        27    -0.07908       12.0110 ; qtot   -3.358
        28           h27bf         1   UNL       h27        28     0.11944        1.0080 ; qtot   -3.238
        29           h28bf         1   UNL       h28        29     0.11684        1.0080 ; qtot   -3.121
        30           h29bf         1   UNL       h29        30     0.11522        1.0080 ; qtot   -3.006
        31           h30bf         1   UNL       h30        31     0.12297        1.0080 ; qtot   -2.883
        32           h31bf         1   UNL       h31        32     0.02487        1.0080 ; qtot   -2.858
        33           h32bf         1   UNL       h32        33     0.02487        1.0080 ; qtot   -2.833
        34           h33bf         1   UNL       h33        34     0.44766        1.0080 ; qtot   -2.386
        35           h34bf         1   UNL       h34        35     0.05455        1.0080 ; qtot   -2.331
        36           h35bf         1   UNL       h35        36     0.04628        1.0080 ; qtot   -2.285
        37           h36bf         1   UNL       h36        37     0.04628        1.0080 ; qtot   -2.239
        38           h37bf         1   UNL       h37        38     0.04628        1.0080 ; qtot   -2.192
        39           h38bf         1   UNL       h38        39     0.04628        1.0080 ; qtot   -2.146
        40           c39bf         1   UNL       c39        40    -0.08682       12.0110 ; qtot   -2.233
        41           h40bf         1   UNL       h40        41     0.03467        1.0080 ; qtot   -2.198
        42           h41bf         1   UNL       h41        42     0.03467        1.0080 ; qtot   -2.164
        43           h42bf         1   UNL       h42        43     0.03467        1.0080 ; qtot   -2.129
        44           c43bf         1   UNL       c43        44    -0.08682       12.0110 ; qtot   -2.216
        45           h44bf         1   UNL       h44        45     0.03467        1.0080 ; qtot   -2.181
        46           h45bf         1   UNL       h45        46     0.03467        1.0080 ; qtot   -2.146
        47           h46bf         1   UNL       h46        47     0.03467        1.0080 ; qtot   -2.112
        48           c47bf         1   UNL       c47        48    -0.08682       12.0110 ; qtot   -2.198
        49           h48bf         1   UNL       h48        49     0.03467        1.0080 ; qtot   -2.164
        50           h49bf         1   UNL       h49        50     0.03467        1.0080 ; qtot   -2.129
        51           h50bf         1   UNL       h50        51     0.03467        1.0080 ; qtot   -2.094
        52           c51bf         1   UNL       c51        52    -0.08682       12.0110 ; qtot   -2.181
        53           h52bf         1   UNL       h52        53     0.03467        1.0080 ; qtot   -2.147
        54           h53bf         1   UNL       h53        54     0.03467        1.0080 ; qtot   -2.112
        55           h54bf         1   UNL       h54        55     0.03467        1.0080 ; qtot   -2.077
        56           h55bf         1   UNL       h55        56     0.03865        1.0080 ; qtot   -2.039
        57           h56bf         1   UNL       h56        57     0.03861        1.0080 ; qtot   -2.000

[ bonds ]
;       ai        aj funct               r               k
         1         2     1        0.174464   145572.874683
         1         5     1        0.175012   149020.499365
         2         3     1        0.138277   335024.121436
         2         6     1        0.154034   112597.124561
         3         4     1        0.143994   223875.334033
         3        16     1        0.134833   300010.369531
         4         5     1        0.138169   338414.734521
         4        15     1        0.190996   130541.361816
         5         9     1        0.147084   228751.721680
         6         7     1        0.125984   484107.493164
         6         8     1        0.125984   484107.493164
         9        10     1        0.140377   291227.953320
         9        14     1        0.140541   288006.012842
        10        11     1        0.140742   280197.786279
        10        28     1        0.108446   320758.019580
        11        12     1        0.140989   276427.972656
        11        21     1        0.139526   278997.056934
        12        13     1        0.139570   317260.431543
        12        29     1        0.108555   319413.312012
        13        14     1        0.139561   315911.765723
        13        30     1        0.108655   318238.579443
        14        31     1        0.108491   321875.217041
        16        17     1        0.145852   151865.231201
        17        18     1        0.156538   116742.448608
        17        32     1        0.109566   293138.384473
        17        33     1        0.109566   293138.384473
        18        19     1        0.126057   487285.382129
        18        20     1        0.126057   487285.382129
        21        22     1        0.146646   193181.669385
        21        34     1        0.101300   409899.487939
        22        23     1        0.153968   171421.524023
        22        27     1        0.153968   171421.524023
        22        35     1        0.109549   295421.504199
        23        24     1        0.154781   161145.557202
        23        36     1        0.109532   293796.220410
        23        37     1        0.109532   293796.220410
        24        25     1        0.154833   160054.062842
        24        48     1        0.154003   174787.251196
        24        52     1        0.154003   174787.251196
        25        26     1        0.154833   160054.062842
        25        56     1        0.109647   289957.558740
        25        57     1        0.109647   289957.558740
        26        27     1        0.154781   161145.557202
        26        40     1        0.154003   174787.251196
        26        44     1        0.154003   174787.251196
        27        38     1        0.109532   293796.245947
        27        39     1        0.109532   293796.245947
        40        41     1        0.109485   296803.061816
        40        42     1        0.109485   296803.061816
        40        43     1        0.109485   296803.061816
        44        45     1        0.109485   296803.061816
        44        46     1        0.109485   296803.061816
        44        47     1        0.109485   296803.061816
        48        49     1        0.109485   296803.061816
        48        50     1        0.109485   296803.061816
        48        51     1        0.109485   296803.061816
        52        53     1        0.109485   296803.061816
        52        54     1        0.109485   296803.061816
        52        55     1        0.109485   296803.061816

[ angles ]
;       ai        aj        ak funct           theta             cth
         1         2         3     1      110.160385      167.360000
         1         2         6     1      115.033363      592.691984
         1         5         4     1      108.982101      167.360000
         1         5         9     1      120.225929      422.231428
         2         1         5     1       93.195396      186.526063
         2         3         4     1      112.155884      382.616764
         2         3        16     1      126.134293      420.691381
         2         6         7     1      114.627625      339.029323
         2         6         8     1      114.627625      339.029323
         3         2         6     1      134.051437      467.327122
         3         4         5     1      114.634010      370.337213
         3         4        15     1      121.312027      306.426064
         3        16        17     1      117.821022      473.127047
         4         3        16     1      120.298485      422.691671
         4         5         9     1      130.788895      405.060084
         5         4        15     1      123.746353      284.291870
         5         9        10     1      120.007790      401.373068
         5         9        14     1      120.687035      464.389365
         7         6         8     1      130.398407      705.552920
         9        10        11     1      121.282242      752.470464
         9        10        28     1      119.060143      432.006938
         9        14        13     1      119.572464      680.278779
         9        14        31     1      119.945923      442.999546
        10         9        14     1      119.370499      624.161364
        10        11        12     1      118.375778      643.555331
        10        11        21     1      120.519348      518.270878
        11        10        28     1      119.620193      426.272516
        11        12        13     1      120.154808      764.362840
        11        12        29     1      120.110031      429.854926
        11        21        22     1      122.923668      475.714563
        11        21        34     1      112.777908      497.326459
        12        11        21     1      121.202499      576.882790
        12        13        14     1      121.024757      692.684898
        12        13        30     1      119.224258      431.436279
        13        12        29     1      119.858887      427.872161
        13        14        31     1      120.310341      426.702306
        14        13        30     1      119.644348      436.855158
        16        17        18     1      113.930588      533.838045
        16        17        32     1      107.778183      447.857886
        16        17        33     1      107.778183      447.857886
        17        18        19     1      114.982224      326.587739
        17        18        20     1      114.982224      326.587708
        18        17        32     1      109.132095      476.479910
        18        17        33     1      109.132095      476.479910
        19        18        20     1      130.064850      720.626454
        21        22        23     1      111.133972      581.203031
        21        22        27     1      111.133972      581.203031
        21        22        35     1      107.150490      491.180921
        22        21        34     1      112.542252      473.177451
        22        23        24     1      113.645958      575.441348
        22        23        36     1      108.885056      504.438512
        22        23        37     1      108.885056      504.438512
        22        27        26     1      113.645958      575.441348
        22        27        38     1      108.885056      504.438512
        22        27        39     1      108.885056      504.438512
        23        22        27     1      110.390213      573.929806
        23        22        35     1      107.968185      484.039213
        23        24        25     1      109.058556      575.381208
        23        24        48     1      109.747147      601.072434
        23        24        52     1      109.747147      601.072434
        24        23        36     1      109.469887      473.448208
        24        23        37     1      109.469887      473.448208
        24        25        26     1      115.709572      563.343845
        24        25        56     1      108.967262      477.355290
        24        25        57     1      108.967262      477.355290
        24        48        49     1      111.196106      490.741587
        24        48        50     1      111.196106      490.741587
        24        48        51     1      111.196106      490.741587
        24        52        53     1      111.196106      490.741587
        24        52        54     1      111.196106      490.741587
        24        52        55     1      111.196106      490.741587
        25        24        48     1      109.853561      601.456257
        25        24        52     1      109.853561      601.456257
        25        26        27     1      109.058556      575.381208
        25        26        40     1      109.853561      601.456257
        25        26        44     1      109.853561      601.456257
        26        25        56     1      108.967262      477.355290
        26        25        57     1      108.967262      477.355290
        26        27        38     1      109.469887      473.448208
        26        27        39     1      109.469887      473.448208
        26        40        41     1      111.196106      490.741587
        26        40        42     1      111.196106      490.741587
        26        40        43     1      111.196106      490.741587
        26        44        45     1      111.196106      490.741587
        26        44        46     1      111.196106      490.741587
        26        44        47     1      111.196106      490.741587
        27        22        35     1      107.968185      484.039213
        27        26        40     1      109.747147      601.072434
        27        26        44     1      109.747147      601.072434
        32        17        33     1      108.416725      344.620386
        36        23        37     1      106.484093      360.594997
        38        27        39     1      106.484093      360.594997
        40        26        44     1      108.687607      619.253132
        41        40        42     1      107.754837      363.044070
        41        40        43     1      107.754837      363.044070
        42        40        43     1      107.754837      363.044070
        45        44        46     1      107.754837      363.044038
        45        44        47     1      107.754837      363.044038
        46        44        47     1      107.754837      363.044038
        48        24        52     1      108.687599      619.253132
        49        48        50     1      107.754837      363.044038
        49        48        51     1      107.754837      363.044038
        50        48        51     1      107.754837      363.044038
        53        52        54     1      107.754837      363.044038
        53        52        55     1      107.754837      363.044038
        54        52        55     1      107.754837      363.044038
        56        25        57     1      106.070938      364.160137

[ dihedrals ] ; propers for gromacs 4.5 or higher, use funct 9
;       ai        aj        ak        al funct           phase               k        pn
         1         2         3         4     9        0.000000       -0.157449         1
         1         2         3         4     9      180.000000       23.193074         2
         1         2         3         4     9        0.000000       -4.968979         3
         1         2         3         4     9      180.000000       -0.609654         4
         1         2         3        16     9        0.000000        0.970784         1
         1         2         3        16     9      180.000000       21.885524         2
         1         2         3        16     9        0.000000        0.406670         3
         1         2         3        16     9      180.000000       -1.347848         4
         1         2         6         7     9        0.000000        1.117411         1
         1         2         6         7     9      180.000000        4.117929         2
         1         2         6         7     9        0.000000        0.067199         3
         1         2         6         7     9      180.000000        0.180393         4
         1         2         6         8     9        0.000000        1.117411         1
         1         2         6         8     9      180.000000        4.117929         2
         1         2         6         8     9        0.000000        0.067199         3
         1         2         6         8     9      180.000000        0.180393         4
         1         5         4         3     9        0.000000       -0.306829         1
         1         5         4         3     9      180.000000       24.522085         2
         1         5         4         3     9        0.000000       -5.964297         3
         1         5         4         3     9      180.000000       -0.599844         4
         1         5         4        15     9        0.000000        0.499553         1
         1         5         4        15     9      180.000000       17.380840         2
         1         5         4        15     9        0.000000        0.197540         3
         1         5         4        15     9      180.000000       -1.066303         4
         1         5         9        10     9        0.000000       -0.425147         1
         1         5         9        10     9      180.000000        3.268779         2
         1         5         9        10     9        0.000000       -0.033326         3
         1         5         9        10     9      180.000000        0.312058         4
         1         5         9        14     9        0.000000       -0.234776         1
         1         5         9        14     9      180.000000        3.130943         2
         1         5         9        14     9        0.000000        0.163278         3
         1         5         9        14     9      180.000000        0.213167         4
         2         1         5         4     9        0.000000       -0.388546         1
         2         1         5         4     9      180.000000       24.242164         2
         2         1         5         4     9        0.000000       -5.021316         3
         2         1         5         4     9      180.000000       -0.471890         4
         2         1         5         9     9        0.000000       -0.206097         1
         2         1         5         9     9      180.000000       15.224347         2
         2         1         5         9     9        0.000000        0.250585         3
         2         1         5         9     9      180.000000       -0.604674         4
         2         3         4         5     9        0.000000       -0.251748         1
         2         3         4         5     9      180.000000       14.214229         2
         2         3         4         5     9        0.000000       -2.698729         3
         2         3         4         5     9      180.000000       -0.310431         4
         2         3         4        15     9        0.000000        0.248323         1
         2         3         4        15     9      180.000000       11.562275         2
         2         3         4        15     9        0.000000        0.148422         3
         2         3         4        15     9      180.000000       -0.630060         4
         2         3        16        17     9        0.000000        0.701674         1
         2         3        16        17     9      180.000000        2.973538         2
         2         3        16        17     9        0.000000        0.307642         3
         2         3        16        17     9      180.000000       -0.218272         4
         3         2         1         5     9        0.000000       -0.083281         1
         3         2         1         5     9      180.000000       22.870917         2
         3         2         1         5     9        0.000000       -3.551991         3
         3         2         1         5     9      180.000000       -0.695859         4
         3         2         6         7     9        0.000000       -5.137617         1
         3         2         6         7     9      180.000000        2.933940         2
         3         2         6         7     9        0.000000        0.193554         3
         3         2         6         7     9      180.000000       -0.187922         4
         3         2         6         8     9        0.000000       -5.137617         1
         3         2         6         8     9      180.000000        2.933940         2
         3         2         6         8     9        0.000000        0.193554         3
         3         2         6         8     9      180.000000       -0.187922         4
         3         4         5         9     9        0.000000        0.188116         1
         3         4         5         9     9      180.000000       16.319500         2
         3         4         5         9     9        0.000000       -0.399596         3
         3         4         5         9     9      180.000000       -1.039713         4
         3        16        17        18     9        0.000000       -4.760844         1
         3        16        17        18     9      180.000000       -1.857167         2
         3        16        17        18     9        0.000000        0.352751         3
         3        16        17        18     9      180.000000        0.004621         4
         3        16        17        32     9        0.000000       -0.294822         1
         3        16        17        32     9      180.000000       -0.281191         2
         3        16        17        32     9        0.000000        0.570610         3
         3        16        17        32     9      180.000000        0.007077         4
         3        16        17        33     9        0.000000       -0.294822         1
         3        16        17        33     9      180.000000       -0.281191         2
         3        16        17        33     9        0.000000        0.570610         3
         3        16        17        33     9      180.000000        0.007077         4
         4         3         2         6     9        0.000000       -0.190053         1
         4         3         2         6     9      180.000000       11.755029         2
         4         3         2         6     9        0.000000       -0.719247         3
         4         3         2         6     9      180.000000       -0.502059         4
         4         3        16        17     9        0.000000        2.857399         1
         4         3        16        17     9      180.000000        2.426502         2
         4         3        16        17     9        0.000000        0.581872         3
         4         3        16        17     9      180.000000       -0.192707         4
         4         5         9        10     9        0.000000       -0.333835         1
         4         5         9        10     9      180.000000        2.272960         2
         4         5         9        10     9        0.000000       -0.067112         3
         4         5         9        10     9      180.000000        0.026737         4
         4         5         9        14     9        0.000000        0.327177         1
         4         5         9        14     9      180.000000        2.100762         2
         4         5         9        14     9        0.000000       -0.053534         3
         4         5         9        14     9      180.000000        0.035750         4
         5         1         2         6     9        0.000000        0.985272         1
         5         1         2         6     9      180.000000       10.250466         2
         5         1         2         6     9        0.000000       -0.288305         3
         5         1         2         6     9      180.000000        0.044596         4
         5         4         3        16     9        0.000000        0.518482         1
         5         4         3        16     9      180.000000       12.721722         2
         5         4         3        16     9        0.000000        0.352406         3
         5         4         3        16     9      180.000000       -0.184802         4
         5         9        10        11     9        0.000000        0.371647         1
         5         9        10        11     9      180.000000       15.800528         2
         5         9        10        11     9        0.000000        0.005688         3
         5         9        10        11     9      180.000000       -0.389350         4
         5         9        10        28     9        0.000000        0.048615         1
         5         9        10        28     9      180.000000       13.061744         2
         5         9        10        28     9        0.000000       -0.174551         3
         5         9        10        28     9      180.000000        0.168319         4
         5         9        14        13     9        0.000000        0.323235         1
         5         9        14        13     9      180.000000       16.538936         2
         5         9        14        13     9        0.000000       -0.195176         3
         5         9        14        13     9      180.000000       -0.362011         4
         5         9        14        31     9        0.000000        0.092667         1
         5         9        14        31     9      180.000000       12.926460         2
         5         9        14        31     9        0.000000       -0.242138         3
         5         9        14        31     9      180.000000        0.176107         4
         6         2         3        16     9        0.000000        0.216703         1
         6         2         3        16     9      180.000000       15.170354         2
         6         2         3        16     9        0.000000        0.500829         3
         6         2         3        16     9      180.000000       -0.921398         4
         9         5         4        15     9        0.000000        0.444437         1
         9         5         4        15     9      180.000000       13.006978         2
         9         5         4        15     9        0.000000        0.562767         3
         9         5         4        15     9      180.000000       -0.482422         4
         9        10        11        12     9        0.000000        0.059642         1
         9        10        11        12     9      180.000000       15.493287         2
         9        10        11        12     9        0.000000       -0.815862         3
         9        10        11        12     9      180.000000       -0.189726         4
         9        10        11        21     9        0.000000        0.257304         1
         9        10        11        21     9      180.000000       17.182554         2
         9        10        11        21     9        0.000000        0.248576         3
         9        10        11        21     9      180.000000       -0.428144         4
         9        14        13        12     9        0.000000        0.008362         1
         9        14        13        12     9      180.000000       19.169942         2
         9        14        13        12     9        0.000000       -1.601727         3
         9        14        13        12     9      180.000000       -0.448224         4
         9        14        13        30     9        0.000000       -0.030494         1
         9        14        13        30     9      180.000000       15.022380         2
         9        14        13        30     9        0.000000       -0.524511         3
         9        14        13        30     9      180.000000        0.059106         4
        10         9        14        13     9        0.000000       -0.118252         1
        10         9        14        13     9      180.000000       17.939734         2
        10         9        14        13     9        0.000000       -1.432276         3
        10         9        14        13     9      180.000000       -0.289354         4
        10         9        14        31     9        0.000000       -0.041016         1
        10         9        14        31     9      180.000000       13.590058         2
        10         9        14        31     9        0.000000       -0.500060         3
        10         9        14        31     9      180.000000        0.135491         4
        10        11        12        13     9        0.000000        0.084500         1
        10        11        12        13     9      180.000000       15.445870         2
        10        11        12        13     9        0.000000       -0.749013         3
        10        11        12        13     9      180.000000       -0.158771         4
        10        11        12        29     9        0.000000        0.100985         1
        10        11        12        29     9      180.000000       12.283458         2
        10        11        12        29     9        0.000000       -0.302960         3
        10        11        12        29     9      180.000000        0.152739         4
        10        11        21        22     9        0.000000       -0.016445         1
        10        11        21        22     9      180.000000        4.380685         2
        10        11        21        22     9        0.000000        0.394639         3
        10        11        21        22     9      180.000000       -0.123276         4
        10        11        21        34     9        0.000000        0.429561         1
        10        11        21        34     9      180.000000        5.473411         2
        10        11        21        34     9        0.000000        0.013982         3
        10        11        21        34     9      180.000000       -0.452349         4
        11        10         9        14     9        0.000000       -0.200068         1
        11        10         9        14     9      180.000000       17.806994         2
        11        10         9        14     9        0.000000       -1.588766         3
        11        10         9        14     9      180.000000       -0.402748         4
        11        12        13        14     9        0.000000       -0.024912         1
        11        12        13        14     9      180.000000       18.028415         2
        11        12        13        14     9        0.000000       -1.593670         3
        11        12        13        14     9      180.000000       -0.416432         4
        11        12        13        30     9        0.000000        0.016942         1
        11        12        13        30     9      180.000000       14.276363         2
        11        12        13        30     9        0.000000       -0.581911         3
        11        12        13        30     9      180.000000        0.067359         4
        11        21        22        23     9        0.000000        1.226158         1
        11        21        22        23     9      180.000000        0.124993         2
        11        21        22        23     9        0.000000        1.060215         3
        11        21        22        23     9      180.000000        0.039804         4
        11        21        22        27     9        0.000000        1.226158         1
        11        21        22        27     9      180.000000        0.124993         2
        11        21        22        27     9        0.000000        1.060215         3
        11        21        22        27     9      180.000000        0.039804         4
        11        21        22        35     9        0.000000       -1.541166         1
        11        21        22        35     9      180.000000        0.020950         2
        11        21        22        35     9        0.000000        1.356752         3
        11        21        22        35     9      180.000000       -0.077339         4
        12        11        10        28     9        0.000000        0.094543         1
        12        11        10        28     9      180.000000       12.302434         2
        12        11        10        28     9        0.000000       -0.330069         3
        12        11        10        28     9      180.000000        0.189144         4
        12        11        21        22     9        0.000000        0.193460         1
        12        11        21        22     9      180.000000        4.323055         2
        12        11        21        22     9        0.000000        0.568523         3
        12        11        21        22     9      180.000000       -0.195305         4
        12        11        21        34     9        0.000000       -0.025658         1
        12        11        21        34     9      180.000000        5.479917         2
        12        11        21        34     9        0.000000        0.054681         3
        12        11        21        34     9      180.000000       -0.453777         4
        12        13        14        31     9        0.000000        0.059409         1
        12        13        14        31     9      180.000000       14.509544         2
        12        13        14        31     9        0.000000       -0.716558         3
        12        13        14        31     9      180.000000        0.159687         4
        13        12        11        21     9        0.000000        0.249927         1
        13        12        11        21     9      180.000000       16.910588         2
        13        12        11        21     9        0.000000        0.152844         3
        13        12        11        21     9      180.000000       -0.178929         4
        14         9        10        28     9        0.000000        0.077332         1
        14         9        10        28     9      180.000000       13.475286         2
        14         9        10        28     9        0.000000       -0.459271         3
        14         9        10        28     9      180.000000        0.143299         4
        14        13        12        29     9        0.000000        0.105666         1
        14        13        12        29     9      180.000000       14.164094         2
        14        13        12        29     9        0.000000       -0.635373         3
        14        13        12        29     9      180.000000        0.151672         4
        15         4         3        16     9        0.000000       -0.153280         1
        15         4         3        16     9      180.000000       12.598060         2
        15         4         3        16     9        0.000000        0.466981         3
        15         4         3        16     9      180.000000       -0.523506         4
        16        17        18        19     9        0.000000       -1.573021         1
        16        17        18        19     9      180.000000        4.124889         2
        16        17        18        19     9        0.000000        0.247417         3
        16        17        18        19     9      180.000000        0.125480         4
        16        17        18        20     9        0.000000       -1.573021         1
        16        17        18        20     9      180.000000        4.124889         2
        16        17        18        20     9        0.000000        0.247417         3
        16        17        18        20     9      180.000000        0.125480         4
        19        18        17        32     9        0.000000        0.050675         1
        19        18        17        32     9      180.000000       -0.380925         2
        19        18        17        32     9        0.000000        0.149856         3
        19        18        17        32     9      180.000000        0.058403         4
        19        18        17        33     9        0.000000        0.050675         1
        19        18        17        33     9      180.000000       -0.380925         2
        19        18        17        33     9        0.000000        0.149856         3
        19        18        17        33     9      180.000000        0.058403         4
        20        18        17        32     9        0.000000        0.050675         1
        20        18        17        32     9      180.000000       -0.380925         2
        20        18        17        32     9        0.000000        0.149856         3
        20        18        17        32     9      180.000000        0.058403         4
        20        18        17        33     9        0.000000        0.050675         1
        20        18        17        33     9      180.000000       -0.380925         2
        20        18        17        33     9        0.000000        0.149856         3
        20        18        17        33     9      180.000000        0.058403         4
        21        11        10        28     9        0.000000       -0.225608         1
        21        11        10        28     9      180.000000       14.137703         2
        21        11        10        28     9        0.000000       -0.030630         3
        21        11        10        28     9      180.000000        0.256581         4
        21        11        12        29     9        0.000000       -0.291414         1
        21        11        12        29     9      180.000000       13.790832         2
        21        11        12        29     9        0.000000       -0.095950         3
        21        11        12        29     9      180.000000        0.258534         4
        21        22        23        24     9        0.000000       -0.750129         1
        21        22        23        24     9      180.000000       -0.612684         2
        21        22        23        24     9        0.000000        0.270050         3
        21        22        23        24     9      180.000000        0.206664         4
        21        22        23        36     9        0.000000       -0.039810         1
        21        22        23        36     9      180.000000        0.090591         2
        21        22        23        36     9        0.000000        0.337305         3
        21        22        23        36     9      180.000000       -0.024326         4
        21        22        23        37     9        0.000000       -0.039810         1
        21        22        23        37     9      180.000000        0.090591         2
        21        22        23        37     9        0.000000        0.337305         3
        21        22        23        37     9      180.000000       -0.024326         4
        21        22        27        26     9        0.000000       -0.750129         1
        21        22        27        26     9      180.000000       -0.612684         2
        21        22        27        26     9        0.000000        0.270050         3
        21        22        27        26     9      180.000000        0.206664         4
        21        22        27        38     9        0.000000       -0.039810         1
        21        22        27        38     9      180.000000        0.090591         2
        21        22        27        38     9        0.000000        0.337305         3
        21        22        27        38     9      180.000000       -0.024326         4
        21        22        27        39     9        0.000000       -0.039810         1
        21        22        27        39     9      180.000000        0.090591         2
        21        22        27        39     9        0.000000        0.337305         3
        21        22        27        39     9      180.000000       -0.024326         4
        22        23        24        25     9        0.000000        3.962308         1
        22        23        24        25     9      180.000000       -2.428461         2
        22        23        24        25     9        0.000000       -0.252517         3
        22        23        24        25     9      180.000000        0.037913         4
        22        23        24        48     9        0.000000       -0.726155         1
        22        23        24        48     9      180.000000        0.487973         2
        22        23        24        48     9        0.000000        0.234215         3
        22        23        24        48     9      180.000000        0.001975         4
        22        23        24        52     9        0.000000       -0.726155         1
        22        23        24        52     9      180.000000        0.487973         2
        22        23        24        52     9        0.000000        0.234215         3
        22        23        24        52     9      180.000000        0.001975         4
        22        27        26        25     9        0.000000        3.962308         1
        22        27        26        25     9      180.000000       -2.428461         2
        22        27        26        25     9        0.000000       -0.252517         3
        22        27        26        25     9      180.000000        0.037913         4
        22        27        26        40     9        0.000000       -0.726155         1
        22        27        26        40     9      180.000000        0.487973         2
        22        27        26        40     9        0.000000        0.234215         3
        22        27        26        40     9      180.000000        0.001975         4
        22        27        26        44     9        0.000000       -0.726155         1
        22        27        26        44     9      180.000000        0.487973         2
        22        27        26        44     9        0.000000        0.234215         3
        22        27        26        44     9      180.000000        0.001975         4
        23        22        21        34     9        0.000000        0.491082         1
        23        22        21        34     9      180.000000       -0.106646         2
        23        22        21        34     9        0.000000       -0.024084         3
        23        22        21        34     9      180.000000        0.060186         4
        23        22        27        26     9        0.000000        4.321129         1
        23        22        27        26     9      180.000000       -2.176356         2
        23        22        27        26     9        0.000000       -0.148581         3
        23        22        27        26     9      180.000000        0.048076         4
        23        22        27        38     9        0.000000       -0.059383         1
        23        22        27        38     9      180.000000        0.060864         2
        23        22        27        38     9        0.000000        0.245517         3
        23        22        27        38     9      180.000000        0.034749         4
        23        22        27        39     9        0.000000       -0.059383         1
        23        22        27        39     9      180.000000        0.060864         2
        23        22        27        39     9        0.000000        0.245517         3
        23        22        27        39     9      180.000000        0.034749         4
        23        24        25        26     9        0.000000        5.853553         1
        23        24        25        26     9      180.000000       -2.951836         2
        23        24        25        26     9        0.000000       -0.441185         3
        23        24        25        26     9      180.000000        0.173067         4
        23        24        25        56     9        0.000000       -0.115192         1
        23        24        25        56     9      180.000000        0.041538         2
        23        24        25        56     9        0.000000        0.213491         3
        23        24        25        56     9      180.000000        0.027914         4
        23        24        25        57     9        0.000000       -0.115192         1
        23        24        25        57     9      180.000000        0.041538         2
        23        24        25        57     9        0.000000        0.213491         3
        23        24        25        57     9      180.000000        0.027914         4
        23        24        48        49     9        0.000000       -0.052276         1
        23        24        48        49     9      180.000000        0.001948         2
        23        24        48        49     9        0.000000        0.449755         3
        23        24        48        49     9      180.000000        0.005836         4
        23        24        48        50     9        0.000000       -0.052276         1
        23        24        48        50     9      180.000000        0.001948         2
        23        24        48        50     9        0.000000        0.449755         3
        23        24        48        50     9      180.000000        0.005836         4
        23        24        48        51     9        0.000000       -0.052276         1
        23        24        48        51     9      180.000000        0.001948         2
        23        24        48        51     9        0.000000        0.449755         3
        23        24        48        51     9      180.000000        0.005836         4
        23        24        52        53     9        0.000000       -0.052276         1
        23        24        52        53     9      180.000000        0.001948         2
        23        24        52        53     9        0.000000        0.449755         3
        23        24        52        53     9      180.000000        0.005836         4
        23        24        52        54     9        0.000000       -0.052276         1
        23        24        52        54     9      180.000000        0.001948         2
        23        24        52        54     9        0.000000        0.449755         3
        23        24        52        54     9      180.000000        0.005836         4
        23        24        52        55     9        0.000000       -0.052276         1
        23        24        52        55     9      180.000000        0.001948         2
        23        24        52        55     9        0.000000        0.449755         3
        23        24        52        55     9      180.000000        0.005836         4
        24        23        22        27     9        0.000000        4.321129         1
        24        23        22        27     9      180.000000       -2.176356         2
        24        23        22        27     9        0.000000       -0.148581         3
        24        23        22        27     9      180.000000        0.048076         4
        24        23        22        35     9        0.000000       -0.479169         1
        24        23        22        35     9      180.000000       -0.011435         2
        24        23        22        35     9        0.000000        0.200750         3
        24        23        22        35     9      180.000000        0.067484         4
        24        25        26        27     9        0.000000        5.853553         1
        24        25        26        27     9      180.000000       -2.951836         2
        24        25        26        27     9        0.000000       -0.441185         3
        24        25        26        27     9      180.000000        0.173067         4
        24        25        26        40     9        0.000000       -0.585341         1
        24        25        26        40     9      180.000000        0.502166         2
        24        25        26        40     9        0.000000        0.275366         3
        24        25        26        40     9      180.000000       -0.031195         4
        24        25        26        44     9        0.000000       -0.585340         1
        24        25        26        44     9      180.000000        0.502165         2
        24        25        26        44     9        0.000000        0.275366         3
        24        25        26        44     9      180.000000       -0.031195         4
        25        24        23        36     9        0.000000       -0.091471         1
        25        24        23        36     9      180.000000        0.065160         2
        25        24        23        36     9        0.000000        0.161450         3
        25        24        23        36     9      180.000000        0.030805         4
        25        24        23        37     9        0.000000       -0.091471         1
        25        24        23        37     9      180.000000        0.065160         2
        25        24        23        37     9        0.000000        0.161450         3
        25        24        23        37     9      180.000000        0.030805         4
        25        24        48        49     9        0.000000       -0.026552         1
        25        24        48        49     9      180.000000       -0.009137         2
        25        24        48        49     9        0.000000        0.426884         3
        25        24        48        49     9      180.000000        0.004822         4
        25        24        48        50     9        0.000000       -0.026552         1
        25        24        48        50     9      180.000000       -0.009137         2
        25        24        48        50     9        0.000000        0.426884         3
        25        24        48        50     9      180.000000        0.004822         4
        25        24        48        51     9        0.000000       -0.026552         1
        25        24        48        51     9      180.000000       -0.009137         2
        25        24        48        51     9        0.000000        0.426884         3
        25        24        48        51     9      180.000000        0.004822         4
        25        24        52        53     9        0.000000       -0.026552         1
        25        24        52        53     9      180.000000       -0.009137         2
        25        24        52        53     9        0.000000        0.426884         3
        25        24        52        53     9      180.000000        0.004822         4
        25        24        52        54     9        0.000000       -0.026552         1
        25        24        52        54     9      180.000000       -0.009137         2
        25        24        52        54     9        0.000000        0.426884         3
        25        24        52        54     9      180.000000        0.004822         4
        25        24        52        55     9        0.000000       -0.026552         1
        25        24        52        55     9      180.000000       -0.009137         2
        25        24        52        55     9        0.000000        0.426884         3
        25        24        52        55     9      180.000000        0.004822         4
        25        26        27        38     9        0.000000       -0.091471         1
        25        26        27        38     9      180.000000        0.065160         2
        25        26        27        38     9        0.000000        0.161450         3
        25        26        27        38     9      180.000000        0.030805         4
        25        26        27        39     9        0.000000       -0.091471         1
        25        26        27        39     9      180.000000        0.065160         2
        25        26        27        39     9        0.000000        0.161450         3
        25        26        27        39     9      180.000000        0.030805         4
        25        26        40        41     9        0.000000       -0.026552         1
        25        26        40        41     9      180.000000       -0.009137         2
        25        26        40        41     9        0.000000        0.426884         3
        25        26        40        41     9      180.000000        0.004822         4
        25        26        40        42     9        0.000000       -0.026552         1
        25        26        40        42     9      180.000000       -0.009137         2
        25        26        40        42     9        0.000000        0.426884         3
        25        26        40        42     9      180.000000        0.004822         4
        25        26        40        43     9        0.000000       -0.026552         1
        25        26        40        43     9      180.000000       -0.009137         2
        25        26        40        43     9        0.000000        0.426884         3
        25        26        40        43     9      180.000000        0.004822         4
        25        26        44        45     9        0.000000       -0.026552         1
        25        26        44        45     9      180.000000       -0.009137         2
        25        26        44        45     9        0.000000        0.426884         3
        25        26        44        45     9      180.000000        0.004822         4
        25        26        44        46     9        0.000000       -0.026552         1
        25        26        44        46     9      180.000000       -0.009137         2
        25        26        44        46     9        0.000000        0.426884         3
        25        26        44        46     9      180.000000        0.004822         4
        25        26        44        47     9        0.000000       -0.026552         1
        25        26        44        47     9      180.000000       -0.009137         2
        25        26        44        47     9        0.000000        0.426884         3
        25        26        44        47     9      180.000000        0.004822         4
        26        25        24        48     9        0.000000       -0.585340         1
        26        25        24        48     9      180.000000        0.502165         2
        26        25        24        48     9        0.000000        0.275366         3
        26        25        24        48     9      180.000000       -0.031195         4
        26        25        24        52     9        0.000000       -0.585340         1
        26        25        24        52     9      180.000000        0.502165         2
        26        25        24        52     9        0.000000        0.275366         3
        26        25        24        52     9      180.000000       -0.031195         4
        26        27        22        35     9        0.000000       -0.479169         1
        26        27        22        35     9      180.000000       -0.011435         2
        26        27        22        35     9        0.000000        0.200750         3
        26        27        22        35     9      180.000000        0.067484         4
        27        22        21        34     9        0.000000        0.491082         1
        27        22        21        34     9      180.000000       -0.106646         2
        27        22        21        34     9        0.000000       -0.024084         3
        27        22        21        34     9      180.000000        0.060186         4
        27        22        23        36     9        0.000000       -0.059383         1
        27        22        23        36     9      180.000000        0.060864         2
        27        22        23        36     9        0.000000        0.245517         3
        27        22        23        36     9      180.000000        0.034749         4
        27        22        23        37     9        0.000000       -0.059383         1
        27        22        23        37     9      180.000000        0.060864         2
        27        22        23        37     9        0.000000        0.245517         3
        27        22        23        37     9      180.000000        0.034749         4
        27        26        25        56     9        0.000000       -0.115192         1
        27        26        25        56     9      180.000000        0.041538         2
        27        26        25        56     9        0.000000        0.213491         3
        27        26        25        56     9      180.000000        0.027914         4
        27        26        25        57     9        0.000000       -0.115192         1
        27        26        25        57     9      180.000000        0.041538         2
        27        26        25        57     9        0.000000        0.213491         3
        27        26        25        57     9      180.000000        0.027914         4
        27        26        40        41     9        0.000000       -0.052276         1
        27        26        40        41     9      180.000000        0.001948         2
        27        26        40        41     9        0.000000        0.449755         3
        27        26        40        41     9      180.000000        0.005836         4
        27        26        40        42     9        0.000000       -0.052276         1
        27        26        40        42     9      180.000000        0.001948         2
        27        26        40        42     9        0.000000        0.449755         3
        27        26        40        42     9      180.000000        0.005836         4
        27        26        40        43     9        0.000000       -0.052276         1
        27        26        40        43     9      180.000000        0.001948         2
        27        26        40        43     9        0.000000        0.449755         3
        27        26        40        43     9      180.000000        0.005836         4
        27        26        44        45     9        0.000000       -0.052276         1
        27        26        44        45     9      180.000000        0.001948         2
        27        26        44        45     9        0.000000        0.449755         3
        27        26        44        45     9      180.000000        0.005836         4
        27        26        44        46     9        0.000000       -0.052276         1
        27        26        44        46     9      180.000000        0.001948         2
        27        26        44        46     9        0.000000        0.449755         3
        27        26        44        46     9      180.000000        0.005836         4
        27        26        44        47     9        0.000000       -0.052276         1
        27        26        44        47     9      180.000000        0.001948         2
        27        26        44        47     9        0.000000        0.449755         3
        27        26        44        47     9      180.000000        0.005836         4
        29        12        13        30     9        0.000000       -0.139149         1
        29        12        13        30     9      180.000000       11.679765         2
        29        12        13        30     9        0.000000       -0.530097         3
        29        12        13        30     9      180.000000        0.235346         4
        30        13        14        31     9        0.000000       -0.191662         1
        30        13        14        31     9      180.000000       11.920421         2
        30        13        14        31     9        0.000000       -0.632898         3
        30        13        14        31     9      180.000000        0.289657         4
        34        21        22        35     9        0.000000       -0.477053         1
        34        21        22        35     9      180.000000       -0.607272         2
        34        21        22        35     9        0.000000       -0.011086         3
        34        21        22        35     9      180.000000       -0.012732         4
        35        22        23        36     9        0.000000        0.056278         1
        35        22        23        36     9      180.000000       -0.002847         2
        35        22        23        36     9        0.000000        0.369752         3
        35        22        23        36     9      180.000000       -0.046035         4
        35        22        23        37     9        0.000000        0.056278         1
        35        22        23        37     9      180.000000       -0.002847         2
        35        22        23        37     9        0.000000        0.369752         3
        35        22        23        37     9      180.000000       -0.046035         4
        35        22        27        38     9        0.000000        0.056278         1
        35        22        27        38     9      180.000000       -0.002847         2
        35        22        27        38     9        0.000000        0.369752         3
        35        22        27        38     9      180.000000       -0.046035         4
        35        22        27        39     9        0.000000        0.056278         1
        35        22        27        39     9      180.000000       -0.002847         2
        35        22        27        39     9        0.000000        0.369752         3
        35        22        27        39     9      180.000000       -0.046035         4
        36        23        24        48     9        0.000000        0.002576         1
        36        23        24        48     9      180.000000       -0.038690         2
        36        23        24        48     9        0.000000        0.356111         3
        36        23        24        48     9      180.000000       -0.017413         4
        36        23        24        52     9        0.000000        0.002576         1
        36        23        24        52     9      180.000000       -0.038690         2
        36        23        24        52     9        0.000000        0.356111         3
        36        23        24        52     9      180.000000       -0.017413         4
        37        23        24        48     9        0.000000        0.002576         1
        37        23        24        48     9      180.000000       -0.038690         2
        37        23        24        48     9        0.000000        0.356111         3
        37        23        24        48     9      180.000000       -0.017413         4
        37        23        24        52     9        0.000000        0.002576         1
        37        23        24        52     9      180.000000       -0.038690         2
        37        23        24        52     9        0.000000        0.356111         3
        37        23        24        52     9      180.000000       -0.017413         4
        38        27        26        40     9        0.000000        0.002576         1
        38        27        26        40     9      180.000000       -0.038690         2
        38        27        26        40     9        0.000000        0.356111         3
        38        27        26        40     9      180.000000       -0.017413         4
        38        27        26        44     9        0.000000        0.002576         1
        38        27        26        44     9      180.000000       -0.038690         2
        38        27        26        44     9        0.000000        0.356111         3
        38        27        26        44     9      180.000000       -0.017413         4
        39        27        26        40     9        0.000000        0.002576         1
        39        27        26        40     9      180.000000       -0.038690         2
        39        27        26        40     9        0.000000        0.356111         3
        39        27        26        40     9      180.000000       -0.017413         4
        39        27        26        44     9        0.000000        0.002576         1
        39        27        26        44     9      180.000000       -0.038690         2
        39        27        26        44     9        0.000000        0.356111         3
        39        27        26        44     9      180.000000       -0.017413         4
        40        26        25        56     9        0.000000        0.018223         1
        40        26        25        56     9      180.000000       -0.040170         2
        40        26        25        56     9        0.000000        0.387199         3
        40        26        25        56     9      180.000000       -0.009898         4
        40        26        25        57     9        0.000000        0.018223         1
        40        26        25        57     9      180.000000       -0.040170         2
        40        26        25        57     9        0.000000        0.387199         3
        40        26        25        57     9      180.000000       -0.009898         4
        40        26        44        45     9        0.000000       -0.066308         1
        40        26        44        45     9      180.000000        0.011226         2
        40        26        44        45     9        0.000000        0.517399         3
        40        26        44        45     9      180.000000        0.023511         4
        40        26        44        46     9        0.000000       -0.066308         1
        40        26        44        46     9      180.000000        0.011226         2
        40        26        44        46     9        0.000000        0.517399         3
        40        26        44        46     9      180.000000        0.023511         4
        40        26        44        47     9        0.000000       -0.066308         1
        40        26        44        47     9      180.000000        0.011226         2
        40        26        44        47     9        0.000000        0.517399         3
        40        26        44        47     9      180.000000        0.023511         4
        41        40        26        44     9        0.000000       -0.066308         1
        41        40        26        44     9      180.000000        0.011226         2
        41        40        26        44     9        0.000000        0.517399         3
        41        40        26        44     9      180.000000        0.023511         4
        42        40        26        44     9        0.000000       -0.066308         1
        42        40        26        44     9      180.000000        0.011226         2
        42        40        26        44     9        0.000000        0.517399         3
        42        40        26        44     9      180.000000        0.023511         4
        43        40        26        44     9        0.000000       -0.066308         1
        43        40        26        44     9      180.000000        0.011226         2
        43        40        26        44     9        0.000000        0.517399         3
        43        40        26        44     9      180.000000        0.023511         4
        44        26        25        56     9        0.000000        0.018224         1
        44        26        25        56     9      180.000000       -0.040170         2
        44        26        25        56     9        0.000000        0.387198         3
        44        26        25        56     9      180.000000       -0.009897         4
        44        26        25        57     9        0.000000        0.018224         1
        44        26        25        57     9      180.000000       -0.040170         2
        44        26        25        57     9        0.000000        0.387198         3
        44        26        25        57     9      180.000000       -0.009897         4
        48        24        25        56     9        0.000000        0.018224         1
        48        24        25        56     9      180.000000       -0.040170         2
        48        24        25        56     9        0.000000        0.387198         3
        48        24        25        56     9      180.000000       -0.009897         4
        48        24        25        57     9        0.000000        0.018224         1
        48        24        25        57     9      180.000000       -0.040170         2
        48        24        25        57     9        0.000000        0.387198         3
        48        24        25        57     9      180.000000       -0.009897         4
        48        24        52        53     9        0.000000       -0.066307         1
        48        24        52        53     9      180.000000        0.011226         2
        48        24        52        53     9        0.000000        0.517399         3
        48        24        52        53     9      180.000000        0.023510         4
        48        24        52        54     9        0.000000       -0.066307         1
        48        24        52        54     9      180.000000        0.011226         2
        48        24        52        54     9        0.000000        0.517399         3
        48        24        52        54     9      180.000000        0.023510         4
        48        24        52        55     9        0.000000       -0.066307         1
        48        24        52        55     9      180.000000        0.011226         2
        48        24        52        55     9        0.000000        0.517399         3
        48        24        52        55     9      180.000000        0.023510         4
        49        48        24        52     9        0.000000       -0.066307         1
        49        48        24        52     9      180.000000        0.011226         2
        49        48        24        52     9        0.000000        0.517399         3
        49        48        24        52     9      180.000000        0.023510         4
        50        48        24        52     9        0.000000       -0.066307         1
        50        48        24        52     9      180.000000        0.011226         2
        50        48        24        52     9        0.000000        0.517399         3
        50        48        24        52     9      180.000000        0.023510         4
        51        48        24        52     9        0.000000       -0.066307         1
        51        48        24        52     9      180.000000        0.011226         2
        51        48        24        52     9        0.000000        0.517399         3
        51        48        24        52     9      180.000000        0.023510         4
        52        24        25        56     9        0.000000        0.018224         1
        52        24        25        56     9      180.000000       -0.040170         2
        52        24        25        56     9        0.000000        0.387198         3
        52        24        25        56     9      180.000000       -0.009897         4
        52        24        25        57     9        0.000000        0.018224         1
        52        24        25        57     9      180.000000       -0.040170         2
        52        24        25        57     9        0.000000        0.387198         3
        52        24        25        57     9      180.000000       -0.009897         4

[ dihedrals ] ; impropers
;       ai        aj        ak        al funct           phase               k        pn
         6         2         7         8     4      180.000000       27.893333         2
         6         7         8         2     4      180.000000       27.893333         2
         6         8         2         7     4      180.000000       27.893333         2
        18        17        19        20     4      180.000000       27.893333         2
        18        19        20        17     4      180.000000       27.893333         2
        18        20        17        19     4      180.000000       27.893333         2

[ pairs ]
;       ai        aj funct
         1         7     1
         1         8     1
         1        10     1
         1        14     1
         1        15     1
         1        16     1
         2         9     1
         2        15     1
         2        17     1
         3         7     1
         3         8     1
         3         9     1
         3        18     1
         3        32     1
         3        33     1
         4         6     1
         4        10     1
         4        14     1
         4        17     1
         5         6     1
         5        11     1
         5        13     1
         5        16     1
         5        28     1
         5        31     1
         6        16     1
         9        12     1
         9        15     1
         9        21     1
         9        30     1
        10        13     1
        10        22     1
        10        29     1
        10        31     1
        10        34     1
        11        14     1
        11        23     1
        11        27     1
        11        30     1
        11        35     1
        12        22     1
        12        28     1
        12        31     1
        12        34     1
        13        21     1
        14        28     1
        14        29     1
        15        16     1
        16        19     1
        16        20     1
        19        32     1
        19        33     1
        20        32     1
        20        33     1
        21        24     1
        21        26     1
        21        28     1
        21        29     1
        21        36     1
        21        37     1
        21        38     1
        21        39     1
        22        25     1
        22        40     1
        22        44     1
        22        48     1
        22        52     1
        23        26     1
        23        34     1
        23        38     1
        23        39     1
        23        49     1
        23        50     1
        23        51     1
        23        53     1
        23        54     1
        23        55     1
        23        56     1
        23        57     1
        24        27     1
        24        35     1
        24        40     1
        24        44     1
        25        36     1
        25        37     1
        25        38     1
        25        39     1
        25        41     1
        25        42     1
        25        43     1
        25        45     1
        25        46     1
        25        47     1
        25        49     1
        25        50     1
        25        51     1
        25        53     1
        25        54     1
        25        55     1
        26        35     1
        26        48     1
        26        52     1
        27        34     1
        27        36     1
        27        37     1
        27        41     1
        27        42     1
        27        43     1
        27        45     1
        27        46     1
        27        47     1
        27        56     1
        27        57     1
        29        30     1
        30        31     1
        34        35     1
        35        36     1
        35        37     1
        35        38     1
        35        39     1
        36        48     1
        36        52     1
        37        48     1
        37        52     1
        38        40     1
        38        44     1
        39        40     1
        39        44     1
        40        45     1
        40        46     1
        40        47     1
        40        56     1
        40        57     1
        41        44     1
        42        44     1
        43        44     1
        44        56     1
        44        57     1
        48        53     1
        48        54     1
        48        55     1
        48        56     1
        48        57     1
        49        52     1
        50        52     1
        51        52     1
        52        56     1
        52        57     1
