; ITP file created by ByteFF-ML, 2026-02-21 08:24:02.446887

[ atomtypes ]
;name           bonded.type        at.num        mass        charge   ptype           sigma         epsilon
 s0bf                                  16      0.0000       0.00000       A     3.53064e-01     1.17901e+00
 c1bf                                   6      0.0000       0.00000       A     3.31755e-01     4.09816e-01
 c2bf                                   6      0.0000       0.00000       A     3.31349e-01     4.08441e-01
 c3bf                                   6      0.0000       0.00000       A     3.31198e-01     4.12218e-01
 c4bf                                   6      0.0000       0.00000       A     3.31630e-01     4.13561e-01
 c5bf                                   6      0.0000       0.00000       A     3.31455e-01     4.10610e-01
 o6bf                                   8      0.0000       0.00000       A     3.05104e-01     6.09960e-01
 o7bf                                   8      0.0000       0.00000       A     3.05104e-01     6.09960e-01
 c8bf                                   6      0.0000       0.00000       A     3.31408e-01     4.09824e-01
 c9bf                                   6      0.0000       0.00000       A     3.31671e-01     4.14265e-01
 c10bf                                  6      0.0000       0.00000       A     3.31453e-01     4.12721e-01
 c11bf                                  6      0.0000       0.00000       A     3.31472e-01     4.12434e-01
 c12bf                                  6      0.0000       0.00000       A     3.31475e-01     4.13803e-01
 c13bf                                  6      0.0000       0.00000       A     3.31465e-01     4.11762e-01
 br14bf                                35      0.0000       0.00000       A     3.61379e-01     1.65034e+00
 o15bf                                  8      0.0000       0.00000       A     3.15911e-01     3.03161e-01
 c16bf                                  6      0.0000       0.00000       A     3.39643e-01     4.49664e-01
 c17bf                                  6      0.0000       0.00000       A     3.31634e-01     4.10394e-01
 o18bf                                  8      0.0000       0.00000       A     3.04741e-01     6.09601e-01
 o19bf                                  8      0.0000       0.00000       A     3.04741e-01     6.09601e-01
 n20bf                                  7      0.0000       0.00000       A     3.27177e-01     4.89353e-01
 h21bf                                  1      0.0000       0.00000       A     2.62374e-01     6.75648e-02
 h22bf                                  1      0.0000       0.00000       A     2.62571e-01     6.74818e-02
 h23bf                                  1      0.0000       0.00000       A     2.62530e-01     6.75680e-02
 h24bf                                  1      0.0000       0.00000       A     2.62513e-01     6.75409e-02
 h25bf                                  1      0.0000       0.00000       A     2.41481e-01     8.75971e-02
 h26bf                                  1      0.0000       0.00000       A     2.41481e-01     8.75971e-02
 h27bf                                  1      0.0000       0.00000       A     1.10504e-01     4.16175e-02
 c28bf                                  6      0.0000       0.00000       A     3.31489e-01     4.14825e-01
 o29bf                                  8      0.0000       0.00000       A     3.04606e-01     6.09078e-01
 c30bf                                  6      0.0000       0.00000       A     3.39743e-01     4.49597e-01
 h31bf                                  1      0.0000       0.00000       A     2.60424e-01     8.59914e-02
 h32bf                                  1      0.0000       0.00000       A     2.60424e-01     8.59914e-02
 c33bf                                  6      0.0000       0.00000       A     3.39784e-01     4.50058e-01
 h34bf                                  1      0.0000       0.00000       A     2.60072e-01     8.72411e-02
 h35bf                                  1      0.0000       0.00000       A     2.60072e-01     8.72411e-02
 h36bf                                  1      0.0000       0.00000       A     2.60072e-01     8.72411e-02

[ moleculetype ]
;name             nrexcl
 23468                 3

[ atoms ]
;       nr            type      resi   res      atom      cgnr      charge          mass ; qtot
         1            s0bf         1   UNL        s0         1     0.19677       32.0670 ; qtot    0.197
         2            c1bf         1   UNL        c1         2    -0.26026       12.0110 ; qtot   -0.063
         3            c2bf         1   UNL        c2         3     0.11437       12.0110 ; qtot    0.051
         4            c3bf         1   UNL        c3         4    -0.05837       12.0110 ; qtot   -0.007
         5            c4bf         1   UNL        c4         5    -0.16896       12.0110 ; qtot   -0.176
         6            c5bf         1   UNL        c5         6     0.72713       12.0110 ; qtot    0.551
         7            o6bf         1   UNL        o6         7    -0.72308       15.9990 ; qtot   -0.172
         8            o7bf         1   UNL        o7         8    -0.72308       15.9990 ; qtot   -0.895
         9            c8bf         1   UNL        c8         9     0.00905       12.0110 ; qtot   -0.886
        10            c9bf         1   UNL        c9        10    -0.13348       12.0110 ; qtot   -1.020
        11           c10bf         1   UNL       c10        11    -0.01644       12.0110 ; qtot   -1.036
        12           c11bf         1   UNL       c11        12    -0.14799       12.0110 ; qtot   -1.184
        13           c12bf         1   UNL       c12        13    -0.08359       12.0110 ; qtot   -1.268
        14           c13bf         1   UNL       c13        14    -0.10938       12.0110 ; qtot   -1.377
        15          br14bf         1   UNL      br14        15    -0.08621       79.9040 ; qtot   -1.464
        16           o15bf         1   UNL       o15        16    -0.35606       15.9990 ; qtot   -1.820
        17           c16bf         1   UNL       c16        17    -0.01490       12.0110 ; qtot   -1.834
        18           c17bf         1   UNL       c17        18     0.70991       12.0110 ; qtot   -1.125
        19           o18bf         1   UNL       o18        19    -0.73348       15.9990 ; qtot   -1.858
        20           o19bf         1   UNL       o19        20    -0.73348       15.9990 ; qtot   -2.592
        21           n20bf         1   UNL       n20        21    -0.15118       14.0070 ; qtot   -2.743
        22           h21bf         1   UNL       h21        22     0.13754        1.0080 ; qtot   -2.605
        23           h22bf         1   UNL       h22        23     0.13446        1.0080 ; qtot   -2.471
        24           h23bf         1   UNL       h23        24     0.11851        1.0080 ; qtot   -2.352
        25           h24bf         1   UNL       h24        25     0.12297        1.0080 ; qtot   -2.229
        26           h25bf         1   UNL       h25        26     0.02487        1.0080 ; qtot   -2.204
        27           h26bf         1   UNL       h26        27     0.02487        1.0080 ; qtot   -2.179
        28           h27bf         1   UNL       h27        28     0.15665        1.0080 ; qtot   -2.023
        29           c28bf         1   UNL       c28        29     0.60425       12.0110 ; qtot   -1.419
        30           o29bf         1   UNL       o29        30    -0.58509       15.9990 ; qtot   -2.004
        31           c30bf         1   UNL       c30        31    -0.15875       12.0110 ; qtot   -2.162
        32           h31bf         1   UNL       h31        32     0.06228        1.0080 ; qtot   -2.100
        33           h32bf         1   UNL       h32        33     0.06228        1.0080 ; qtot   -2.038
        34           c33bf         1   UNL       c33        34    -0.08934       12.0110 ; qtot   -2.127
        35           h34bf         1   UNL       h34        35     0.04241        1.0080 ; qtot   -2.085
        36           h35bf         1   UNL       h35        36     0.04241        1.0080 ; qtot   -2.042
        37           h36bf         1   UNL       h36        37     0.04239        1.0080 ; qtot   -2.000

[ bonds ]
;       ai        aj funct               r               k
         1         2     1        0.174464   145572.874683
         1         5     1        0.175012   149020.499365
         2         3     1        0.138277   335024.121436
         2         6     1        0.154034   112597.124561
         3         4     1        0.143994   223875.334033
         3        16     1        0.134833   300010.369531
         4         5     1        0.138169   338414.734521
         4        15     1        0.190996   130541.361816
         5         9     1        0.147069   228992.791992
         6         7     1        0.125984   484107.493164
         6         8     1        0.125984   484107.493164
         9        10     1        0.140430   291319.095264
         9        14     1        0.140563   287308.875293
        10        11     1        0.140195   290353.000879
        10        22     1        0.108260   327052.074316
        11        12     1        0.140495   285455.647266
        11        21     1        0.141276   243608.547949
        12        13     1        0.139605   317948.503418
        12        23     1        0.108342   326600.373926
        13        14     1        0.139542   316193.210205
        13        24     1        0.108622   319386.625732
        14        25     1        0.108491   321875.217041
        16        17     1        0.145852   151865.231201
        17        18     1        0.156538   116742.448608
        17        26     1        0.109566   293138.384473
        17        27     1        0.109566   293138.384473
        18        19     1        0.126057   487285.433203
        18        20     1        0.126057   487285.382129
        21        28     1        0.101208   417740.197705
        21        29     1        0.137730   261723.602930
        29        30     1        0.122920   613355.042871
        29        31     1        0.152591   168455.158936
        31        32     1        0.109518   296739.423340
        31        33     1        0.109518   296739.423340
        31        34     1        0.153506   187102.496655
        34        35     1        0.109360   301884.512451
        34        36     1        0.109360   301884.537988
        34        37     1        0.109360   301884.537988

[ angles ]
;       ai        aj        ak funct           theta             cth
         1         2         3     1      110.160385      167.360000
         1         2         6     1      115.033363      592.692112
         1         5         4     1      108.982101      167.360000
         1         5         9     1      120.207993      422.054616
         2         1         5     1       93.195396      186.526079
         2         3         4     1      112.155884      382.616796
         2         3        16     1      126.134300      420.691349
         2         6         7     1      114.627625      339.029323
         2         6         8     1      114.627625      339.029323
         3         2         6     1      134.051437      467.327122
         3         4         5     1      114.634010      370.337181
         3         4        15     1      121.312027      306.426064
         3        16        17     1      117.821022      473.127047
         4         3        16     1      120.298485      422.691639
         4         5         9     1      130.768707      404.819269
         5         4        15     1      123.746353      284.291934
         5         9        10     1      120.023781      399.755931
         5         9        14     1      120.732788      464.321596
         7         6         8     1      130.398407      705.552920
         9        10        11     1      120.648117      724.104736
         9        10        22     1      119.602158      415.862409
         9        14        13     1      119.786049      681.762996
         9        14        25     1      119.886086      442.839429
        10         9        14     1      119.324974      638.760866
        10        11        12     1      119.665146      568.584889
        10        11        21     1      119.512985      520.797488
        11        10        22     1      119.486328      439.111011
        11        12        13     1      119.337357      732.634450
        11        12        23     1      119.874405      452.993079
        11        21        28     1      114.915184      445.273466
        11        21        29     1      129.435837      496.056243
        12        11        21     1      120.515907      618.045354
        12        13        14     1      121.090172      700.802890
        12        13        24     1      119.178757      438.576966
        13        12        23     1      120.751877      391.269567
        13        14        25     1      120.215233      425.165163
        14        13        24     1      119.675919      439.505719
        16        17        18     1      113.930603      533.838045
        16        17        26     1      107.778183      447.857886
        16        17        27     1      107.778183      447.857886
        17        18        19     1      114.982224      326.587739
        17        18        20     1      114.982224      326.587771
        18        17        26     1      109.132103      476.479878
        18        17        27     1      109.132103      476.479878
        19        18        20     1      130.064865      720.626454
        21        29        30     1      123.846237      634.306109
        21        29        31     1      114.763039      471.225713
        26        17        27     1      108.416725      344.620418
        28        21        29     1      115.492699      446.089696
        29        31        32     1      108.425926      528.776813
        29        31        33     1      108.425926      528.776813
        29        31        34     1      112.255234      617.878852
        30        29        31     1      121.520851      529.655896
        31        34        35     1      110.807007      503.029374
        31        34        36     1      110.807007      503.029374
        31        34        37     1      110.807007      503.029374
        32        31        33     1      106.831589      359.588803
        32        31        34     1      110.238693      504.166318
        33        31        34     1      110.238693      504.166318
        35        34        36     1      108.107910      362.239523
        35        34        37     1      108.107910      362.239523
        36        34        37     1      108.107910      362.239523

[ dihedrals ] ; propers for gromacs 4.5 or higher, use funct 9
;       ai        aj        ak        al funct           phase               k        pn
         1         2         3         4     9        0.000000       -0.157449         1
         1         2         3         4     9      180.000000       23.193074         2
         1         2         3         4     9        0.000000       -4.968979         3
         1         2         3         4     9      180.000000       -0.609654         4
         1         2         3        16     9        0.000000        0.970784         1
         1         2         3        16     9      180.000000       21.885524         2
         1         2         3        16     9        0.000000        0.406670         3
         1         2         3        16     9      180.000000       -1.347848         4
         1         2         6         7     9        0.000000        1.117411         1
         1         2         6         7     9      180.000000        4.117929         2
         1         2         6         7     9        0.000000        0.067199         3
         1         2         6         7     9      180.000000        0.180393         4
         1         2         6         8     9        0.000000        1.117411         1
         1         2         6         8     9      180.000000        4.117929         2
         1         2         6         8     9        0.000000        0.067199         3
         1         2         6         8     9      180.000000        0.180393         4
         1         5         4         3     9        0.000000       -0.306829         1
         1         5         4         3     9      180.000000       24.522085         2
         1         5         4         3     9        0.000000       -5.964297         3
         1         5         4         3     9      180.000000       -0.599844         4
         1         5         4        15     9        0.000000        0.499553         1
         1         5         4        15     9      180.000000       17.380840         2
         1         5         4        15     9        0.000000        0.197540         3
         1         5         4        15     9      180.000000       -1.066303         4
         1         5         9        10     9        0.000000       -0.448172         1
         1         5         9        10     9      180.000000        3.274918         2
         1         5         9        10     9        0.000000        0.043784         3
         1         5         9        10     9      180.000000        0.261604         4
         1         5         9        14     9        0.000000       -0.243249         1
         1         5         9        14     9      180.000000        3.141758         2
         1         5         9        14     9        0.000000        0.151330         3
         1         5         9        14     9      180.000000        0.218282         4
         2         1         5         4     9        0.000000       -0.388546         1
         2         1         5         4     9      180.000000       24.242164         2
         2         1         5         4     9        0.000000       -5.021316         3
         2         1         5         4     9      180.000000       -0.471890         4
         2         1         5         9     9        0.000000       -0.194960         1
         2         1         5         9     9      180.000000       15.184003         2
         2         1         5         9     9        0.000000        0.238336         3
         2         1         5         9     9      180.000000       -0.596384         4
         2         3         4         5     9        0.000000       -0.251748         1
         2         3         4         5     9      180.000000       14.214229         2
         2         3         4         5     9        0.000000       -2.698729         3
         2         3         4         5     9      180.000000       -0.310431         4
         2         3         4        15     9        0.000000        0.248323         1
         2         3         4        15     9      180.000000       11.562275         2
         2         3         4        15     9        0.000000        0.148422         3
         2         3         4        15     9      180.000000       -0.630060         4
         2         3        16        17     9        0.000000        0.701674         1
         2         3        16        17     9      180.000000        2.973538         2
         2         3        16        17     9        0.000000        0.307642         3
         2         3        16        17     9      180.000000       -0.218272         4
         3         2         1         5     9        0.000000       -0.083281         1
         3         2         1         5     9      180.000000       22.870917         2
         3         2         1         5     9        0.000000       -3.551991         3
         3         2         1         5     9      180.000000       -0.695859         4
         3         2         6         7     9        0.000000       -5.137617         1
         3         2         6         7     9      180.000000        2.933940         2
         3         2         6         7     9        0.000000        0.193554         3
         3         2         6         7     9      180.000000       -0.187922         4
         3         2         6         8     9        0.000000       -5.137617         1
         3         2         6         8     9      180.000000        2.933940         2
         3         2         6         8     9        0.000000        0.193554         3
         3         2         6         8     9      180.000000       -0.187922         4
         3         4         5         9     9        0.000000        0.171982         1
         3         4         5         9     9      180.000000       16.183259         2
         3         4         5         9     9        0.000000       -0.359592         3
         3         4         5         9     9      180.000000       -1.029060         4
         3        16        17        18     9        0.000000       -4.760844         1
         3        16        17        18     9      180.000000       -1.857167         2
         3        16        17        18     9        0.000000        0.352751         3
         3        16        17        18     9      180.000000        0.004621         4
         3        16        17        26     9        0.000000       -0.294822         1
         3        16        17        26     9      180.000000       -0.281191         2
         3        16        17        26     9        0.000000        0.570610         3
         3        16        17        26     9      180.000000        0.007077         4
         3        16        17        27     9        0.000000       -0.294822         1
         3        16        17        27     9      180.000000       -0.281191         2
         3        16        17        27     9        0.000000        0.570610         3
         3        16        17        27     9      180.000000        0.007077         4
         4         3         2         6     9        0.000000       -0.190053         1
         4         3         2         6     9      180.000000       11.755029         2
         4         3         2         6     9        0.000000       -0.719247         3
         4         3         2         6     9      180.000000       -0.502059         4
         4         3        16        17     9        0.000000        2.857399         1
         4         3        16        17     9      180.000000        2.426502         2
         4         3        16        17     9        0.000000        0.581872         3
         4         3        16        17     9      180.000000       -0.192707         4
         4         5         9        10     9        0.000000        0.030819         1
         4         5         9        10     9      180.000000        2.325053         2
         4         5         9        10     9        0.000000       -0.111904         3
         4         5         9        10     9      180.000000        0.048627         4
         4         5         9        14     9        0.000000        0.296847         1
         4         5         9        14     9      180.000000        2.110787         2
         4         5         9        14     9        0.000000       -0.049016         3
         4         5         9        14     9      180.000000        0.028661         4
         5         1         2         6     9        0.000000        0.985272         1
         5         1         2         6     9      180.000000       10.250466         2
         5         1         2         6     9        0.000000       -0.288305         3
         5         1         2         6     9      180.000000        0.044596         4
         5         4         3        16     9        0.000000        0.518482         1
         5         4         3        16     9      180.000000       12.721722         2
         5         4         3        16     9        0.000000        0.352406         3
         5         4         3        16     9      180.000000       -0.184802         4
         5         9        10        11     9        0.000000        0.546685         1
         5         9        10        11     9      180.000000       16.041587         2
         5         9        10        11     9        0.000000       -0.056982         3
         5         9        10        11     9      180.000000       -0.451511         4
         5         9        10        22     9        0.000000        0.058845         1
         5         9        10        22     9      180.000000       13.219501         2
         5         9        10        22     9        0.000000       -0.161152         3
         5         9        10        22     9      180.000000        0.135728         4
         5         9        14        13     9        0.000000        0.337773         1
         5         9        14        13     9      180.000000       16.499680         2
         5         9        14        13     9        0.000000       -0.157851         3
         5         9        14        13     9      180.000000       -0.363557         4
         5         9        14        25     9        0.000000        0.083839         1
         5         9        14        25     9      180.000000       12.951337         2
         5         9        14        25     9        0.000000       -0.246232         3
         5         9        14        25     9      180.000000        0.172927         4
         6         2         3        16     9        0.000000        0.216703         1
         6         2         3        16     9      180.000000       15.170354         2
         6         2         3        16     9        0.000000        0.500829         3
         6         2         3        16     9      180.000000       -0.921398         4
         9         5         4        15     9        0.000000        0.456359         1
         9         5         4        15     9      180.000000       13.033962         2
         9         5         4        15     9        0.000000        0.583958         3
         9         5         4        15     9      180.000000       -0.482413         4
         9        10        11        12     9        0.000000       -0.003870         1
         9        10        11        12     9      180.000000       16.546733         2
         9        10        11        12     9        0.000000       -1.127296         3
         9        10        11        12     9      180.000000       -0.257674         4
         9        10        11        21     9        0.000000        0.371147         1
         9        10        11        21     9      180.000000       16.990806         2
         9        10        11        21     9        0.000000        0.198161         3
         9        10        11        21     9      180.000000       -0.414942         4
         9        14        13        12     9        0.000000        0.037479         1
         9        14        13        12     9      180.000000       19.208110         2
         9        14        13        12     9        0.000000       -1.607207         3
         9        14        13        12     9      180.000000       -0.483123         4
         9        14        13        24     9        0.000000       -0.044464         1
         9        14        13        24     9      180.000000       15.108857         2
         9        14        13        24     9        0.000000       -0.515382         3
         9        14        13        24     9      180.000000        0.063944         4
        10         9        14        13     9        0.000000       -0.092881         1
        10         9        14        13     9      180.000000       17.888065         2
        10         9        14        13     9        0.000000       -1.382007         3
        10         9        14        13     9      180.000000       -0.321575         4
        10         9        14        25     9        0.000000       -0.021659         1
        10         9        14        25     9      180.000000       13.797722         2
        10         9        14        25     9        0.000000       -0.589569         3
        10         9        14        25     9      180.000000        0.130550         4
        10        11        12        13     9        0.000000        0.075419         1
        10        11        12        13     9      180.000000       16.520728         2
        10        11        12        13     9        0.000000       -0.978406         3
        10        11        12        13     9      180.000000       -0.201676         4
        10        11        12        23     9        0.000000        0.200247         1
        10        11        12        23     9      180.000000       12.949161         2
        10        11        12        23     9        0.000000       -0.418645         3
        10        11        12        23     9      180.000000        0.141881         4
        10        11        21        28     9        0.000000        0.272195         1
        10        11        21        28     9      180.000000        2.733702         2
        10        11        21        28     9        0.000000        0.044136         3
        10        11        21        28     9      180.000000        0.061296         4
        10        11        21        29     9        0.000000       -0.121530         1
        10        11        21        29     9      180.000000        2.537167         2
        10        11        21        29     9        0.000000       -0.094943         3
        10        11        21        29     9      180.000000        0.132798         4
        11        10         9        14     9        0.000000       -0.092449         1
        11        10         9        14     9      180.000000       17.842864         2
        11        10         9        14     9        0.000000       -1.545004         3
        11        10         9        14     9      180.000000       -0.429811         4
        11        12        13        14     9        0.000000        0.033891         1
        11        12        13        14     9      180.000000       18.527151         2
        11        12        13        14     9        0.000000       -1.631850         3
        11        12        13        14     9      180.000000       -0.502159         4
        11        12        13        24     9        0.000000        0.043422         1
        11        12        13        24     9      180.000000       14.686716         2
        11        12        13        24     9        0.000000       -0.498171         3
        11        12        13        24     9      180.000000       -0.017456         4
        11        21        29        30     9        0.000000       -1.558920         1
        11        21        29        30     9      180.000000        9.762935         2
        11        21        29        30     9        0.000000       -0.151760         3
        11        21        29        30     9      180.000000       -0.691736         4
        11        21        29        31     9        0.000000        3.752580         1
        11        21        29        31     9      180.000000        6.595076         2
        11        21        29        31     9        0.000000        0.511158         3
        11        21        29        31     9      180.000000       -0.453363         4
        12        11        10        22     9        0.000000        0.213959         1
        12        11        10        22     9      180.000000       12.720156         2
        12        11        10        22     9        0.000000       -0.469355         3
        12        11        10        22     9      180.000000        0.179503         4
        12        11        21        28     9        0.000000       -0.246823         1
        12        11        21        28     9      180.000000        2.559839         2
        12        11        21        28     9        0.000000       -0.039270         3
        12        11        21        28     9      180.000000        0.069516         4
        12        11        21        29     9        0.000000        0.106687         1
        12        11        21        29     9      180.000000        2.453077         2
        12        11        21        29     9        0.000000       -0.012113         3
        12        11        21        29     9      180.000000        0.128921         4
        12        13        14        25     9        0.000000        0.119366         1
        12        13        14        25     9      180.000000       14.770856         2
        12        13        14        25     9        0.000000       -0.759023         3
        12        13        14        25     9      180.000000        0.131008         4
        13        12        11        21     9        0.000000        0.332557         1
        13        12        11        21     9      180.000000       17.246928         2
        13        12        11        21     9        0.000000        0.090289         3
        13        12        11        21     9      180.000000       -0.239413         4
        14         9        10        22     9        0.000000       -0.065593         1
        14         9        10        22     9      180.000000       13.632349         2
        14         9        10        22     9        0.000000       -0.521935         3
        14         9        10        22     9      180.000000        0.139798         4
        14        13        12        23     9        0.000000        0.029150         1
        14        13        12        23     9      180.000000       14.526088         2
        14        13        12        23     9        0.000000       -0.586270         3
        14        13        12        23     9      180.000000        0.133790         4
        15         4         3        16     9        0.000000       -0.153280         1
        15         4         3        16     9      180.000000       12.598060         2
        15         4         3        16     9        0.000000        0.466981         3
        15         4         3        16     9      180.000000       -0.523506         4
        16        17        18        19     9        0.000000       -1.573021         1
        16        17        18        19     9      180.000000        4.124889         2
        16        17        18        19     9        0.000000        0.247417         3
        16        17        18        19     9      180.000000        0.125480         4
        16        17        18        20     9        0.000000       -1.573021         1
        16        17        18        20     9      180.000000        4.124889         2
        16        17        18        20     9        0.000000        0.247417         3
        16        17        18        20     9      180.000000        0.125481         4
        19        18        17        26     9        0.000000        0.050675         1
        19        18        17        26     9      180.000000       -0.380925         2
        19        18        17        26     9        0.000000        0.149856         3
        19        18        17        26     9      180.000000        0.058403         4
        19        18        17        27     9        0.000000        0.050675         1
        19        18        17        27     9      180.000000       -0.380925         2
        19        18        17        27     9        0.000000        0.149856         3
        19        18        17        27     9      180.000000        0.058403         4
        20        18        17        26     9        0.000000        0.050675         1
        20        18        17        26     9      180.000000       -0.380925         2
        20        18        17        26     9        0.000000        0.149856         3
        20        18        17        26     9      180.000000        0.058403         4
        20        18        17        27     9        0.000000        0.050675         1
        20        18        17        27     9      180.000000       -0.380925         2
        20        18        17        27     9        0.000000        0.149856         3
        20        18        17        27     9      180.000000        0.058403         4
        21        11        10        22     9        0.000000       -0.172066         1
        21        11        10        22     9      180.000000       14.040297         2
        21        11        10        22     9        0.000000       -0.197509         3
        21        11        10        22     9      180.000000        0.262270         4
        21        11        12        23     9        0.000000       -0.120596         1
        21        11        12        23     9      180.000000       13.847272         2
        21        11        12        23     9        0.000000       -0.201604         3
        21        11        12        23     9      180.000000        0.271690         4
        21        29        31        32     9        0.000000       -0.255954         1
        21        29        31        32     9      180.000000       -0.074007         2
        21        29        31        32     9        0.000000       -0.238009         3
        21        29        31        32     9      180.000000        0.114352         4
        21        29        31        33     9        0.000000       -0.255954         1
        21        29        31        33     9      180.000000       -0.074007         2
        21        29        31        33     9        0.000000       -0.238009         3
        21        29        31        33     9      180.000000        0.114352         4
        21        29        31        34     9        0.000000        0.661693         1
        21        29        31        34     9      180.000000        0.818132         2
        21        29        31        34     9        0.000000       -0.278473         3
        21        29        31        34     9      180.000000        0.151846         4
        23        12        13        24     9        0.000000       -0.095774         1
        23        12        13        24     9      180.000000       11.881234         2
        23        12        13        24     9        0.000000       -0.592579         3
        23        12        13        24     9      180.000000        0.253365         4
        24        13        14        25     9        0.000000       -0.184613         1
        24        13        14        25     9      180.000000       11.998565         2
        24        13        14        25     9        0.000000       -0.625214         3
        24        13        14        25     9      180.000000        0.294037         4
        28        21        29        30     9        0.000000       -0.304351         1
        28        21        29        30     9      180.000000       11.227761         2
        28        21        29        30     9        0.000000        0.369274         3
        28        21        29        30     9      180.000000        1.152620         4
        28        21        29        31     9        0.000000        1.314823         1
        28        21        29        31     9      180.000000        9.170562         2
        28        21        29        31     9        0.000000       -0.315663         3
        28        21        29        31     9      180.000000        0.529324         4
        29        31        34        35     9        0.000000       -0.035222         1
        29        31        34        35     9      180.000000        0.114625         2
        29        31        34        35     9        0.000000        0.260424         3
        29        31        34        35     9      180.000000        0.017201         4
        29        31        34        36     9        0.000000       -0.035222         1
        29        31        34        36     9      180.000000        0.114625         2
        29        31        34        36     9        0.000000        0.260424         3
        29        31        34        36     9      180.000000        0.017201         4
        29        31        34        37     9        0.000000       -0.035222         1
        29        31        34        37     9      180.000000        0.114625         2
        29        31        34        37     9        0.000000        0.260424         3
        29        31        34        37     9      180.000000        0.017201         4
        30        29        31        32     9        0.000000        0.253489         1
        30        29        31        32     9      180.000000        0.085076         2
        30        29        31        32     9        0.000000        0.064353         3
        30        29        31        32     9      180.000000        0.007099         4
        30        29        31        33     9        0.000000        0.253489         1
        30        29        31        33     9      180.000000        0.085076         2
        30        29        31        33     9        0.000000        0.064353         3
        30        29        31        33     9      180.000000        0.007099         4
        30        29        31        34     9        0.000000       -1.052274         1
        30        29        31        34     9      180.000000        0.661748         2
        30        29        31        34     9        0.000000       -0.054806         3
        30        29        31        34     9      180.000000        0.107916         4
        32        31        34        35     9        0.000000        0.003580         1
        32        31        34        35     9      180.000000        0.034450         2
        32        31        34        35     9        0.000000        0.532726         3
        32        31        34        35     9      180.000000       -0.038769         4
        32        31        34        36     9        0.000000        0.003580         1
        32        31        34        36     9      180.000000        0.034450         2
        32        31        34        36     9        0.000000        0.532726         3
        32        31        34        36     9      180.000000       -0.038769         4
        32        31        34        37     9        0.000000        0.003580         1
        32        31        34        37     9      180.000000        0.034450         2
        32        31        34        37     9        0.000000        0.532726         3
        32        31        34        37     9      180.000000       -0.038769         4
        33        31        34        35     9        0.000000        0.003580         1
        33        31        34        35     9      180.000000        0.034450         2
        33        31        34        35     9        0.000000        0.532726         3
        33        31        34        35     9      180.000000       -0.038769         4
        33        31        34        36     9        0.000000        0.003580         1
        33        31        34        36     9      180.000000        0.034450         2
        33        31        34        36     9        0.000000        0.532726         3
        33        31        34        36     9      180.000000       -0.038769         4
        33        31        34        37     9        0.000000        0.003580         1
        33        31        34        37     9      180.000000        0.034450         2
        33        31        34        37     9        0.000000        0.532726         3
        33        31        34        37     9      180.000000       -0.038769         4

[ dihedrals ] ; impropers
;       ai        aj        ak        al funct           phase               k        pn
         6         2         7         8     4      180.000000       27.893333         2
         6         7         8         2     4      180.000000       27.893333         2
         6         8         2         7     4      180.000000       27.893333         2
        18        17        19        20     4      180.000000       27.893333         2
        18        19        20        17     4      180.000000       27.893333         2
        18        20        17        19     4      180.000000       27.893333         2
        29        21        30        31     4      180.000000       24.287634         2
        29        30        31        21     4      180.000000       24.287634         2
        29        31        21        30     4      180.000000       24.287634         2

[ pairs ]
;       ai        aj funct
         1         7     1
         1         8     1
         1        10     1
         1        14     1
         1        15     1
         1        16     1
         2         9     1
         2        15     1
         2        17     1
         3         7     1
         3         8     1
         3         9     1
         3        18     1
         3        26     1
         3        27     1
         4         6     1
         4        10     1
         4        14     1
         4        17     1
         5         6     1
         5        11     1
         5        13     1
         5        16     1
         5        22     1
         5        25     1
         6        16     1
         9        12     1
         9        15     1
         9        21     1
         9        24     1
        10        13     1
        10        23     1
        10        25     1
        10        28     1
        10        29     1
        11        14     1
        11        24     1
        11        30     1
        11        31     1
        12        22     1
        12        25     1
        12        28     1
        12        29     1
        13        21     1
        14        22     1
        14        23     1
        15        16     1
        16        19     1
        16        20     1
        19        26     1
        19        27     1
        20        26     1
        20        27     1
        21        22     1
        21        23     1
        21        32     1
        21        33     1
        21        34     1
        23        24     1
        24        25     1
        28        30     1
        28        31     1
        29        35     1
        29        36     1
        29        37     1
        30        32     1
        30        33     1
        30        34     1
        32        35     1
        32        36     1
        32        37     1
        33        35     1
        33        36     1
        33        37     1
