; ITP file created by ByteFF-ML, 2026-02-21 08:23:49.641162

[ atomtypes ]
;name           bonded.type        at.num        mass        charge   ptype           sigma         epsilon
 s0bf                                  16      0.0000       0.00000       A     3.53064e-01     1.17901e+00
 c1bf                                   6      0.0000       0.00000       A     3.31755e-01     4.09816e-01
 c2bf                                   6      0.0000       0.00000       A     3.31349e-01     4.08441e-01
 c3bf                                   6      0.0000       0.00000       A     3.31198e-01     4.12218e-01
 c4bf                                   6      0.0000       0.00000       A     3.31621e-01     4.13639e-01
 c5bf                                   6      0.0000       0.00000       A     3.31455e-01     4.10610e-01
 o6bf                                   8      0.0000       0.00000       A     3.05104e-01     6.09960e-01
 o7bf                                   8      0.0000       0.00000       A     3.05104e-01     6.09960e-01
 c8bf                                   6      0.0000       0.00000       A     3.31385e-01     4.10014e-01
 c9bf                                   6      0.0000       0.00000       A     3.31611e-01     4.12174e-01
 c10bf                                  6      0.0000       0.00000       A     3.31323e-01     4.13379e-01
 c11bf                                  6      0.0000       0.00000       A     3.31579e-01     4.11904e-01
 c12bf                                  6      0.0000       0.00000       A     3.31495e-01     4.13546e-01
 c13bf                                  6      0.0000       0.00000       A     3.31463e-01     4.11623e-01
 br14bf                                35      0.0000       0.00000       A     3.61379e-01     1.65034e+00
 o15bf                                  8      0.0000       0.00000       A     3.15911e-01     3.03161e-01
 c16bf                                  6      0.0000       0.00000       A     3.39643e-01     4.49664e-01
 c17bf                                  6      0.0000       0.00000       A     3.31634e-01     4.10394e-01
 o18bf                                  8      0.0000       0.00000       A     3.04741e-01     6.09601e-01
 o19bf                                  8      0.0000       0.00000       A     3.04741e-01     6.09601e-01
 o20bf                                  8      0.0000       0.00000       A     3.15898e-01     3.03999e-01
 c21bf                                  6      0.0000       0.00000       A     3.39778e-01     4.49916e-01
 h22bf                                  1      0.0000       0.00000       A     2.62475e-01     6.74451e-02
 h23bf                                  1      0.0000       0.00000       A     2.62446e-01     6.69008e-02
 h24bf                                  1      0.0000       0.00000       A     2.62531e-01     6.74084e-02
 h25bf                                  1      0.0000       0.00000       A     2.62513e-01     6.75409e-02
 h26bf                                  1      0.0000       0.00000       A     2.41481e-01     8.75971e-02
 h27bf                                  1      0.0000       0.00000       A     2.41481e-01     8.75971e-02
 h28bf                                  1      0.0000       0.00000       A     2.42080e-01     8.75859e-02
 h29bf                                  1      0.0000       0.00000       A     2.42080e-01     8.75859e-02
 h30bf                                  1      0.0000       0.00000       A     2.42080e-01     8.75859e-02

[ moleculetype ]
;name             nrexcl
 23467                 3

[ atoms ]
;       nr            type      resi   res      atom      cgnr      charge          mass ; qtot
         1            s0bf         1   UNL        s0         1     0.19849       32.0670 ; qtot    0.198
         2            c1bf         1   UNL        c1         2    -0.26026       12.0110 ; qtot   -0.062
         3            c2bf         1   UNL        c2         3     0.11437       12.0110 ; qtot    0.053
         4            c3bf         1   UNL        c3         4    -0.05716       12.0110 ; qtot   -0.005
         5            c4bf         1   UNL        c4         5    -0.17115       12.0110 ; qtot   -0.176
         6            c5bf         1   UNL        c5         6     0.72713       12.0110 ; qtot    0.551
         7            o6bf         1   UNL        o6         7    -0.72308       15.9990 ; qtot   -0.172
         8            o7bf         1   UNL        o7         8    -0.72308       15.9990 ; qtot   -0.895
         9            c8bf         1   UNL        c8         9     0.01875       12.0110 ; qtot   -0.876
        10            c9bf         1   UNL        c9        10    -0.15240       12.0110 ; qtot   -1.028
        11           c10bf         1   UNL       c10        11     0.13518       12.0110 ; qtot   -0.893
        12           c11bf         1   UNL       c11        12    -0.16758       12.0110 ; qtot   -1.061
        13           c12bf         1   UNL       c12        13    -0.07519       12.0110 ; qtot   -1.136
        14           c13bf         1   UNL       c13        14    -0.11697       12.0110 ; qtot   -1.253
        15          br14bf         1   UNL      br14        15    -0.08621       79.9040 ; qtot   -1.339
        16           o15bf         1   UNL       o15        16    -0.35606       15.9990 ; qtot   -1.695
        17           c16bf         1   UNL       c16        17    -0.01490       12.0110 ; qtot   -1.710
        18           c17bf         1   UNL       c17        18     0.70991       12.0110 ; qtot   -1.000
        19           o18bf         1   UNL       o18        19    -0.73348       15.9990 ; qtot   -1.734
        20           o19bf         1   UNL       o19        20    -0.73348       15.9990 ; qtot   -2.467
        21           o20bf         1   UNL       o20        21    -0.34717       15.9990 ; qtot   -2.814
        22           c21bf         1   UNL       c21        22     0.14331       12.0110 ; qtot   -2.671
        23           h22bf         1   UNL       h22        23     0.12806        1.0080 ; qtot   -2.543
        24           h23bf         1   UNL       h23        24     0.12462        1.0080 ; qtot   -2.418
        25           h24bf         1   UNL       h24        25     0.11691        1.0080 ; qtot   -2.301
        26           h25bf         1   UNL       h25        26     0.12343        1.0080 ; qtot   -2.178
        27           h26bf         1   UNL       h26        27     0.02487        1.0080 ; qtot   -2.153
        28           h27bf         1   UNL       h27        28     0.02487        1.0080 ; qtot   -2.128
        29           h28bf         1   UNL       h28        29     0.04277        1.0080 ; qtot   -2.085
        30           h29bf         1   UNL       h29        30     0.04277        1.0080 ; qtot   -2.043
        31           h30bf         1   UNL       h30        31     0.04273        1.0080 ; qtot   -2.000

[ bonds ]
;       ai        aj funct               r               k
         1         2     1        0.174464   145572.874683
         1         5     1        0.175011   149164.477588
         2         3     1        0.138277   335024.121436
         2         6     1        0.154034   112597.124561
         3         4     1        0.143994   223875.334033
         3        16     1        0.134833   300010.369531
         4         5     1        0.138172   338405.209180
         4        15     1        0.190996   130541.361816
         5         9     1        0.147071   228841.663379
         6         7     1        0.125984   484107.493164
         6         8     1        0.125984   484107.493164
         9        10     1        0.140442   290187.929004
         9        14     1        0.140587   287111.090381
        10        11     1        0.140105   290545.142090
        10        23     1        0.108345   324240.872705
        11        12     1        0.140372   285836.941846
        11        21     1        0.136849   268766.482324
        12        13     1        0.139757   313805.311719
        12        24     1        0.108414   323682.529346
        13        14     1        0.139576   316500.523779
        13        25     1        0.108647   318625.466650
        14        26     1        0.108490   321932.062646
        16        17     1        0.145852   151865.231201
        17        18     1        0.156538   116742.448608
        17        27     1        0.109566   293138.384473
        17        28     1        0.109566   293138.384473
        18        19     1        0.126057   487285.382129
        18        20     1        0.126057   487285.382129
        21        22     1        0.142504   208179.498804
        22        29     1        0.109438   297412.683691
        22        30     1        0.109438   297412.683691
        22        31     1        0.109438   297412.683691

[ angles ]
;       ai        aj        ak funct           theta             cth
         1         2         3     1      110.160385      167.360000
         1         2         6     1      115.033363      592.692112
         1         5         4     1      108.978355      167.360000
         1         5         9     1      120.220627      422.262711
         2         1         5     1       93.199356      186.345676
         2         3         4     1      112.155884      382.616796
         2         3        16     1      126.134300      420.691349
         2         6         7     1      114.627625      339.029323
         2         6         8     1      114.627625      339.029323
         3         2         6     1      134.051437      467.327122
         3         4         5     1      114.629684      369.673376
         3         4        15     1      121.312027      306.426064
         3        16        17     1      117.821022      473.127047
         4         3        16     1      120.298485      422.691639
         4         5         9     1      130.711197      405.558154
         5         4        15     1      123.761276      284.251330
         5         9        10     1      120.106895      411.129010
         5         9        14     1      120.706802      467.150406
         7         6         8     1      130.398407      705.552920
         9        10        11     1      120.373047      727.480040
         9        10        23     1      119.919167      430.799543
         9        14        13     1      119.747276      676.694710
         9        14        26     1      119.902870      443.866052
        10         9        14     1      119.318932      619.022596
        10        11        12     1      119.898903      607.457350
        10        11        21     1      118.537033      512.533775
        11        10        23     1      119.693802      434.351755
        11        12        13     1      119.218460      732.881202
        11        12        24     1      120.290543      439.488705
        11        21        22     1      118.036942      561.783591
        12        11        21     1      120.896805      561.728878
        12        13        14     1      121.057419      690.450401
        12        13        25     1      119.257469      438.480404
        13        12        24     1      120.385727      431.763920
        13        14        26     1      120.256836      429.350472
        14        13        25     1      119.657326      436.699318
        16        17        18     1      113.930603      533.838045
        16        17        27     1      107.778183      447.857886
        16        17        28     1      107.778183      447.857886
        17        18        19     1      114.982224      326.587771
        17        18        20     1      114.982224      326.587771
        18        17        27     1      109.132103      476.479910
        18        17        28     1      109.132103      476.479910
        19        18        20     1      130.064865      720.626454
        21        22        29     1      109.522301      448.851471
        21        22        30     1      109.522301      448.851471
        21        22        31     1      109.522301      448.851471
        27        17        28     1      108.416725      344.620386
        29        22        30     1      109.477646      342.882107
        29        22        31     1      109.477646      342.882107
        30        22        31     1      109.477646      342.882107

[ dihedrals ] ; propers for gromacs 4.5 or higher, use funct 9
;       ai        aj        ak        al funct           phase               k        pn
         1         2         3         4     9        0.000000       -0.157449         1
         1         2         3         4     9      180.000000       23.193074         2
         1         2         3         4     9        0.000000       -4.968980         3
         1         2         3         4     9      180.000000       -0.609654         4
         1         2         3        16     9        0.000000        0.970785         1
         1         2         3        16     9      180.000000       21.885522         2
         1         2         3        16     9        0.000000        0.406671         3
         1         2         3        16     9      180.000000       -1.347847         4
         1         2         6         7     9        0.000000        1.117412         1
         1         2         6         7     9      180.000000        4.117927         2
         1         2         6         7     9        0.000000        0.067199         3
         1         2         6         7     9      180.000000        0.180393         4
         1         2         6         8     9        0.000000        1.117412         1
         1         2         6         8     9      180.000000        4.117927         2
         1         2         6         8     9        0.000000        0.067199         3
         1         2         6         8     9      180.000000        0.180393         4
         1         5         4         3     9        0.000000       -0.308869         1
         1         5         4         3     9      180.000000       24.525026         2
         1         5         4         3     9        0.000000       -5.951574         3
         1         5         4         3     9      180.000000       -0.597077         4
         1         5         4        15     9        0.000000        0.499744         1
         1         5         4        15     9      180.000000       17.364526         2
         1         5         4        15     9        0.000000        0.197165         3
         1         5         4        15     9      180.000000       -1.058848         4
         1         5         9        10     9        0.000000       -0.336978         1
         1         5         9        10     9      180.000000        3.190064         2
         1         5         9        10     9        0.000000        0.019372         3
         1         5         9        10     9      180.000000        0.283543         4
         1         5         9        14     9        0.000000       -0.239555         1
         1         5         9        14     9      180.000000        3.131768         2
         1         5         9        14     9        0.000000        0.173150         3
         1         5         9        14     9      180.000000        0.220954         4
         2         1         5         4     9        0.000000       -0.374054         1
         2         1         5         4     9      180.000000       24.245361         2
         2         1         5         4     9        0.000000       -5.026658         3
         2         1         5         4     9      180.000000       -0.461985         4
         2         1         5         9     9        0.000000       -0.153530         1
         2         1         5         9     9      180.000000       15.155880         2
         2         1         5         9     9        0.000000        0.294731         3
         2         1         5         9     9      180.000000       -0.603312         4
         2         3         4         5     9        0.000000       -0.242387         1
         2         3         4         5     9      180.000000       14.197159         2
         2         3         4         5     9        0.000000       -2.696384         3
         2         3         4         5     9      180.000000       -0.313834         4
         2         3         4        15     9        0.000000        0.248322         1
         2         3         4        15     9      180.000000       11.562275         2
         2         3         4        15     9        0.000000        0.148421         3
         2         3         4        15     9      180.000000       -0.630060         4
         2         3        16        17     9        0.000000        0.701674         1
         2         3        16        17     9      180.000000        2.973538         2
         2         3        16        17     9        0.000000        0.307642         3
         2         3        16        17     9      180.000000       -0.218273         4
         3         2         1         5     9        0.000000       -0.081376         1
         3         2         1         5     9      180.000000       22.925196         2
         3         2         1         5     9        0.000000       -3.557954         3
         3         2         1         5     9      180.000000       -0.700000         4
         3         2         6         7     9        0.000000       -5.137618         1
         3         2         6         7     9      180.000000        2.933941         2
         3         2         6         7     9        0.000000        0.193555         3
         3         2         6         7     9      180.000000       -0.187922         4
         3         2         6         8     9        0.000000       -5.137618         1
         3         2         6         8     9      180.000000        2.933941         2
         3         2         6         8     9        0.000000        0.193555         3
         3         2         6         8     9      180.000000       -0.187922         4
         3         4         5         9     9        0.000000        0.189900         1
         3         4         5         9     9      180.000000       16.103143         2
         3         4         5         9     9        0.000000       -0.354209         3
         3         4         5         9     9      180.000000       -1.016118         4
         3        16        17        18     9        0.000000       -4.760846         1
         3        16        17        18     9      180.000000       -1.857167         2
         3        16        17        18     9        0.000000        0.352751         3
         3        16        17        18     9      180.000000        0.004622         4
         3        16        17        27     9        0.000000       -0.294821         1
         3        16        17        27     9      180.000000       -0.281191         2
         3        16        17        27     9        0.000000        0.570610         3
         3        16        17        27     9      180.000000        0.007077         4
         3        16        17        28     9        0.000000       -0.294821         1
         3        16        17        28     9      180.000000       -0.281191         2
         3        16        17        28     9        0.000000        0.570610         3
         3        16        17        28     9      180.000000        0.007077         4
         4         3         2         6     9        0.000000       -0.190053         1
         4         3         2         6     9      180.000000       11.755029         2
         4         3         2         6     9        0.000000       -0.719247         3
         4         3         2         6     9      180.000000       -0.502059         4
         4         3        16        17     9        0.000000        2.857401         1
         4         3        16        17     9      180.000000        2.426502         2
         4         3        16        17     9        0.000000        0.581872         3
         4         3        16        17     9      180.000000       -0.192707         4
         4         5         9        10     9        0.000000       -0.256538         1
         4         5         9        10     9      180.000000        2.215118         2
         4         5         9        10     9        0.000000       -0.063117         3
         4         5         9        10     9      180.000000        0.020464         4
         4         5         9        14     9        0.000000        0.351806         1
         4         5         9        14     9      180.000000        2.118998         2
         4         5         9        14     9        0.000000       -0.047209         3
         4         5         9        14     9      180.000000        0.037454         4
         5         1         2         6     9        0.000000        0.979540         1
         5         1         2         6     9      180.000000       10.292334         2
         5         1         2         6     9        0.000000       -0.306427         3
         5         1         2         6     9      180.000000        0.046356         4
         5         4         3        16     9        0.000000        0.518835         1
         5         4         3        16     9      180.000000       12.738604         2
         5         4         3        16     9        0.000000        0.358004         3
         5         4         3        16     9      180.000000       -0.181101         4
         5         9        10        11     9        0.000000        0.172164         1
         5         9        10        11     9      180.000000       15.991437         2
         5         9        10        11     9        0.000000       -0.078913         3
         5         9        10        11     9      180.000000       -0.457136         4
         5         9        10        23     9        0.000000        0.008292         1
         5         9        10        23     9      180.000000       12.846285         2
         5         9        10        23     9        0.000000       -0.202500         3
         5         9        10        23     9      180.000000        0.210173         4
         5         9        14        13     9        0.000000        0.333506         1
         5         9        14        13     9      180.000000       16.527973         2
         5         9        14        13     9        0.000000       -0.192083         3
         5         9        14        13     9      180.000000       -0.358377         4
         5         9        14        26     9        0.000000        0.091588         1
         5         9        14        26     9      180.000000       12.997549         2
         5         9        14        26     9        0.000000       -0.232623         3
         5         9        14        26     9      180.000000        0.180258         4
         6         2         3        16     9        0.000000        0.216703         1
         6         2         3        16     9      180.000000       15.170352         2
         6         2         3        16     9        0.000000        0.500829         3
         6         2         3        16     9      180.000000       -0.921398         4
         9         5         4        15     9        0.000000        0.432323         1
         9         5         4        15     9      180.000000       13.060105         2
         9         5         4        15     9        0.000000        0.572240         3
         9         5         4        15     9      180.000000       -0.486851         4
         9        10        11        12     9        0.000000       -0.085165         1
         9        10        11        12     9      180.000000       15.930197         2
         9        10        11        12     9        0.000000       -0.998951         3
         9        10        11        12     9      180.000000       -0.265469         4
         9        10        11        21     9        0.000000        0.516274         1
         9        10        11        21     9      180.000000       17.097198         2
         9        10        11        21     9        0.000000        0.434180         3
         9        10        11        21     9      180.000000       -0.319873         4
         9        14        13        12     9        0.000000        0.006939         1
         9        14        13        12     9      180.000000       19.227845         2
         9        14        13        12     9        0.000000       -1.611671         3
         9        14        13        12     9      180.000000       -0.444457         4
         9        14        13        25     9        0.000000       -0.060497         1
         9        14        13        25     9      180.000000       15.027190         2
         9        14        13        25     9        0.000000       -0.570790         3
         9        14        13        25     9      180.000000        0.078627         4
        10         9        14        13     9        0.000000       -0.108283         1
        10         9        14        13     9      180.000000       18.085137         2
        10         9        14        13     9        0.000000       -1.440630         3
        10         9        14        13     9      180.000000       -0.324155         4
        10         9        14        26     9        0.000000        0.011028         1
        10         9        14        26     9      180.000000       13.847440         2
        10         9        14        26     9        0.000000       -0.528814         3
        10         9        14        26     9      180.000000        0.118034         4
        10        11        12        13     9        0.000000       -0.019863         1
        10        11        12        13     9      180.000000       15.568250         2
        10        11        12        13     9        0.000000       -0.889104         3
        10        11        12        13     9      180.000000       -0.200224         4
        10        11        12        24     9        0.000000        0.074655         1
        10        11        12        24     9      180.000000       12.377289         2
        10        11        12        24     9        0.000000       -0.442853         3
        10        11        12        24     9      180.000000        0.160903         4
        10        11        21        22     9        0.000000       -0.382333         1
        10        11        21        22     9      180.000000        5.691521         2
        10        11        21        22     9        0.000000       -0.198745         3
        10        11        21        22     9      180.000000        0.720420         4
        11        10         9        14     9        0.000000       -0.194797         1
        11        10         9        14     9      180.000000       17.997465         2
        11        10         9        14     9        0.000000       -1.607236         3
        11        10         9        14     9      180.000000       -0.389116         4
        11        12        13        14     9        0.000000        0.003078         1
        11        12        13        14     9      180.000000       18.417653         2
        11        12        13        14     9        0.000000       -1.575194         3
        11        12        13        14     9      180.000000       -0.455376         4
        11        12        13        25     9        0.000000        0.021475         1
        11        12        13        25     9      180.000000       14.675826         2
        11        12        13        25     9        0.000000       -0.501041         3
        11        12        13        25     9      180.000000        0.065714         4
        11        21        22        29     9        0.000000       -0.092642         1
        11        21        22        29     9      180.000000        0.034924         2
        11        21        22        29     9        0.000000        0.687818         3
        11        21        22        29     9      180.000000       -0.026474         4
        11        21        22        30     9        0.000000       -0.092642         1
        11        21        22        30     9      180.000000        0.034924         2
        11        21        22        30     9        0.000000        0.687818         3
        11        21        22        30     9      180.000000       -0.026474         4
        11        21        22        31     9        0.000000       -0.092642         1
        11        21        22        31     9      180.000000        0.034924         2
        11        21        22        31     9        0.000000        0.687818         3
        11        21        22        31     9      180.000000       -0.026474         4
        12        11        10        23     9        0.000000        0.149476         1
        12        11        10        23     9      180.000000       12.524520         2
        12        11        10        23     9        0.000000       -0.479128         3
        12        11        10        23     9      180.000000        0.259664         4
        12        11        21        22     9        0.000000        0.332874         1
        12        11        21        22     9      180.000000        5.649428         2
        12        11        21        22     9        0.000000       -0.051459         3
        12        11        21        22     9      180.000000        0.677400         4
        12        13        14        26     9        0.000000        0.038325         1
        12        13        14        26     9      180.000000       14.987815         2
        12        13        14        26     9        0.000000       -0.728206         3
        12        13        14        26     9      180.000000        0.113404         4
        13        12        11        21     9        0.000000        0.582758         1
        13        12        11        21     9      180.000000       17.396282         2
        13        12        11        21     9        0.000000        0.475931         3
        13        12        11        21     9      180.000000       -0.250330         4
        14         9        10        23     9        0.000000        0.056724         1
        14         9        10        23     9      180.000000       13.372328         2
        14         9        10        23     9        0.000000       -0.531980         3
        14         9        10        23     9      180.000000        0.131413         4
        14        13        12        24     9        0.000000        0.074200         1
        14        13        12        24     9      180.000000       13.649409         2
        14        13        12        24     9        0.000000       -0.645228         3
        14        13        12        24     9      180.000000        0.197800         4
        15         4         3        16     9        0.000000       -0.153279         1
        15         4         3        16     9      180.000000       12.598057         2
        15         4         3        16     9        0.000000        0.466981         3
        15         4         3        16     9      180.000000       -0.523506         4
        16        17        18        19     9        0.000000       -1.573020         1
        16        17        18        19     9      180.000000        4.124890         2
        16        17        18        19     9        0.000000        0.247417         3
        16        17        18        19     9      180.000000        0.125481         4
        16        17        18        20     9        0.000000       -1.573020         1
        16        17        18        20     9      180.000000        4.124890         2
        16        17        18        20     9        0.000000        0.247417         3
        16        17        18        20     9      180.000000        0.125481         4
        19        18        17        27     9        0.000000        0.050676         1
        19        18        17        27     9      180.000000       -0.380925         2
        19        18        17        27     9        0.000000        0.149856         3
        19        18        17        27     9      180.000000        0.058403         4
        19        18        17        28     9        0.000000        0.050676         1
        19        18        17        28     9      180.000000       -0.380925         2
        19        18        17        28     9        0.000000        0.149856         3
        19        18        17        28     9      180.000000        0.058403         4
        20        18        17        27     9        0.000000        0.050676         1
        20        18        17        27     9      180.000000       -0.380925         2
        20        18        17        27     9        0.000000        0.149856         3
        20        18        17        27     9      180.000000        0.058403         4
        20        18        17        28     9        0.000000        0.050676         1
        20        18        17        28     9      180.000000       -0.380925         2
        20        18        17        28     9        0.000000        0.149856         3
        20        18        17        28     9      180.000000        0.058403         4
        21        11        10        23     9        0.000000        0.046593         1
        21        11        10        23     9      180.000000       12.763612         2
        21        11        10        23     9        0.000000       -0.126211         3
        21        11        10        23     9      180.000000        0.307972         4
        21        11        12        24     9        0.000000        0.072689         1
        21        11        12        24     9      180.000000       12.798978         2
        21        11        12        24     9        0.000000       -0.126899         3
        21        11        12        24     9      180.000000        0.265127         4
        24        12        13        25     9        0.000000       -0.191430         1
        24        12        13        25     9      180.000000       11.445257         2
        24        12        13        25     9        0.000000       -0.571077         3
        24        12        13        25     9      180.000000        0.244330         4
        25        13        14        26     9        0.000000       -0.167138         1
        25        13        14        26     9      180.000000       12.056263         2
        25        13        14        26     9        0.000000       -0.657188         3
        25        13        14        26     9      180.000000        0.293284         4

[ dihedrals ] ; impropers
;       ai        aj        ak        al funct           phase               k        pn
         6         2         7         8     4      180.000000       27.893333         2
         6         7         8         2     4      180.000000       27.893333         2
         6         8         2         7     4      180.000000       27.893333         2
        11        10        12        21     4      180.000000        0.518762         2
        11        12        21        10     4      180.000000        0.518762         2
        11        21        10        12     4      180.000000        0.518762         2
        18        17        19        20     4      180.000000       27.893333         2
        18        19        20        17     4      180.000000       27.893333         2
        18        20        17        19     4      180.000000       27.893333         2

[ pairs ]
;       ai        aj funct
         1         7     1
         1         8     1
         1        10     1
         1        14     1
         1        15     1
         1        16     1
         2         9     1
         2        15     1
         2        17     1
         3         7     1
         3         8     1
         3         9     1
         3        18     1
         3        27     1
         3        28     1
         4         6     1
         4        10     1
         4        14     1
         4        17     1
         5         6     1
         5        11     1
         5        13     1
         5        16     1
         5        23     1
         5        26     1
         6        16     1
         9        12     1
         9        15     1
         9        21     1
         9        25     1
        10        13     1
        10        22     1
        10        24     1
        10        26     1
        11        14     1
        11        25     1
        11        29     1
        11        30     1
        11        31     1
        12        22     1
        12        23     1
        12        26     1
        13        21     1
        14        23     1
        14        24     1
        15        16     1
        16        19     1
        16        20     1
        19        27     1
        19        28     1
        20        27     1
        20        28     1
        21        23     1
        21        24     1
        24        25     1
        25        26     1
