; ITP file created by ByteFF-ML, 2026-02-21 08:24:09.740484

[ atomtypes ]
;name           bonded.type        at.num        mass        charge   ptype           sigma         epsilon
 s0bf                                  16      0.0000       0.00000       A     3.53064e-01     1.17901e+00
 c1bf                                   6      0.0000       0.00000       A     3.31755e-01     4.09816e-01
 c2bf                                   6      0.0000       0.00000       A     3.31349e-01     4.08441e-01
 c3bf                                   6      0.0000       0.00000       A     3.31198e-01     4.12218e-01
 c4bf                                   6      0.0000       0.00000       A     3.31630e-01     4.13561e-01
 c5bf                                   6      0.0000       0.00000       A     3.31455e-01     4.10610e-01
 o6bf                                   8      0.0000       0.00000       A     3.05104e-01     6.09960e-01
 o7bf                                   8      0.0000       0.00000       A     3.05104e-01     6.09960e-01
 c8bf                                   6      0.0000       0.00000       A     3.31408e-01     4.10107e-01
 c9bf                                   6      0.0000       0.00000       A     3.31691e-01     4.12309e-01
 c10bf                                  6      0.0000       0.00000       A     3.31494e-01     4.12096e-01
 c11bf                                  6      0.0000       0.00000       A     3.31514e-01     4.12025e-01
 c12bf                                  6      0.0000       0.00000       A     3.31488e-01     4.13403e-01
 c13bf                                  6      0.0000       0.00000       A     3.31465e-01     4.11762e-01
 br14bf                                35      0.0000       0.00000       A     3.61379e-01     1.65034e+00
 o15bf                                  8      0.0000       0.00000       A     3.15911e-01     3.03161e-01
 c16bf                                  6      0.0000       0.00000       A     3.39643e-01     4.49664e-01
 c17bf                                  6      0.0000       0.00000       A     3.31634e-01     4.10394e-01
 o18bf                                  8      0.0000       0.00000       A     3.04741e-01     6.09601e-01
 o19bf                                  8      0.0000       0.00000       A     3.04741e-01     6.09601e-01
 n20bf                                  7      0.0000       0.00000       A     3.36950e-01     4.66453e-01
 h21bf                                  1      0.0000       0.00000       A     2.62264e-01     6.79191e-02
 h22bf                                  1      0.0000       0.00000       A     2.62427e-01     6.72248e-02
 h23bf                                  1      0.0000       0.00000       A     2.62530e-01     6.75680e-02
 h24bf                                  1      0.0000       0.00000       A     2.62513e-01     6.75409e-02
 h25bf                                  1      0.0000       0.00000       A     2.41481e-01     8.75971e-02
 h26bf                                  1      0.0000       0.00000       A     2.41481e-01     8.75971e-02
 h27bf                                  1      0.0000       0.00000       A     1.10532e-01     4.05322e-02
 h28bf                                  1      0.0000       0.00000       A     1.10532e-01     4.05322e-02

[ moleculetype ]
;name             nrexcl
 23466                 3

[ atoms ]
;       nr            type      resi   res      atom      cgnr      charge          mass ; qtot
         1            s0bf         1   UNL        s0         1     0.19677       32.0670 ; qtot    0.197
         2            c1bf         1   UNL        c1         2    -0.26026       12.0110 ; qtot   -0.063
         3            c2bf         1   UNL        c2         3     0.11437       12.0110 ; qtot    0.051
         4            c3bf         1   UNL        c3         4    -0.05837       12.0110 ; qtot   -0.007
         5            c4bf         1   UNL        c4         5    -0.16819       12.0110 ; qtot   -0.176
         6            c5bf         1   UNL        c5         6     0.72713       12.0110 ; qtot    0.551
         7            o6bf         1   UNL        o6         7    -0.72308       15.9990 ; qtot   -0.172
         8            o7bf         1   UNL        o7         8    -0.72308       15.9990 ; qtot   -0.895
         9            c8bf         1   UNL        c8         9     0.01466       12.0110 ; qtot   -0.880
        10            c9bf         1   UNL        c9        10    -0.15612       12.0110 ; qtot   -1.036
        11           c10bf         1   UNL       c10        11     0.26548       12.0110 ; qtot   -0.771
        12           c11bf         1   UNL       c11        12    -0.17184       12.0110 ; qtot   -0.943
        13           c12bf         1   UNL       c12        13    -0.07562       12.0110 ; qtot   -1.018
        14           c13bf         1   UNL       c13        14    -0.11830       12.0110 ; qtot   -1.136
        15          br14bf         1   UNL      br14        15    -0.08621       79.9040 ; qtot   -1.223
        16           o15bf         1   UNL       o15        16    -0.35606       15.9990 ; qtot   -1.579
        17           c16bf         1   UNL       c16        17    -0.01490       12.0110 ; qtot   -1.594
        18           c17bf         1   UNL       c17        18     0.70991       12.0110 ; qtot   -0.884
        19           o18bf         1   UNL       o18        19    -0.73348       15.9990 ; qtot   -1.617
        20           o19bf         1   UNL       o19        20    -0.73348       15.9990 ; qtot   -2.351
        21           n20bf         1   UNL       n20        21    -1.04559       14.0070 ; qtot   -3.396
        22           h21bf         1   UNL       h21        22     0.12082        1.0080 ; qtot   -3.275
        23           h22bf         1   UNL       h22        23     0.11693        1.0080 ; qtot   -3.159
        24           h23bf         1   UNL       h23        24     0.11549        1.0080 ; qtot   -3.043
        25           h24bf         1   UNL       h24        25     0.12297        1.0080 ; qtot   -2.920
        26           h25bf         1   UNL       h25        26     0.02487        1.0080 ; qtot   -2.895
        27           h26bf         1   UNL       h26        27     0.02487        1.0080 ; qtot   -2.870
        28           h27bf         1   UNL       h27        28     0.43516        1.0080 ; qtot   -2.435
        29           h28bf         1   UNL       h28        29     0.43515        1.0080 ; qtot   -2.000

[ bonds ]
;       ai        aj funct               r               k
         1         2     1        0.174464   145572.874683
         1         5     1        0.175012   149020.499365
         2         3     1        0.138277   335024.146973
         2         6     1        0.154034   112597.124561
         3         4     1        0.143994   223875.334033
         3        16     1        0.134833   300010.395068
         4         5     1        0.138169   338414.760059
         4        15     1        0.190996   130541.349048
         5         9     1        0.147076   228852.874170
         6         7     1        0.125984   484107.493164
         6         8     1        0.125984   484107.493164
         9        10     1        0.140414   290876.128564
         9        14     1        0.140561   287547.391895
        10        11     1        0.140508   286454.735596
        10        22     1        0.108549   318762.064648
        11        12     1        0.140759   280834.783936
        11        21     1        0.140348   278154.408936
        12        13     1        0.139531   317866.120703
        12        23     1        0.108659   316857.353809
        13        14     1        0.139607   315307.991846
        13        24     1        0.108657   318249.024121
        14        25     1        0.108491   321875.242578
        16        17     1        0.145852   151865.243970
        17        18     1        0.156538   116742.448608
        17        26     1        0.109566   293138.384473
        17        27     1        0.109566   293138.384473
        18        19     1        0.126057   487285.382129
        18        20     1        0.126057   487285.382129
        21        28     1        0.101272   418345.503809
        21        29     1        0.101272   418345.503809

[ angles ]
;       ai        aj        ak funct           theta             cth
         1         2         3     1      110.160385      167.360000
         1         2         6     1      115.033363      592.692112
         1         5         4     1      108.982101      167.360000
         1         5         9     1      120.212257      421.970950
         2         1         5     1       93.195396      186.526079
         2         3         4     1      112.155884      382.616796
         2         3        16     1      126.134300      420.691349
         2         6         7     1      114.627625      339.029323
         2         6         8     1      114.627625      339.029323
         3         2         6     1      134.051437      467.327122
         3         4         5     1      114.634010      370.337181
         3         4        15     1      121.312027      306.426064
         3        16        17     1      117.821022      473.127047
         4         3        16     1      120.298485      422.691639
         4         5         9     1      130.784149      405.225246
         5         4        15     1      123.746353      284.291934
         5         9        10     1      120.064659      406.215064
         5         9        14     1      120.702721      464.914472
         7         6         8     1      130.398407      705.552920
         9        10        11     1      120.998642      744.539850
         9        10        22     1      119.442116      435.474526
         9        14        13     1      119.599258      679.375595
         9        14        25     1      119.942215      443.774342
        10         9        14     1      119.381760      605.949192
        10        11        12     1      118.909813      638.627052
        10        11        21     1      120.454300      533.837758
        11        10        22     1      119.404991      433.443400
        11        12        13     1      119.996788      752.996209
        11        12        23     1      119.783340      441.837289
        11        21        28     1      114.304283      490.296252
        11        21        29     1      114.304283      490.296252
        12        11        21     1      120.607117      597.121396
        12        13        14     1      120.993301      687.844276
        12        13        24     1      119.256424      436.107368
        13        12        23     1      120.178894      437.386649
        13        14        25     1      120.279762      429.684529
        14        13        24     1      119.632812      437.006083
        16        17        18     1      113.930603      533.838013
        16        17        26     1      107.778183      447.857886
        16        17        27     1      107.778183      447.857886
        17        18        19     1      114.982224      326.587771
        17        18        20     1      114.982224      326.587771
        18        17        26     1      109.132103      476.479878
        18        17        27     1      109.132103      476.479878
        19        18        20     1      130.064865      720.626454
        26        17        27     1      108.416725      344.620418
        28        21        29     1      111.303452      376.659244

[ dihedrals ] ; propers for gromacs 4.5 or higher, use funct 9
;       ai        aj        ak        al funct           phase               k        pn
         1         2         3         4     9        0.000000       -0.157449         1
         1         2         3         4     9      180.000000       23.193074         2
         1         2         3         4     9        0.000000       -4.968980         3
         1         2         3         4     9      180.000000       -0.609654         4
         1         2         3        16     9        0.000000        0.970784         1
         1         2         3        16     9      180.000000       21.885524         2
         1         2         3        16     9        0.000000        0.406671         3
         1         2         3        16     9      180.000000       -1.347848         4
         1         2         6         7     9        0.000000        1.117412         1
         1         2         6         7     9      180.000000        4.117927         2
         1         2         6         7     9        0.000000        0.067199         3
         1         2         6         7     9      180.000000        0.180393         4
         1         2         6         8     9        0.000000        1.117412         1
         1         2         6         8     9      180.000000        4.117927         2
         1         2         6         8     9        0.000000        0.067199         3
         1         2         6         8     9      180.000000        0.180393         4
         1         5         4         3     9        0.000000       -0.306830         1
         1         5         4         3     9      180.000000       24.522087         2
         1         5         4         3     9        0.000000       -5.964298         3
         1         5         4         3     9      180.000000       -0.599843         4
         1         5         4        15     9        0.000000        0.499554         1
         1         5         4        15     9      180.000000       17.380840         2
         1         5         4        15     9        0.000000        0.197540         3
         1         5         4        15     9      180.000000       -1.066303         4
         1         5         9        10     9        0.000000       -0.367417         1
         1         5         9        10     9      180.000000        3.210231         2
         1         5         9        10     9        0.000000       -0.031508         3
         1         5         9        10     9      180.000000        0.280761         4
         1         5         9        14     9        0.000000       -0.227956         1
         1         5         9        14     9      180.000000        3.118105         2
         1         5         9        14     9        0.000000        0.148739         3
         1         5         9        14     9      180.000000        0.204638         4
         2         1         5         4     9        0.000000       -0.388546         1
         2         1         5         4     9      180.000000       24.242166         2
         2         1         5         4     9        0.000000       -5.021315         3
         2         1         5         4     9      180.000000       -0.471890         4
         2         1         5         9     9        0.000000       -0.197129         1
         2         1         5         9     9      180.000000       15.242149         2
         2         1         5         9     9        0.000000        0.251493         3
         2         1         5         9     9      180.000000       -0.618672         4
         2         3         4         5     9        0.000000       -0.251747         1
         2         3         4         5     9      180.000000       14.214228         2
         2         3         4         5     9        0.000000       -2.698728         3
         2         3         4         5     9      180.000000       -0.310431         4
         2         3         4        15     9        0.000000        0.248322         1
         2         3         4        15     9      180.000000       11.562275         2
         2         3         4        15     9        0.000000        0.148421         3
         2         3         4        15     9      180.000000       -0.630060         4
         2         3        16        17     9        0.000000        0.701674         1
         2         3        16        17     9      180.000000        2.973539         2
         2         3        16        17     9        0.000000        0.307642         3
         2         3        16        17     9      180.000000       -0.218273         4
         3         2         1         5     9        0.000000       -0.083282         1
         3         2         1         5     9      180.000000       22.870919         2
         3         2         1         5     9        0.000000       -3.551990         3
         3         2         1         5     9      180.000000       -0.695859         4
         3         2         6         7     9        0.000000       -5.137618         1
         3         2         6         7     9      180.000000        2.933941         2
         3         2         6         7     9        0.000000        0.193555         3
         3         2         6         7     9      180.000000       -0.187922         4
         3         2         6         8     9        0.000000       -5.137618         1
         3         2         6         8     9      180.000000        2.933941         2
         3         2         6         8     9        0.000000        0.193555         3
         3         2         6         8     9      180.000000       -0.187922         4
         3         4         5         9     9        0.000000        0.206338         1
         3         4         5         9     9      180.000000       16.251197         2
         3         4         5         9     9        0.000000       -0.389910         3
         3         4         5         9     9      180.000000       -1.027850         4
         3        16        17        18     9        0.000000       -4.760847         1
         3        16        17        18     9      180.000000       -1.857167         2
         3        16        17        18     9        0.000000        0.352751         3
         3        16        17        18     9      180.000000        0.004622         4
         3        16        17        26     9        0.000000       -0.294821         1
         3        16        17        26     9      180.000000       -0.281191         2
         3        16        17        26     9        0.000000        0.570610         3
         3        16        17        26     9      180.000000        0.007078         4
         3        16        17        27     9        0.000000       -0.294821         1
         3        16        17        27     9      180.000000       -0.281191         2
         3        16        17        27     9        0.000000        0.570610         3
         3        16        17        27     9      180.000000        0.007078         4
         4         3         2         6     9        0.000000       -0.190053         1
         4         3         2         6     9      180.000000       11.755029         2
         4         3         2         6     9        0.000000       -0.719247         3
         4         3         2         6     9      180.000000       -0.502059         4
         4         3        16        17     9        0.000000        2.857402         1
         4         3        16        17     9      180.000000        2.426502         2
         4         3        16        17     9        0.000000        0.581873         3
         4         3        16        17     9      180.000000       -0.192707         4
         4         5         9        10     9        0.000000       -0.317119         1
         4         5         9        10     9      180.000000        2.250723         2
         4         5         9        10     9        0.000000       -0.082658         3
         4         5         9        10     9      180.000000        0.031816         4
         4         5         9        14     9        0.000000        0.292214         1
         4         5         9        14     9      180.000000        2.100720         2
         4         5         9        14     9        0.000000       -0.059206         3
         4         5         9        14     9      180.000000        0.031250         4
         5         1         2         6     9        0.000000        0.985272         1
         5         1         2         6     9      180.000000       10.250465         2
         5         1         2         6     9        0.000000       -0.288304         3
         5         1         2         6     9      180.000000        0.044596         4
         5         4         3        16     9        0.000000        0.518481         1
         5         4         3        16     9      180.000000       12.721724         2
         5         4         3        16     9        0.000000        0.352405         3
         5         4         3        16     9      180.000000       -0.184802         4
         5         9        10        11     9        0.000000        0.359642         1
         5         9        10        11     9      180.000000       15.818653         2
         5         9        10        11     9        0.000000       -0.001143         3
         5         9        10        11     9      180.000000       -0.394779         4
         5         9        10        22     9        0.000000        0.041433         1
         5         9        10        22     9      180.000000       13.039694         2
         5         9        10        22     9        0.000000       -0.189198         3
         5         9        10        22     9      180.000000        0.165429         4
         5         9        14        13     9        0.000000        0.331913         1
         5         9        14        13     9      180.000000       16.575855         2
         5         9        14        13     9        0.000000       -0.195425         3
         5         9        14        13     9      180.000000       -0.363710         4
         5         9        14        25     9        0.000000        0.098898         1
         5         9        14        25     9      180.000000       12.915629         2
         5         9        14        25     9        0.000000       -0.235012         3
         5         9        14        25     9      180.000000        0.177337         4
         6         2         3        16     9        0.000000        0.216703         1
         6         2         3        16     9      180.000000       15.170352         2
         6         2         3        16     9        0.000000        0.500829         3
         6         2         3        16     9      180.000000       -0.921398         4
         9         5         4        15     9        0.000000        0.446195         1
         9         5         4        15     9      180.000000       13.027642         2
         9         5         4        15     9        0.000000        0.549096         3
         9         5         4        15     9      180.000000       -0.487630         4
         9        10        11        12     9        0.000000        0.061200         1
         9        10        11        12     9      180.000000       15.759480         2
         9        10        11        12     9        0.000000       -0.898416         3
         9        10        11        12     9      180.000000       -0.205515         4
         9        10        11        21     9        0.000000        0.358699         1
         9        10        11        21     9      180.000000       18.039482         2
         9        10        11        21     9        0.000000        0.196771         3
         9        10        11        21     9      180.000000       -0.581762         4
         9        14        13        12     9        0.000000        0.002424         1
         9        14        13        12     9      180.000000       19.330199         2
         9        14        13        12     9        0.000000       -1.627390         3
         9        14        13        12     9      180.000000       -0.470076         4
         9        14        13        24     9        0.000000       -0.030605         1
         9        14        13        24     9      180.000000       14.983588         2
         9        14        13        24     9        0.000000       -0.540191         3
         9        14        13        24     9      180.000000        0.060088         4
        10         9        14        13     9        0.000000       -0.121354         1
        10         9        14        13     9      180.000000       17.937254         2
        10         9        14        13     9        0.000000       -1.461148         3
        10         9        14        13     9      180.000000       -0.302518         4
        10         9        14        25     9        0.000000        0.030615         1
        10         9        14        25     9      180.000000       13.700158         2
        10         9        14        25     9        0.000000       -0.470542         3
        10         9        14        25     9      180.000000        0.089603         4
        10        11        12        13     9        0.000000        0.164535         1
        10        11        12        13     9      180.000000       15.457992         2
        10        11        12        13     9        0.000000       -0.858705         3
        10        11        12        13     9      180.000000       -0.157933         4
        10        11        12        23     9        0.000000       -0.050352         1
        10        11        12        23     9      180.000000       12.594821         2
        10        11        12        23     9        0.000000       -0.334956         3
        10        11        12        23     9      180.000000        0.127481         4
        10        11        21        28     9        0.000000        0.370472         1
        10        11        21        28     9      180.000000        4.676923         2
        10        11        21        28     9        0.000000       -0.035895         3
        10        11        21        28     9      180.000000        0.350115         4
        10        11        21        29     9        0.000000        0.370472         1
        10        11        21        29     9      180.000000        4.676923         2
        10        11        21        29     9        0.000000       -0.035895         3
        10        11        21        29     9      180.000000        0.350115         4
        11        10         9        14     9        0.000000       -0.157626         1
        11        10         9        14     9      180.000000       17.704419         2
        11        10         9        14     9        0.000000       -1.683658         3
        11        10         9        14     9      180.000000       -0.342377         4
        11        12        13        14     9        0.000000        0.020484         1
        11        12        13        14     9      180.000000       18.126563         2
        11        12        13        14     9        0.000000       -1.681594         3
        11        12        13        14     9      180.000000       -0.408838         4
        11        12        13        24     9        0.000000        0.015066         1
        11        12        13        24     9      180.000000       14.190844         2
        11        12        13        24     9        0.000000       -0.637853         3
        11        12        13        24     9      180.000000        0.031161         4
        12        11        10        22     9        0.000000       -0.011659         1
        12        11        10        22     9      180.000000       12.755989         2
        12        11        10        22     9        0.000000       -0.314123         3
        12        11        10        22     9      180.000000        0.156978         4
        12        11        21        28     9        0.000000       -0.006852         1
        12        11        21        28     9      180.000000        4.623321         2
        12        11        21        28     9        0.000000        0.000667         3
        12        11        21        28     9      180.000000        0.374019         4
        12        11        21        29     9        0.000000       -0.006852         1
        12        11        21        29     9      180.000000        4.623321         2
        12        11        21        29     9        0.000000        0.000667         3
        12        11        21        29     9      180.000000        0.374019         4
        12        13        14        25     9        0.000000        0.089082         1
        12        13        14        25     9      180.000000       14.725352         2
        12        13        14        25     9        0.000000       -0.715089         3
        12        13        14        25     9      180.000000        0.110057         4
        13        12        11        21     9        0.000000        0.271483         1
        13        12        11        21     9      180.000000       17.778058         2
        13        12        11        21     9        0.000000        0.072330         3
        13        12        11        21     9      180.000000       -0.348522         4
        14         9        10        22     9        0.000000        0.020885         1
        14         9        10        22     9      180.000000       13.497382         2
        14         9        10        22     9        0.000000       -0.507562         3
        14         9        10        22     9      180.000000        0.175977         4
        14        13        12        23     9        0.000000        0.072148         1
        14        13        12        23     9      180.000000       14.263144         2
        14        13        12        23     9        0.000000       -0.717919         3
        14        13        12        23     9      180.000000        0.152671         4
        15         4         3        16     9        0.000000       -0.153279         1
        15         4         3        16     9      180.000000       12.598059         2
        15         4         3        16     9        0.000000        0.466981         3
        15         4         3        16     9      180.000000       -0.523506         4
        16        17        18        19     9        0.000000       -1.573022         1
        16        17        18        19     9      180.000000        4.124889         2
        16        17        18        19     9        0.000000        0.247417         3
        16        17        18        19     9      180.000000        0.125481         4
        16        17        18        20     9        0.000000       -1.573022         1
        16        17        18        20     9      180.000000        4.124889         2
        16        17        18        20     9        0.000000        0.247417         3
        16        17        18        20     9      180.000000        0.125481         4
        19        18        17        26     9        0.000000        0.050676         1
        19        18        17        26     9      180.000000       -0.380926         2
        19        18        17        26     9        0.000000        0.149856         3
        19        18        17        26     9      180.000000        0.058404         4
        19        18        17        27     9        0.000000        0.050676         1
        19        18        17        27     9      180.000000       -0.380925         2
        19        18        17        27     9        0.000000        0.149856         3
        19        18        17        27     9      180.000000        0.058403         4
        20        18        17        26     9        0.000000        0.050676         1
        20        18        17        26     9      180.000000       -0.380925         2
        20        18        17        26     9        0.000000        0.149856         3
        20        18        17        26     9      180.000000        0.058403         4
        20        18        17        27     9        0.000000        0.050676         1
        20        18        17        27     9      180.000000       -0.380925         2
        20        18        17        27     9        0.000000        0.149856         3
        20        18        17        27     9      180.000000        0.058403         4
        21        11        10        22     9        0.000000       -0.152804         1
        21        11        10        22     9      180.000000       14.726267         2
        21        11        10        22     9        0.000000       -0.019750         3
        21        11        10        22     9      180.000000        0.241869         4
        21        11        12        23     9        0.000000       -0.130289         1
        21        11        12        23     9      180.000000       14.591729         2
        21        11        12        23     9        0.000000       -0.055470         3
        21        11        12        23     9      180.000000        0.186611         4
        23        12        13        24     9        0.000000       -0.216420         1
        23        12        13        24     9      180.000000       11.601403         2
        23        12        13        24     9        0.000000       -0.546837         3
        23        12        13        24     9      180.000000        0.239678         4
        24        13        14        25     9        0.000000       -0.193929         1
        24        13        14        25     9      180.000000       11.909389         2
        24        13        14        25     9        0.000000       -0.643228         3
        24        13        14        25     9      180.000000        0.297258         4

[ dihedrals ] ; impropers
;       ai        aj        ak        al funct           phase               k        pn
         6         2         7         8     4      180.000000       27.893333         2
         6         7         8         2     4      180.000000       27.893333         2
         6         8         2         7     4      180.000000       27.893333         2
        18        17        19        20     4      180.000000       27.893333         2
        18        19        20        17     4      180.000000       27.893333         2
        18        20        17        19     4      180.000000       27.893333         2

[ pairs ]
;       ai        aj funct
         1         7     1
         1         8     1
         1        10     1
         1        14     1
         1        15     1
         1        16     1
         2         9     1
         2        15     1
         2        17     1
         3         7     1
         3         8     1
         3         9     1
         3        18     1
         3        26     1
         3        27     1
         4         6     1
         4        10     1
         4        14     1
         4        17     1
         5         6     1
         5        11     1
         5        13     1
         5        16     1
         5        22     1
         5        25     1
         6        16     1
         9        12     1
         9        15     1
         9        21     1
         9        24     1
        10        13     1
        10        23     1
        10        25     1
        10        28     1
        10        29     1
        11        14     1
        11        24     1
        12        22     1
        12        25     1
        12        28     1
        12        29     1
        13        21     1
        14        22     1
        14        23     1
        15        16     1
        16        19     1
        16        20     1
        19        26     1
        19        27     1
        20        26     1
        20        27     1
        21        22     1
        21        23     1
        23        24     1
        24        25     1
