; ITP file created by ByteFF-ML, 2026-02-21 08:24:15.143070

[ atomtypes ]
;name           bonded.type        at.num        mass        charge   ptype           sigma         epsilon
 s0bf                                  16      0.0000       0.00000       A     3.53064e-01     1.17901e+00
 c1bf                                   6      0.0000       0.00000       A     3.31755e-01     4.09816e-01
 c2bf                                   6      0.0000       0.00000       A     3.31349e-01     4.08441e-01
 c3bf                                   6      0.0000       0.00000       A     3.31198e-01     4.12218e-01
 c4bf                                   6      0.0000       0.00000       A     3.31630e-01     4.13561e-01
 c5bf                                   6      0.0000       0.00000       A     3.31455e-01     4.10610e-01
 o6bf                                   8      0.0000       0.00000       A     3.05104e-01     6.09960e-01
 o7bf                                   8      0.0000       0.00000       A     3.05104e-01     6.09960e-01
 c8bf                                   6      0.0000       0.00000       A     3.31407e-01     4.09944e-01
 c9bf                                   6      0.0000       0.00000       A     3.31733e-01     4.14065e-01
 c10bf                                  6      0.0000       0.00000       A     3.31483e-01     4.11278e-01
 c11bf                                  6      0.0000       0.00000       A     3.31454e-01     4.12646e-01
 c12bf                                  6      0.0000       0.00000       A     3.31487e-01     4.13404e-01
 c13bf                                  6      0.0000       0.00000       A     3.31465e-01     4.11762e-01
 br14bf                                35      0.0000       0.00000       A     3.61379e-01     1.65034e+00
 o15bf                                  8      0.0000       0.00000       A     3.15911e-01     3.03161e-01
 c16bf                                  6      0.0000       0.00000       A     3.39643e-01     4.49664e-01
 c17bf                                  6      0.0000       0.00000       A     3.31634e-01     4.10394e-01
 o18bf                                  8      0.0000       0.00000       A     3.04741e-01     6.09601e-01
 o19bf                                  8      0.0000       0.00000       A     3.04741e-01     6.09601e-01
 n20bf                                  7      0.0000       0.00000       A     3.28010e-01     6.44247e-01
 c21bf                                  6      0.0000       0.00000       A     3.39799e-01     4.51708e-01
 c22bf                                  6      0.0000       0.00000       A     3.39753e-01     4.49587e-01
 c23bf                                  6      0.0000       0.00000       A     3.39678e-01     4.51033e-01
 o24bf                                  8      0.0000       0.00000       A     3.15644e-01     3.03351e-01
 c25bf                                  6      0.0000       0.00000       A     3.39678e-01     4.51033e-01
 c26bf                                  6      0.0000       0.00000       A     3.39753e-01     4.49587e-01
 h27bf                                  1      0.0000       0.00000       A     2.62345e-01     6.78010e-02
 h28bf                                  1      0.0000       0.00000       A     2.62464e-01     6.74084e-02
 h29bf                                  1      0.0000       0.00000       A     2.62530e-01     6.75680e-02
 h30bf                                  1      0.0000       0.00000       A     2.62513e-01     6.75409e-02
 h31bf                                  1      0.0000       0.00000       A     2.41481e-01     8.75971e-02
 h32bf                                  1      0.0000       0.00000       A     2.41481e-01     8.75971e-02
 h33bf                                  1      0.0000       0.00000       A     1.10452e-01     4.15441e-02
 h34bf                                  1      0.0000       0.00000       A     2.42312e-01     8.60521e-02
 h35bf                                  1      0.0000       0.00000       A     2.59805e-01     8.76130e-02
 h36bf                                  1      0.0000       0.00000       A     2.59805e-01     8.76130e-02
 h37bf                                  1      0.0000       0.00000       A     2.42083e-01     8.71949e-02
 h38bf                                  1      0.0000       0.00000       A     2.42083e-01     8.71949e-02
 h39bf                                  1      0.0000       0.00000       A     2.42083e-01     8.71949e-02
 h40bf                                  1      0.0000       0.00000       A     2.42083e-01     8.71949e-02
 h41bf                                  1      0.0000       0.00000       A     2.59805e-01     8.76130e-02
 h42bf                                  1      0.0000       0.00000       A     2.59805e-01     8.76130e-02

[ moleculetype ]
;name             nrexcl
 23477                 3

[ atoms ]
;       nr            type      resi   res      atom      cgnr      charge          mass ; qtot
         1            s0bf         1   UNL        s0         1     0.19677       32.0670 ; qtot    0.197
         2            c1bf         1   UNL        c1         2    -0.26026       12.0110 ; qtot   -0.063
         3            c2bf         1   UNL        c2         3     0.11437       12.0110 ; qtot    0.051
         4            c3bf         1   UNL        c3         4    -0.05837       12.0110 ; qtot   -0.007
         5            c4bf         1   UNL        c4         5    -0.16790       12.0110 ; qtot   -0.175
         6            c5bf         1   UNL        c5         6     0.72713       12.0110 ; qtot    0.552
         7            o6bf         1   UNL        o6         7    -0.72308       15.9990 ; qtot   -0.171
         8            o7bf         1   UNL        o7         8    -0.72308       15.9990 ; qtot   -0.894
         9            c8bf         1   UNL        c8         9     0.01360       12.0110 ; qtot   -0.881
        10            c9bf         1   UNL        c9        10    -0.15550       12.0110 ; qtot   -1.036
        11           c10bf         1   UNL       c10        11     0.29978       12.0110 ; qtot   -0.737
        12           c11bf         1   UNL       c11        12    -0.17262       12.0110 ; qtot   -0.909
        13           c12bf         1   UNL       c12        13    -0.07788       12.0110 ; qtot   -0.987
        14           c13bf         1   UNL       c13        14    -0.11595       12.0110 ; qtot   -1.103
        15          br14bf         1   UNL      br14        15    -0.08621       79.9040 ; qtot   -1.189
        16           o15bf         1   UNL       o15        16    -0.35606       15.9990 ; qtot   -1.545
        17           c16bf         1   UNL       c16        17    -0.01490       12.0110 ; qtot   -1.560
        18           c17bf         1   UNL       c17        18     0.70991       12.0110 ; qtot   -0.850
        19           o18bf         1   UNL       o18        19    -0.73348       15.9990 ; qtot   -1.584
        20           o19bf         1   UNL       o19        20    -0.73348       15.9990 ; qtot   -2.317
        21           n20bf         1   UNL       n20        21    -0.93534       14.0070 ; qtot   -3.253
        22           c21bf         1   UNL       c21        22     0.20631       12.0110 ; qtot   -3.046
        23           c22bf         1   UNL       c22        23    -0.12359       12.0110 ; qtot   -3.170
        24           c23bf         1   UNL       c23        24     0.15422       12.0110 ; qtot   -3.016
        25           o24bf         1   UNL       o24        25    -0.46215       15.9990 ; qtot   -3.478
        26           c25bf         1   UNL       c25        26     0.15422       12.0110 ; qtot   -3.324
        27           c26bf         1   UNL       c26        27    -0.12359       12.0110 ; qtot   -3.447
        28           h27bf         1   UNL       h27        28     0.11944        1.0080 ; qtot   -3.328
        29           h28bf         1   UNL       h28        29     0.11684        1.0080 ; qtot   -3.211
        30           h29bf         1   UNL       h29        30     0.11522        1.0080 ; qtot   -3.096
        31           h30bf         1   UNL       h30        31     0.12297        1.0080 ; qtot   -2.973
        32           h31bf         1   UNL       h31        32     0.02487        1.0080 ; qtot   -2.948
        33           h32bf         1   UNL       h32        33     0.02487        1.0080 ; qtot   -2.923
        34           h33bf         1   UNL       h33        34     0.44951        1.0080 ; qtot   -2.473
        35           h34bf         1   UNL       h34        35     0.05766        1.0080 ; qtot   -2.416
        36           h35bf         1   UNL       h35        36     0.05686        1.0080 ; qtot   -2.359
        37           h36bf         1   UNL       h36        37     0.05686        1.0080 ; qtot   -2.302
        38           h37bf         1   UNL       h37        38     0.04708        1.0080 ; qtot   -2.255
        39           h38bf         1   UNL       h38        39     0.04708        1.0080 ; qtot   -2.208
        40           h39bf         1   UNL       h39        40     0.04708        1.0080 ; qtot   -2.161
        41           h40bf         1   UNL       h40        41     0.04708        1.0080 ; qtot   -2.114
        42           h41bf         1   UNL       h41        42     0.05686        1.0080 ; qtot   -2.057
        43           h42bf         1   UNL       h42        43     0.05685        1.0080 ; qtot   -2.000

[ bonds ]
;       ai        aj funct               r               k
         1         2     1        0.174464   145572.874683
         1         5     1        0.175012   149020.499365
         2         3     1        0.138277   335024.121436
         2         6     1        0.154034   112597.124561
         3         4     1        0.143994   223875.334033
         3        16     1        0.134833   300010.369531
         4         5     1        0.138169   338414.734521
         4        15     1        0.190996   130541.361816
         5         9     1        0.147084   228751.721680
         6         7     1        0.125984   484107.493164
         6         8     1        0.125984   484107.493164
         9        10     1        0.140377   291227.953320
         9        14     1        0.140541   288006.012842
        10        11     1        0.140742   280197.786279
        10        28     1        0.108446   320758.019580
        11        12     1        0.140989   276427.972656
        11        21     1        0.139561   278406.358057
        12        13     1        0.139570   317260.431543
        12        29     1        0.108555   319413.260938
        13        14     1        0.139561   315911.765723
        13        30     1        0.108655   318238.579443
        14        31     1        0.108491   321875.217041
        16        17     1        0.145852   151865.231201
        17        18     1        0.156538   116742.448608
        17        32     1        0.109566   293138.384473
        17        33     1        0.109566   293138.384473
        18        19     1        0.126057   487285.433203
        18        20     1        0.126057   487285.433203
        21        22     1        0.146535   194761.356665
        21        34     1        0.101296   410143.009814
        22        23     1        0.154150   170292.349658
        22        27     1        0.154150   170292.349658
        22        35     1        0.109547   296468.372461
        23        24     1        0.153561   178701.643164
        23        36     1        0.109457   298543.339209
        23        37     1        0.109457   298543.339209
        24        25     1        0.143005   196789.641577
        24        38     1        0.109640   291280.534229
        24        39     1        0.109640   291280.534229
        25        26     1        0.143005   196789.641577
        26        27     1        0.153561   178701.668701
        26        40     1        0.109640   291280.534229
        26        41     1        0.109640   291280.534229
        27        42     1        0.109457   298543.339209
        27        43     1        0.109457   298543.339209

[ angles ]
;       ai        aj        ak funct           theta             cth
         1         2         3     1      110.160385      167.360000
         1         2         6     1      115.033363      592.691984
         1         5         4     1      108.982101      167.360000
         1         5         9     1      120.225929      422.231428
         2         1         5     1       93.195396      186.526063
         2         3         4     1      112.155884      382.616764
         2         3        16     1      126.134293      420.691381
         2         6         7     1      114.627625      339.029323
         2         6         8     1      114.627625      339.029323
         3         2         6     1      134.051437      467.327122
         3         4         5     1      114.634010      370.337213
         3         4        15     1      121.312027      306.426064
         3        16        17     1      117.821022      473.127047
         4         3        16     1      120.298485      422.691671
         4         5         9     1      130.788895      405.060084
         5         4        15     1      123.746353      284.291870
         5         9        10     1      120.007790      401.373068
         5         9        14     1      120.687035      464.389365
         7         6         8     1      130.398407      705.552920
         9        10        11     1      121.282242      752.470464
         9        10        28     1      119.060143      432.006938
         9        14        13     1      119.572464      680.278779
         9        14        31     1      119.945923      442.999546
        10         9        14     1      119.370499      624.161364
        10        11        12     1      118.375778      643.555331
        10        11        21     1      120.511948      518.199726
        11        10        28     1      119.620193      426.272516
        11        12        13     1      120.154808      764.362840
        11        12        29     1      120.110031      429.854926
        11        21        22     1      122.688065      478.203505
        11        21        34     1      112.789871      496.709546
        12        11        21     1      121.202736      577.365569
        12        13        14     1      121.024757      692.684898
        12        13        30     1      119.224258      431.436279
        13        12        29     1      119.858887      427.872161
        13        14        31     1      120.310341      426.702306
        14        13        30     1      119.644348      436.855158
        16        17        18     1      113.930588      533.838045
        16        17        32     1      107.778183      447.857886
        16        17        33     1      107.778183      447.857886
        17        18        19     1      114.982224      326.587708
        17        18        20     1      114.982224      326.587708
        18        17        32     1      109.132095      476.479910
        18        17        33     1      109.132095      476.479910
        19        18        20     1      130.064850      720.626454
        21        22        23     1      111.733932      597.864462
        21        22        27     1      111.733932      597.864462
        21        22        35     1      107.345360      494.339032
        22        21        34     1      112.613625      473.670062
        22        23        24     1      110.302109      677.597127
        22        23        36     1      109.779564      497.722858
        22        23        37     1      109.779564      497.722858
        22        27        26     1      110.302109      677.597127
        22        27        42     1      109.779564      497.722858
        22        27        43     1      109.779564      497.722858
        23        22        27     1      109.364647      552.919597
        23        22        35     1      108.051064      479.342332
        23        24        25     1      112.022842      648.941362
        23        24        38     1      110.631142      486.925002
        23        24        39     1      110.631142      486.925002
        24        23        36     1      109.690224      503.617909
        24        23        37     1      109.690224      503.617909
        24        25        26     1      112.347824      593.219262
        25        24        38     1      107.737404      465.042190
        25        24        39     1      107.737404      465.042253
        25        26        27     1      112.022850      648.941362
        25        26        40     1      107.737404      465.042253
        25        26        41     1      107.737404      465.042253
        26        27        42     1      109.690231      503.617909
        26        27        43     1      109.690231      503.617909
        27        22        35     1      108.051071      479.342332
        27        26        40     1      110.631149      486.925002
        27        26        41     1      110.631149      486.925002
        32        17        33     1      108.416725      344.620386
        36        23        37     1      107.276749      356.718592
        38        24        39     1      107.873245      341.256574
        40        26        41     1      107.873245      341.256574
        42        27        43     1      107.276749      356.718592

[ dihedrals ] ; propers for gromacs 4.5 or higher, use funct 9
;       ai        aj        ak        al funct           phase               k        pn
         1         2         3         4     9        0.000000       -0.157449         1
         1         2         3         4     9      180.000000       23.193074         2
         1         2         3         4     9        0.000000       -4.968979         3
         1         2         3         4     9      180.000000       -0.609654         4
         1         2         3        16     9        0.000000        0.970784         1
         1         2         3        16     9      180.000000       21.885524         2
         1         2         3        16     9        0.000000        0.406670         3
         1         2         3        16     9      180.000000       -1.347848         4
         1         2         6         7     9        0.000000        1.117411         1
         1         2         6         7     9      180.000000        4.117929         2
         1         2         6         7     9        0.000000        0.067199         3
         1         2         6         7     9      180.000000        0.180393         4
         1         2         6         8     9        0.000000        1.117411         1
         1         2         6         8     9      180.000000        4.117929         2
         1         2         6         8     9        0.000000        0.067199         3
         1         2         6         8     9      180.000000        0.180393         4
         1         5         4         3     9        0.000000       -0.306829         1
         1         5         4         3     9      180.000000       24.522085         2
         1         5         4         3     9        0.000000       -5.964297         3
         1         5         4         3     9      180.000000       -0.599844         4
         1         5         4        15     9        0.000000        0.499553         1
         1         5         4        15     9      180.000000       17.380840         2
         1         5         4        15     9        0.000000        0.197540         3
         1         5         4        15     9      180.000000       -1.066303         4
         1         5         9        10     9        0.000000       -0.425147         1
         1         5         9        10     9      180.000000        3.268779         2
         1         5         9        10     9        0.000000       -0.033326         3
         1         5         9        10     9      180.000000        0.312058         4
         1         5         9        14     9        0.000000       -0.234776         1
         1         5         9        14     9      180.000000        3.130943         2
         1         5         9        14     9        0.000000        0.163278         3
         1         5         9        14     9      180.000000        0.213167         4
         2         1         5         4     9        0.000000       -0.388546         1
         2         1         5         4     9      180.000000       24.242164         2
         2         1         5         4     9        0.000000       -5.021316         3
         2         1         5         4     9      180.000000       -0.471890         4
         2         1         5         9     9        0.000000       -0.206097         1
         2         1         5         9     9      180.000000       15.224347         2
         2         1         5         9     9        0.000000        0.250585         3
         2         1         5         9     9      180.000000       -0.604674         4
         2         3         4         5     9        0.000000       -0.251748         1
         2         3         4         5     9      180.000000       14.214229         2
         2         3         4         5     9        0.000000       -2.698729         3
         2         3         4         5     9      180.000000       -0.310431         4
         2         3         4        15     9        0.000000        0.248323         1
         2         3         4        15     9      180.000000       11.562275         2
         2         3         4        15     9        0.000000        0.148422         3
         2         3         4        15     9      180.000000       -0.630060         4
         2         3        16        17     9        0.000000        0.701674         1
         2         3        16        17     9      180.000000        2.973538         2
         2         3        16        17     9        0.000000        0.307642         3
         2         3        16        17     9      180.000000       -0.218272         4
         3         2         1         5     9        0.000000       -0.083281         1
         3         2         1         5     9      180.000000       22.870917         2
         3         2         1         5     9        0.000000       -3.551991         3
         3         2         1         5     9      180.000000       -0.695859         4
         3         2         6         7     9        0.000000       -5.137617         1
         3         2         6         7     9      180.000000        2.933940         2
         3         2         6         7     9        0.000000        0.193554         3
         3         2         6         7     9      180.000000       -0.187922         4
         3         2         6         8     9        0.000000       -5.137617         1
         3         2         6         8     9      180.000000        2.933940         2
         3         2         6         8     9        0.000000        0.193554         3
         3         2         6         8     9      180.000000       -0.187922         4
         3         4         5         9     9        0.000000        0.188116         1
         3         4         5         9     9      180.000000       16.319500         2
         3         4         5         9     9        0.000000       -0.399596         3
         3         4         5         9     9      180.000000       -1.039713         4
         3        16        17        18     9        0.000000       -4.760844         1
         3        16        17        18     9      180.000000       -1.857167         2
         3        16        17        18     9        0.000000        0.352751         3
         3        16        17        18     9      180.000000        0.004621         4
         3        16        17        32     9        0.000000       -0.294822         1
         3        16        17        32     9      180.000000       -0.281191         2
         3        16        17        32     9        0.000000        0.570610         3
         3        16        17        32     9      180.000000        0.007077         4
         3        16        17        33     9        0.000000       -0.294822         1
         3        16        17        33     9      180.000000       -0.281191         2
         3        16        17        33     9        0.000000        0.570610         3
         3        16        17        33     9      180.000000        0.007077         4
         4         3         2         6     9        0.000000       -0.190053         1
         4         3         2         6     9      180.000000       11.755029         2
         4         3         2         6     9        0.000000       -0.719247         3
         4         3         2         6     9      180.000000       -0.502059         4
         4         3        16        17     9        0.000000        2.857399         1
         4         3        16        17     9      180.000000        2.426502         2
         4         3        16        17     9        0.000000        0.581872         3
         4         3        16        17     9      180.000000       -0.192707         4
         4         5         9        10     9        0.000000       -0.333835         1
         4         5         9        10     9      180.000000        2.272960         2
         4         5         9        10     9        0.000000       -0.067112         3
         4         5         9        10     9      180.000000        0.026737         4
         4         5         9        14     9        0.000000        0.327177         1
         4         5         9        14     9      180.000000        2.100762         2
         4         5         9        14     9        0.000000       -0.053534         3
         4         5         9        14     9      180.000000        0.035750         4
         5         1         2         6     9        0.000000        0.985272         1
         5         1         2         6     9      180.000000       10.250466         2
         5         1         2         6     9        0.000000       -0.288305         3
         5         1         2         6     9      180.000000        0.044596         4
         5         4         3        16     9        0.000000        0.518482         1
         5         4         3        16     9      180.000000       12.721722         2
         5         4         3        16     9        0.000000        0.352406         3
         5         4         3        16     9      180.000000       -0.184802         4
         5         9        10        11     9        0.000000        0.371647         1
         5         9        10        11     9      180.000000       15.800528         2
         5         9        10        11     9        0.000000        0.005688         3
         5         9        10        11     9      180.000000       -0.389350         4
         5         9        10        28     9        0.000000        0.048615         1
         5         9        10        28     9      180.000000       13.061744         2
         5         9        10        28     9        0.000000       -0.174551         3
         5         9        10        28     9      180.000000        0.168319         4
         5         9        14        13     9        0.000000        0.323235         1
         5         9        14        13     9      180.000000       16.538936         2
         5         9        14        13     9        0.000000       -0.195176         3
         5         9        14        13     9      180.000000       -0.362011         4
         5         9        14        31     9        0.000000        0.092667         1
         5         9        14        31     9      180.000000       12.926460         2
         5         9        14        31     9        0.000000       -0.242138         3
         5         9        14        31     9      180.000000        0.176107         4
         6         2         3        16     9        0.000000        0.216703         1
         6         2         3        16     9      180.000000       15.170354         2
         6         2         3        16     9        0.000000        0.500829         3
         6         2         3        16     9      180.000000       -0.921398         4
         9         5         4        15     9        0.000000        0.444437         1
         9         5         4        15     9      180.000000       13.006978         2
         9         5         4        15     9        0.000000        0.562767         3
         9         5         4        15     9      180.000000       -0.482422         4
         9        10        11        12     9        0.000000        0.059642         1
         9        10        11        12     9      180.000000       15.493287         2
         9        10        11        12     9        0.000000       -0.815862         3
         9        10        11        12     9      180.000000       -0.189726         4
         9        10        11        21     9        0.000000        0.265303         1
         9        10        11        21     9      180.000000       17.245745         2
         9        10        11        21     9        0.000000        0.250701         3
         9        10        11        21     9      180.000000       -0.437084         4
         9        14        13        12     9        0.000000        0.008362         1
         9        14        13        12     9      180.000000       19.169942         2
         9        14        13        12     9        0.000000       -1.601727         3
         9        14        13        12     9      180.000000       -0.448224         4
         9        14        13        30     9        0.000000       -0.030494         1
         9        14        13        30     9      180.000000       15.022380         2
         9        14        13        30     9        0.000000       -0.524511         3
         9        14        13        30     9      180.000000        0.059106         4
        10         9        14        13     9        0.000000       -0.118252         1
        10         9        14        13     9      180.000000       17.939734         2
        10         9        14        13     9        0.000000       -1.432276         3
        10         9        14        13     9      180.000000       -0.289354         4
        10         9        14        31     9        0.000000       -0.041016         1
        10         9        14        31     9      180.000000       13.590058         2
        10         9        14        31     9        0.000000       -0.500060         3
        10         9        14        31     9      180.000000        0.135491         4
        10        11        12        13     9        0.000000        0.084500         1
        10        11        12        13     9      180.000000       15.445870         2
        10        11        12        13     9        0.000000       -0.749013         3
        10        11        12        13     9      180.000000       -0.158771         4
        10        11        12        29     9        0.000000        0.100986         1
        10        11        12        29     9      180.000000       12.283458         2
        10        11        12        29     9        0.000000       -0.302961         3
        10        11        12        29     9      180.000000        0.152739         4
        10        11        21        22     9        0.000000        0.139324         1
        10        11        21        22     9      180.000000        4.311204         2
        10        11        21        22     9        0.000000        0.388153         3
        10        11        21        22     9      180.000000       -0.114928         4
        10        11        21        34     9        0.000000        0.432169         1
        10        11        21        34     9      180.000000        5.437486         2
        10        11        21        34     9        0.000000        0.014488         3
        10        11        21        34     9      180.000000       -0.440905         4
        11        10         9        14     9        0.000000       -0.200068         1
        11        10         9        14     9      180.000000       17.806994         2
        11        10         9        14     9        0.000000       -1.588766         3
        11        10         9        14     9      180.000000       -0.402748         4
        11        12        13        14     9        0.000000       -0.024912         1
        11        12        13        14     9      180.000000       18.028415         2
        11        12        13        14     9        0.000000       -1.593670         3
        11        12        13        14     9      180.000000       -0.416432         4
        11        12        13        30     9        0.000000        0.016942         1
        11        12        13        30     9      180.000000       14.276363         2
        11        12        13        30     9        0.000000       -0.581911         3
        11        12        13        30     9      180.000000        0.067359         4
        11        21        22        23     9        0.000000        1.252024         1
        11        21        22        23     9      180.000000        0.046071         2
        11        21        22        23     9        0.000000        1.135152         3
        11        21        22        23     9      180.000000        0.028276         4
        11        21        22        27     9        0.000000        1.252024         1
        11        21        22        27     9      180.000000        0.046071         2
        11        21        22        27     9        0.000000        1.135152         3
        11        21        22        27     9      180.000000        0.028276         4
        11        21        22        35     9        0.000000       -1.364370         1
        11        21        22        35     9      180.000000        0.028251         2
        11        21        22        35     9        0.000000        1.375618         3
        11        21        22        35     9      180.000000       -0.059450         4
        12        11        10        28     9        0.000000        0.094542         1
        12        11        10        28     9      180.000000       12.302434         2
        12        11        10        28     9        0.000000       -0.330069         3
        12        11        10        28     9      180.000000        0.189144         4
        12        11        21        22     9        0.000000        0.355489         1
        12        11        21        22     9      180.000000        4.242525         2
        12        11        21        22     9        0.000000        0.563190         3
        12        11        21        22     9      180.000000       -0.173909         4
        12        11        21        34     9        0.000000       -0.026819         1
        12        11        21        34     9      180.000000        5.446104         2
        12        11        21        34     9        0.000000        0.053815         3
        12        11        21        34     9      180.000000       -0.443595         4
        12        13        14        31     9        0.000000        0.059409         1
        12        13        14        31     9      180.000000       14.509544         2
        12        13        14        31     9        0.000000       -0.716558         3
        12        13        14        31     9      180.000000        0.159687         4
        13        12        11        21     9        0.000000        0.259009         1
        13        12        11        21     9      180.000000       16.939561         2
        13        12        11        21     9        0.000000        0.151223         3
        13        12        11        21     9      180.000000       -0.178827         4
        14         9        10        28     9        0.000000        0.077332         1
        14         9        10        28     9      180.000000       13.475288         2
        14         9        10        28     9        0.000000       -0.459271         3
        14         9        10        28     9      180.000000        0.143299         4
        14        13        12        29     9        0.000000        0.105666         1
        14        13        12        29     9      180.000000       14.164092         2
        14        13        12        29     9        0.000000       -0.635373         3
        14        13        12        29     9      180.000000        0.151673         4
        15         4         3        16     9        0.000000       -0.153280         1
        15         4         3        16     9      180.000000       12.598060         2
        15         4         3        16     9        0.000000        0.466981         3
        15         4         3        16     9      180.000000       -0.523506         4
        16        17        18        19     9        0.000000       -1.573021         1
        16        17        18        19     9      180.000000        4.124889         2
        16        17        18        19     9        0.000000        0.247417         3
        16        17        18        19     9      180.000000        0.125480         4
        16        17        18        20     9        0.000000       -1.573021         1
        16        17        18        20     9      180.000000        4.124889         2
        16        17        18        20     9        0.000000        0.247417         3
        16        17        18        20     9      180.000000        0.125480         4
        19        18        17        32     9        0.000000        0.050675         1
        19        18        17        32     9      180.000000       -0.380925         2
        19        18        17        32     9        0.000000        0.149856         3
        19        18        17        32     9      180.000000        0.058403         4
        19        18        17        33     9        0.000000        0.050675         1
        19        18        17        33     9      180.000000       -0.380925         2
        19        18        17        33     9        0.000000        0.149856         3
        19        18        17        33     9      180.000000        0.058403         4
        20        18        17        32     9        0.000000        0.050675         1
        20        18        17        32     9      180.000000       -0.380925         2
        20        18        17        32     9        0.000000        0.149856         3
        20        18        17        32     9      180.000000        0.058403         4
        20        18        17        33     9        0.000000        0.050675         1
        20        18        17        33     9      180.000000       -0.380925         2
        20        18        17        33     9        0.000000        0.149856         3
        20        18        17        33     9      180.000000        0.058403         4
        21        11        10        28     9        0.000000       -0.223470         1
        21        11        10        28     9      180.000000       14.181366         2
        21        11        10        28     9        0.000000       -0.026061         3
        21        11        10        28     9      180.000000        0.257188         4
        21        11        12        29     9        0.000000       -0.286056         1
        21        11        12        29     9      180.000000       13.828988         2
        21        11        12        29     9        0.000000       -0.093586         3
        21        11        12        29     9      180.000000        0.261646         4
        21        22        23        24     9        0.000000       -2.200728         1
        21        22        23        24     9      180.000000       -0.800888         2
        21        22        23        24     9        0.000000        0.103868         3
        21        22        23        24     9      180.000000        0.272825         4
        21        22        23        36     9        0.000000        0.070789         1
        21        22        23        36     9      180.000000        0.065255         2
        21        22        23        36     9        0.000000        0.291414         3
        21        22        23        36     9      180.000000       -0.020943         4
        21        22        23        37     9        0.000000        0.070789         1
        21        22        23        37     9      180.000000        0.065255         2
        21        22        23        37     9        0.000000        0.291414         3
        21        22        23        37     9      180.000000       -0.020943         4
        21        22        27        26     9        0.000000       -2.200728         1
        21        22        27        26     9      180.000000       -0.800888         2
        21        22        27        26     9        0.000000        0.103868         3
        21        22        27        26     9      180.000000        0.272825         4
        21        22        27        42     9        0.000000        0.070789         1
        21        22        27        42     9      180.000000        0.065255         2
        21        22        27        42     9        0.000000        0.291414         3
        21        22        27        42     9      180.000000       -0.020943         4
        21        22        27        43     9        0.000000        0.070789         1
        21        22        27        43     9      180.000000        0.065255         2
        21        22        27        43     9        0.000000        0.291414         3
        21        22        27        43     9      180.000000       -0.020943         4
        22        23        24        25     9        0.000000        0.342890         1
        22        23        24        25     9      180.000000       -1.583590         2
        22        23        24        25     9        0.000000        0.339362         3
        22        23        24        25     9      180.000000        0.090206         4
        22        23        24        38     9        0.000000       -0.011333         1
        22        23        24        38     9      180.000000        0.051725         2
        22        23        24        38     9        0.000000        0.279230         3
        22        23        24        38     9      180.000000        0.015025         4
        22        23        24        39     9        0.000000       -0.011333         1
        22        23        24        39     9      180.000000        0.051725         2
        22        23        24        39     9        0.000000        0.279230         3
        22        23        24        39     9      180.000000        0.015025         4
        22        27        26        25     9        0.000000        0.342890         1
        22        27        26        25     9      180.000000       -1.583590         2
        22        27        26        25     9        0.000000        0.339362         3
        22        27        26        25     9      180.000000        0.090206         4
        22        27        26        40     9        0.000000       -0.011333         1
        22        27        26        40     9      180.000000        0.051725         2
        22        27        26        40     9        0.000000        0.279230         3
        22        27        26        40     9      180.000000        0.015025         4
        22        27        26        41     9        0.000000       -0.011333         1
        22        27        26        41     9      180.000000        0.051725         2
        22        27        26        41     9        0.000000        0.279230         3
        22        27        26        41     9      180.000000        0.015025         4
        23        22        21        34     9        0.000000       -0.256057         1
        23        22        21        34     9      180.000000       -0.171431         2
        23        22        21        34     9        0.000000       -0.035064         3
        23        22        21        34     9      180.000000        0.077927         4
        23        22        27        26     9        0.000000        2.252492         1
        23        22        27        26     9      180.000000       -2.753907         2
        23        22        27        26     9        0.000000        0.101939         3
        23        22        27        26     9      180.000000        0.059582         4
        23        22        27        42     9        0.000000       -0.030175         1
        23        22        27        42     9      180.000000        0.038621         2
        23        22        27        42     9        0.000000        0.293615         3
        23        22        27        42     9      180.000000        0.012717         4
        23        22        27        43     9        0.000000       -0.030175         1
        23        22        27        43     9      180.000000        0.038621         2
        23        22        27        43     9        0.000000        0.293615         3
        23        22        27        43     9      180.000000        0.012717         4
        23        24        25        26     9        0.000000        0.687755         1
        23        24        25        26     9      180.000000       -0.961364         2
        23        24        25        26     9        0.000000        0.581373         3
        23        24        25        26     9      180.000000        0.057762         4
        24        23        22        27     9        0.000000        2.252492         1
        24        23        22        27     9      180.000000       -2.753907         2
        24        23        22        27     9        0.000000        0.101939         3
        24        23        22        27     9      180.000000        0.059582         4
        24        23        22        35     9        0.000000       -0.097978         1
        24        23        22        35     9      180.000000        0.005875         2
        24        23        22        35     9        0.000000        0.192743         3
        24        23        22        35     9      180.000000        0.047964         4
        24        25        26        27     9        0.000000        0.687755         1
        24        25        26        27     9      180.000000       -0.961364         2
        24        25        26        27     9        0.000000        0.581373         3
        24        25        26        27     9      180.000000        0.057762         4
        24        25        26        40     9        0.000000       -0.046697         1
        24        25        26        40     9      180.000000        0.044371         2
        24        25        26        40     9        0.000000        0.473257         3
        24        25        26        40     9      180.000000       -0.000534         4
        24        25        26        41     9        0.000000       -0.046697         1
        24        25        26        41     9      180.000000        0.044371         2
        24        25        26        41     9        0.000000        0.473257         3
        24        25        26        41     9      180.000000       -0.000534         4
        25        24        23        36     9        0.000000       -0.058978         1
        25        24        23        36     9      180.000000        0.059303         2
        25        24        23        36     9        0.000000        0.200165         3
        25        24        23        36     9      180.000000       -0.010485         4
        25        24        23        37     9        0.000000       -0.058978         1
        25        24        23        37     9      180.000000        0.059303         2
        25        24        23        37     9        0.000000        0.200165         3
        25        24        23        37     9      180.000000       -0.010485         4
        25        26        27        42     9        0.000000       -0.058978         1
        25        26        27        42     9      180.000000        0.059303         2
        25        26        27        42     9        0.000000        0.200165         3
        25        26        27        42     9      180.000000       -0.010485         4
        25        26        27        43     9        0.000000       -0.058978         1
        25        26        27        43     9      180.000000        0.059303         2
        25        26        27        43     9        0.000000        0.200165         3
        25        26        27        43     9      180.000000       -0.010485         4
        26        25        24        38     9        0.000000       -0.046697         1
        26        25        24        38     9      180.000000        0.044371         2
        26        25        24        38     9        0.000000        0.473257         3
        26        25        24        38     9      180.000000       -0.000534         4
        26        25        24        39     9        0.000000       -0.046697         1
        26        25        24        39     9      180.000000        0.044371         2
        26        25        24        39     9        0.000000        0.473257         3
        26        25        24        39     9      180.000000       -0.000534         4
        26        27        22        35     9        0.000000       -0.097978         1
        26        27        22        35     9      180.000000        0.005875         2
        26        27        22        35     9        0.000000        0.192743         3
        26        27        22        35     9      180.000000        0.047964         4
        27        22        21        34     9        0.000000       -0.256057         1
        27        22        21        34     9      180.000000       -0.171431         2
        27        22        21        34     9        0.000000       -0.035064         3
        27        22        21        34     9      180.000000        0.077927         4
        27        22        23        36     9        0.000000       -0.030175         1
        27        22        23        36     9      180.000000        0.038621         2
        27        22        23        36     9        0.000000        0.293615         3
        27        22        23        36     9      180.000000        0.012717         4
        27        22        23        37     9        0.000000       -0.030175         1
        27        22        23        37     9      180.000000        0.038621         2
        27        22        23        37     9        0.000000        0.293615         3
        27        22        23        37     9      180.000000        0.012717         4
        29        12        13        30     9        0.000000       -0.139149         1
        29        12        13        30     9      180.000000       11.679764         2
        29        12        13        30     9        0.000000       -0.530097         3
        29        12        13        30     9      180.000000        0.235346         4
        30        13        14        31     9        0.000000       -0.191662         1
        30        13        14        31     9      180.000000       11.920421         2
        30        13        14        31     9        0.000000       -0.632898         3
        30        13        14        31     9      180.000000        0.289657         4
        34        21        22        35     9        0.000000       -0.481217         1
        34        21        22        35     9      180.000000       -0.572329         2
        34        21        22        35     9        0.000000        0.018209         3
        34        21        22        35     9      180.000000       -0.004860         4
        35        22        23        36     9        0.000000       -0.015441         1
        35        22        23        36     9      180.000000        0.012408         2
        35        22        23        36     9        0.000000        0.306456         3
        35        22        23        36     9      180.000000        0.035647         4
        35        22        23        37     9        0.000000       -0.015441         1
        35        22        23        37     9      180.000000        0.012408         2
        35        22        23        37     9        0.000000        0.306456         3
        35        22        23        37     9      180.000000        0.035647         4
        35        22        27        42     9        0.000000       -0.015441         1
        35        22        27        42     9      180.000000        0.012408         2
        35        22        27        42     9        0.000000        0.306456         3
        35        22        27        42     9      180.000000        0.035647         4
        35        22        27        43     9        0.000000       -0.015441         1
        35        22        27        43     9      180.000000        0.012408         2
        35        22        27        43     9        0.000000        0.306456         3
        35        22        27        43     9      180.000000        0.035647         4
        36        23        24        38     9        0.000000       -0.011756         1
        36        23        24        38     9      180.000000       -0.006145         2
        36        23        24        38     9        0.000000        0.312554         3
        36        23        24        38     9      180.000000        0.008760         4
        36        23        24        39     9        0.000000       -0.011756         1
        36        23        24        39     9      180.000000       -0.006145         2
        36        23        24        39     9        0.000000        0.312554         3
        36        23        24        39     9      180.000000        0.008760         4
        37        23        24        38     9        0.000000       -0.011756         1
        37        23        24        38     9      180.000000       -0.006145         2
        37        23        24        38     9        0.000000        0.312554         3
        37        23        24        38     9      180.000000        0.008760         4
        37        23        24        39     9        0.000000       -0.011756         1
        37        23        24        39     9      180.000000       -0.006145         2
        37        23        24        39     9        0.000000        0.312554         3
        37        23        24        39     9      180.000000        0.008760         4
        40        26        27        42     9        0.000000       -0.011756         1
        40        26        27        42     9      180.000000       -0.006145         2
        40        26        27        42     9        0.000000        0.312554         3
        40        26        27        42     9      180.000000        0.008760         4
        40        26        27        43     9        0.000000       -0.011756         1
        40        26        27        43     9      180.000000       -0.006145         2
        40        26        27        43     9        0.000000        0.312554         3
        40        26        27        43     9      180.000000        0.008760         4
        41        26        27        42     9        0.000000       -0.011756         1
        41        26        27        42     9      180.000000       -0.006145         2
        41        26        27        42     9        0.000000        0.312554         3
        41        26        27        42     9      180.000000        0.008760         4
        41        26        27        43     9        0.000000       -0.011756         1
        41        26        27        43     9      180.000000       -0.006145         2
        41        26        27        43     9        0.000000        0.312554         3
        41        26        27        43     9      180.000000        0.008760         4

[ dihedrals ] ; impropers
;       ai        aj        ak        al funct           phase               k        pn
         6         2         7         8     4      180.000000       27.893333         2
         6         7         8         2     4      180.000000       27.893333         2
         6         8         2         7     4      180.000000       27.893333         2
        18        17        19        20     4      180.000000       27.893333         2
        18        19        20        17     4      180.000000       27.893333         2
        18        20        17        19     4      180.000000       27.893333         2

[ pairs ]
;       ai        aj funct
         1         7     1
         1         8     1
         1        10     1
         1        14     1
         1        15     1
         1        16     1
         2         9     1
         2        15     1
         2        17     1
         3         7     1
         3         8     1
         3         9     1
         3        18     1
         3        32     1
         3        33     1
         4         6     1
         4        10     1
         4        14     1
         4        17     1
         5         6     1
         5        11     1
         5        13     1
         5        16     1
         5        28     1
         5        31     1
         6        16     1
         9        12     1
         9        15     1
         9        21     1
         9        30     1
        10        13     1
        10        22     1
        10        29     1
        10        31     1
        10        34     1
        11        14     1
        11        23     1
        11        27     1
        11        30     1
        11        35     1
        12        22     1
        12        28     1
        12        31     1
        12        34     1
        13        21     1
        14        28     1
        14        29     1
        15        16     1
        16        19     1
        16        20     1
        19        32     1
        19        33     1
        20        32     1
        20        33     1
        21        24     1
        21        26     1
        21        28     1
        21        29     1
        21        36     1
        21        37     1
        21        42     1
        21        43     1
        22        25     1
        22        38     1
        22        39     1
        22        40     1
        22        41     1
        23        26     1
        23        34     1
        23        42     1
        23        43     1
        24        27     1
        24        35     1
        24        40     1
        24        41     1
        25        36     1
        25        37     1
        25        42     1
        25        43     1
        26        35     1
        26        38     1
        26        39     1
        27        34     1
        27        36     1
        27        37     1
        29        30     1
        30        31     1
        34        35     1
        35        36     1
        35        37     1
        35        42     1
        35        43     1
        36        38     1
        36        39     1
        37        38     1
        37        39     1
        40        42     1
        40        43     1
        41        42     1
        41        43     1
