; ITP file created by ByteFF-ML, 2026-02-21 08:24:23.342196

[ atomtypes ]
;name           bonded.type        at.num        mass        charge   ptype           sigma         epsilon
 s0bf                                  16      0.0000       0.00000       A     3.53064e-01     1.17901e+00
 c1bf                                   6      0.0000       0.00000       A     3.31755e-01     4.09816e-01
 c2bf                                   6      0.0000       0.00000       A     3.31349e-01     4.08441e-01
 c3bf                                   6      0.0000       0.00000       A     3.31198e-01     4.12218e-01
 c4bf                                   6      0.0000       0.00000       A     3.31630e-01     4.13561e-01
 c5bf                                   6      0.0000       0.00000       A     3.31455e-01     4.10610e-01
 o6bf                                   8      0.0000       0.00000       A     3.05104e-01     6.09960e-01
 o7bf                                   8      0.0000       0.00000       A     3.05104e-01     6.09960e-01
 c8bf                                   6      0.0000       0.00000       A     3.31402e-01     4.09911e-01
 c9bf                                   6      0.0000       0.00000       A     3.31750e-01     4.13203e-01
 c10bf                                  6      0.0000       0.00000       A     3.31487e-01     4.11733e-01
 c11bf                                  6      0.0000       0.00000       A     3.31491e-01     4.11810e-01
 c12bf                                  6      0.0000       0.00000       A     3.31502e-01     4.13345e-01
 c13bf                                  6      0.0000       0.00000       A     3.31465e-01     4.11762e-01
 br14bf                                35      0.0000       0.00000       A     3.61379e-01     1.65034e+00
 o15bf                                  8      0.0000       0.00000       A     3.15911e-01     3.03161e-01
 c16bf                                  6      0.0000       0.00000       A     3.39643e-01     4.49664e-01
 c17bf                                  6      0.0000       0.00000       A     3.31634e-01     4.10394e-01
 o18bf                                  8      0.0000       0.00000       A     3.04741e-01     6.09601e-01
 o19bf                                  8      0.0000       0.00000       A     3.04741e-01     6.09601e-01
 n20bf                                  7      0.0000       0.00000       A     3.27764e-01     6.44510e-01
 c21bf                                  6      0.0000       0.00000       A     3.39742e-01     4.51736e-01
 h22bf                                  1      0.0000       0.00000       A     2.62340e-01     6.80229e-02
 h23bf                                  1      0.0000       0.00000       A     2.62479e-01     6.72791e-02
 h24bf                                  1      0.0000       0.00000       A     2.62530e-01     6.75680e-02
 h25bf                                  1      0.0000       0.00000       A     2.62513e-01     6.75409e-02
 h26bf                                  1      0.0000       0.00000       A     2.41481e-01     8.75971e-02
 h27bf                                  1      0.0000       0.00000       A     2.41481e-01     8.75971e-02
 h28bf                                  1      0.0000       0.00000       A     1.10616e-01     3.98938e-02
 h29bf                                  1      0.0000       0.00000       A     2.42250e-01     8.77710e-02
 h30bf                                  1      0.0000       0.00000       A     2.42250e-01     8.77710e-02
 h31bf                                  1      0.0000       0.00000       A     2.60095e-01     8.60489e-02
 c32bf                                  6      0.0000       0.00000       A     3.39817e-01     4.51155e-01
 c33bf                                  6      0.0000       0.00000       A     3.39923e-01     4.51528e-01
 c34bf                                  6      0.0000       0.00000       A     3.39933e-01     4.50532e-01
 c35bf                                  6      0.0000       0.00000       A     3.39923e-01     4.51528e-01
 c36bf                                  6      0.0000       0.00000       A     3.39817e-01     4.51155e-01
 c37bf                                  6      0.0000       0.00000       A     3.39822e-01     4.51269e-01
 h38bf                                  1      0.0000       0.00000       A     2.60020e-01     8.71182e-02
 h39bf                                  1      0.0000       0.00000       A     2.60020e-01     8.71182e-02
 h40bf                                  1      0.0000       0.00000       A     2.59920e-01     8.70768e-02
 h41bf                                  1      0.0000       0.00000       A     2.59920e-01     8.70768e-02
 h42bf                                  1      0.0000       0.00000       A     2.59920e-01     8.70768e-02
 h43bf                                  1      0.0000       0.00000       A     2.59920e-01     8.70768e-02
 h44bf                                  1      0.0000       0.00000       A     2.60020e-01     8.71182e-02
 h45bf                                  1      0.0000       0.00000       A     2.60020e-01     8.71182e-02
 h46bf                                  1      0.0000       0.00000       A     2.59998e-01     8.72507e-02
 h47bf                                  1      0.0000       0.00000       A     2.59998e-01     8.72507e-02

[ moleculetype ]
;name             nrexcl
 23474                 3

[ atoms ]
;       nr            type      resi   res      atom      cgnr      charge          mass ; qtot
         1            s0bf         1   UNL        s0         1     0.19677       32.0670 ; qtot    0.197
         2            c1bf         1   UNL        c1         2    -0.26026       12.0110 ; qtot   -0.063
         3            c2bf         1   UNL        c2         3     0.11437       12.0110 ; qtot    0.051
         4            c3bf         1   UNL        c3         4    -0.05837       12.0110 ; qtot   -0.007
         5            c4bf         1   UNL        c4         5    -0.16762       12.0110 ; qtot   -0.175
         6            c5bf         1   UNL        c5         6     0.72713       12.0110 ; qtot    0.552
         7            o6bf         1   UNL        o6         7    -0.72308       15.9990 ; qtot   -0.171
         8            o7bf         1   UNL        o7         8    -0.72308       15.9990 ; qtot   -0.894
         9            c8bf         1   UNL        c8         9     0.01570       12.0110 ; qtot   -0.878
        10            c9bf         1   UNL        c9        10    -0.15853       12.0110 ; qtot   -1.037
        11           c10bf         1   UNL       c10        11     0.29532       12.0110 ; qtot   -0.742
        12           c11bf         1   UNL       c11        12    -0.17507       12.0110 ; qtot   -0.917
        13           c12bf         1   UNL       c12        13    -0.07512       12.0110 ; qtot   -0.992
        14           c13bf         1   UNL       c13        14    -0.11953       12.0110 ; qtot   -1.111
        15          br14bf         1   UNL      br14        15    -0.08621       79.9040 ; qtot   -1.198
        16           o15bf         1   UNL       o15        16    -0.35606       15.9990 ; qtot   -1.554
        17           c16bf         1   UNL       c16        17    -0.01490       12.0110 ; qtot   -1.569
        18           c17bf         1   UNL       c17        18     0.70991       12.0110 ; qtot   -0.859
        19           o18bf         1   UNL       o18        19    -0.73348       15.9990 ; qtot   -1.592
        20           o19bf         1   UNL       o19        20    -0.73348       15.9990 ; qtot   -2.326
        21           n20bf         1   UNL       n20        21    -0.92924       14.0070 ; qtot   -3.255
        22           c21bf         1   UNL       c21        22     0.19637       12.0110 ; qtot   -3.058
        23           h22bf         1   UNL       h22        23     0.11816        1.0080 ; qtot   -2.940
        24           h23bf         1   UNL       h23        24     0.11610        1.0080 ; qtot   -2.824
        25           h24bf         1   UNL       h24        25     0.11469        1.0080 ; qtot   -2.710
        26           h25bf         1   UNL       h25        26     0.12297        1.0080 ; qtot   -2.587
        27           h26bf         1   UNL       h26        27     0.02487        1.0080 ; qtot   -2.562
        28           h27bf         1   UNL       h27        28     0.02487        1.0080 ; qtot   -2.537
        29           h28bf         1   UNL       h28        29     0.45153        1.0080 ; qtot   -2.085
        30           h29bf         1   UNL       h29        30     0.04409        1.0080 ; qtot   -2.041
        31           h30bf         1   UNL       h30        31     0.04409        1.0080 ; qtot   -1.997
        32           h31bf         1   UNL       h31        32     0.05186        1.0080 ; qtot   -1.945
        33           c32bf         1   UNL       c32        33    -0.07424       12.0110 ; qtot   -2.019
        34           c33bf         1   UNL       c33        34    -0.07217       12.0110 ; qtot   -2.092
        35           c34bf         1   UNL       c34        35    -0.07739       12.0110 ; qtot   -2.169
        36           c35bf         1   UNL       c35        36    -0.07217       12.0110 ; qtot   -2.241
        37           c36bf         1   UNL       c36        37    -0.07424       12.0110 ; qtot   -2.315
        38           c37bf         1   UNL       c37        38    -0.07619       12.0110 ; qtot   -2.392
        39           h38bf         1   UNL       h38        39     0.03847        1.0080 ; qtot   -2.353
        40           h39bf         1   UNL       h39        40     0.03847        1.0080 ; qtot   -2.315
        41           h40bf         1   UNL       h40        41     0.04059        1.0080 ; qtot   -2.274
        42           h41bf         1   UNL       h41        42     0.04059        1.0080 ; qtot   -2.234
        43           h42bf         1   UNL       h42        43     0.04059        1.0080 ; qtot   -2.193
        44           h43bf         1   UNL       h43        44     0.04059        1.0080 ; qtot   -2.152
        45           h44bf         1   UNL       h44        45     0.03847        1.0080 ; qtot   -2.114
        46           h45bf         1   UNL       h45        46     0.03847        1.0080 ; qtot   -2.075
        47           h46bf         1   UNL       h46        47     0.03771        1.0080 ; qtot   -2.038
        48           h47bf         1   UNL       h47        48     0.03768        1.0080 ; qtot   -2.000

[ bonds ]
;       ai        aj funct               r               k
         1         2     1        0.174464   145572.874683
         1         5     1        0.175012   149020.499365
         2         3     1        0.138277   335024.121436
         2         6     1        0.154034   112597.124561
         3         4     1        0.143994   223875.334033
         3        16     1        0.134833   300010.369531
         4         5     1        0.138169   338414.734521
         4        15     1        0.190996   130541.361816
         5         9     1        0.147093   228535.907568
         6         7     1        0.125984   484107.493164
         6         8     1        0.125984   484107.493164
         9        10     1        0.140360   291952.594336
         9        14     1        0.140552   287864.358496
        10        11     1        0.140776   280806.412207
        10        23     1        0.108446   320709.218164
        11        12     1        0.141027   276627.621777
        11        21     1        0.139604   278069.472510
        12        13     1        0.139544   318370.708447
        12        24     1        0.108552   319358.739209
        13        14     1        0.139596   315210.286865
        13        25     1        0.108664   317947.788379
        14        26     1        0.108491   321875.217041
        16        17     1        0.145852   151865.231201
        17        18     1        0.156538   116742.448608
        17        27     1        0.109566   293138.384473
        17        28     1        0.109566   293138.384473
        18        19     1        0.126057   487285.433203
        18        20     1        0.126057   487285.433203
        21        22     1        0.146020   208572.131860
        21        29     1        0.101273   411962.554395
        22        30     1        0.109718   287738.766992
        22        31     1        0.109718   287738.766992
        22        35     1        0.153674   173936.597314
        32        35     1        0.109778   294064.794189
        33        34     1        0.153884   180879.818140
        33        38     1        0.154007   181264.930518
        33        39     1        0.109611   292921.523340
        33        40     1        0.109611   292921.523340
        34        35     1        0.154314   170741.956006
        34        41     1        0.109610   292771.441748
        34        42     1        0.109610   292771.441748
        35        36     1        0.154314   170741.956006
        36        37     1        0.153884   180879.830908
        36        43     1        0.109610   292771.441748
        36        44     1        0.109610   292771.441748
        37        38     1        0.154007   181264.930518
        37        45     1        0.109611   292921.523340
        37        46     1        0.109611   292921.523340
        38        47     1        0.109630   292724.581152
        38        48     1        0.109630   292724.581152

[ angles ]
;       ai        aj        ak funct           theta             cth
         1         2         3     1      110.160385      167.360000
         1         2         6     1      115.033363      592.691984
         1         5         4     1      108.982101      167.360000
         1         5         9     1      120.229660      422.331023
         2         1         5     1       93.195396      186.526063
         2         3         4     1      112.155884      382.616764
         2         3        16     1      126.134293      420.691381
         2         6         7     1      114.627625      339.029323
         2         6         8     1      114.627625      339.029323
         3         2         6     1      134.051437      467.327122
         3         4         5     1      114.634010      370.337213
         3         4        15     1      121.312027      306.426064
         3        16        17     1      117.821022      473.127047
         4         3        16     1      120.298485      422.691671
         4         5         9     1      130.790405      405.315902
         5         4        15     1      123.746353      284.291870
         5         9        10     1      119.996925      401.347340
         5         9        14     1      120.656311      465.974518
         7         6         8     1      130.398407      705.552920
         9        10        11     1      121.234779      755.913696
         9        10        23     1      119.075172      432.669307
         9        14        13     1      119.529007      676.945420
         9        14        26     1      119.963768      443.762787
        10         9        14     1      119.425621      616.587377
        10        11        12     1      118.443985      637.846701
        10        11        21     1      120.457520      533.106981
        11        10        23     1      119.572021      426.747091
        11        12        13     1      120.140297      768.638263
        11        12        24     1      120.098831      431.314627
        11        21        22     1      121.541908      517.359268
        11        21        29     1      113.024979      494.766331
        12        11        21     1      121.000732      593.038587
        12        13        14     1      121.078285      688.844436
        12        13        25     1      119.181778      430.282928
        13        12        24     1      119.812820      429.405281
        13        14        26     1      120.315689      428.479178
        14        13        25     1      119.607445      437.399003
        16        17        18     1      113.930588      533.838045
        16        17        27     1      107.778183      447.857886
        16        17        28     1      107.778183      447.857886
        17        18        19     1      114.982224      326.587708
        17        18        20     1      114.982224      326.587708
        18        17        27     1      109.132095      476.479910
        18        17        28     1      109.132095      476.479910
        19        18        20     1      130.064850      720.626454
        21        22        30     1      109.468384      459.540954
        21        22        31     1      109.468384      459.540954
        21        22        35     1      112.790367      560.201312
        22        21        29     1      113.027100      470.943432
        22        35        32     1      106.997459      529.021235
        22        35        34     1      111.652084      616.390103
        22        35        36     1      111.652084      616.390103
        27        17        28     1      108.416725      344.620386
        30        22        31     1      106.566750      357.411573
        30        22        35     1      109.399757      500.037031
        31        22        35     1      109.399757      500.037031
        32        35        34     1      107.935898      494.385765
        32        35        36     1      107.935898      494.385765
        33        34        35     1      111.773499      620.994891
        33        34        41     1      109.744957      507.793162
        33        34        42     1      109.744957      507.793162
        33        38        37     1      111.095276      586.069893
        33        38        47     1      109.776634      507.899492
        33        38        48     1      109.776634      507.899492
        34        33        38     1      111.246933      628.092547
        34        33        39     1      109.655724      513.225927
        34        33        40     1      109.655724      513.225927
        34        35        36     1      110.361801      568.709766
        35        34        41     1      109.517715      488.010425
        35        34        42     1      109.517715      488.010425
        35        36        37     1      111.773514      620.994954
        35        36        43     1      109.517715      488.010425
        35        36        44     1      109.517715      488.010425
        36        37        38     1      111.246933      628.092547
        36        37        45     1      109.655724      513.225927
        36        37        46     1      109.655724      513.225927
        37        36        43     1      109.744957      507.793162
        37        36        44     1      109.744957      507.793162
        37        38        47     1      109.776634      507.899492
        37        38        48     1      109.776634      507.899492
        38        33        39     1      109.842735      500.010568
        38        33        40     1      109.842735      500.010568
        38        37        45     1      109.842735      500.010568
        38        37        46     1      109.842735      500.010568
        39        33        40     1      106.312988      364.435842
        41        34        42     1      106.310654      362.864895
        43        36        44     1      106.310654      362.864895
        45        37        46     1      106.312988      364.435810
        47        38        48     1      106.405663      365.992138

[ dihedrals ] ; propers for gromacs 4.5 or higher, use funct 9
;       ai        aj        ak        al funct           phase               k        pn
         1         2         3         4     9        0.000000       -0.157449         1
         1         2         3         4     9      180.000000       23.193074         2
         1         2         3         4     9        0.000000       -4.968979         3
         1         2         3         4     9      180.000000       -0.609654         4
         1         2         3        16     9        0.000000        0.970784         1
         1         2         3        16     9      180.000000       21.885524         2
         1         2         3        16     9        0.000000        0.406670         3
         1         2         3        16     9      180.000000       -1.347848         4
         1         2         6         7     9        0.000000        1.117411         1
         1         2         6         7     9      180.000000        4.117929         2
         1         2         6         7     9        0.000000        0.067199         3
         1         2         6         7     9      180.000000        0.180393         4
         1         2         6         8     9        0.000000        1.117411         1
         1         2         6         8     9      180.000000        4.117929         2
         1         2         6         8     9        0.000000        0.067199         3
         1         2         6         8     9      180.000000        0.180393         4
         1         5         4         3     9        0.000000       -0.306829         1
         1         5         4         3     9      180.000000       24.522085         2
         1         5         4         3     9        0.000000       -5.964297         3
         1         5         4         3     9      180.000000       -0.599844         4
         1         5         4        15     9        0.000000        0.499553         1
         1         5         4        15     9      180.000000       17.380840         2
         1         5         4        15     9        0.000000        0.197540         3
         1         5         4        15     9      180.000000       -1.066303         4
         1         5         9        10     9        0.000000       -0.430363         1
         1         5         9        10     9      180.000000        3.266891         2
         1         5         9        10     9        0.000000       -0.041625         3
         1         5         9        10     9      180.000000        0.305766         4
         1         5         9        14     9        0.000000       -0.241015         1
         1         5         9        14     9      180.000000        3.130459         2
         1         5         9        14     9        0.000000        0.160234         3
         1         5         9        14     9      180.000000        0.213160         4
         2         1         5         4     9        0.000000       -0.388546         1
         2         1         5         4     9      180.000000       24.242164         2
         2         1         5         4     9        0.000000       -5.021316         3
         2         1         5         4     9      180.000000       -0.471890         4
         2         1         5         9     9        0.000000       -0.228997         1
         2         1         5         9     9      180.000000       15.260397         2
         2         1         5         9     9        0.000000        0.261989         3
         2         1         5         9     9      180.000000       -0.613219         4
         2         3         4         5     9        0.000000       -0.251748         1
         2         3         4         5     9      180.000000       14.214229         2
         2         3         4         5     9        0.000000       -2.698729         3
         2         3         4         5     9      180.000000       -0.310431         4
         2         3         4        15     9        0.000000        0.248323         1
         2         3         4        15     9      180.000000       11.562275         2
         2         3         4        15     9        0.000000        0.148422         3
         2         3         4        15     9      180.000000       -0.630060         4
         2         3        16        17     9        0.000000        0.701674         1
         2         3        16        17     9      180.000000        2.973538         2
         2         3        16        17     9        0.000000        0.307642         3
         2         3        16        17     9      180.000000       -0.218272         4
         3         2         1         5     9        0.000000       -0.083281         1
         3         2         1         5     9      180.000000       22.870917         2
         3         2         1         5     9        0.000000       -3.551991         3
         3         2         1         5     9      180.000000       -0.695859         4
         3         2         6         7     9        0.000000       -5.137617         1
         3         2         6         7     9      180.000000        2.933940         2
         3         2         6         7     9        0.000000        0.193554         3
         3         2         6         7     9      180.000000       -0.187922         4
         3         2         6         8     9        0.000000       -5.137617         1
         3         2         6         8     9      180.000000        2.933940         2
         3         2         6         8     9        0.000000        0.193554         3
         3         2         6         8     9      180.000000       -0.187922         4
         3         4         5         9     9        0.000000        0.184932         1
         3         4         5         9     9      180.000000       16.360751         2
         3         4         5         9     9        0.000000       -0.408970         3
         3         4         5         9     9      180.000000       -1.038577         4
         3        16        17        18     9        0.000000       -4.760844         1
         3        16        17        18     9      180.000000       -1.857167         2
         3        16        17        18     9        0.000000        0.352751         3
         3        16        17        18     9      180.000000        0.004621         4
         3        16        17        27     9        0.000000       -0.294822         1
         3        16        17        27     9      180.000000       -0.281191         2
         3        16        17        27     9        0.000000        0.570610         3
         3        16        17        27     9      180.000000        0.007077         4
         3        16        17        28     9        0.000000       -0.294822         1
         3        16        17        28     9      180.000000       -0.281191         2
         3        16        17        28     9        0.000000        0.570610         3
         3        16        17        28     9      180.000000        0.007077         4
         4         3         2         6     9        0.000000       -0.190053         1
         4         3         2         6     9      180.000000       11.755029         2
         4         3         2         6     9        0.000000       -0.719247         3
         4         3         2         6     9      180.000000       -0.502059         4
         4         3        16        17     9        0.000000        2.857399         1
         4         3        16        17     9      180.000000        2.426502         2
         4         3        16        17     9        0.000000        0.581872         3
         4         3        16        17     9      180.000000       -0.192707         4
         4         5         9        10     9        0.000000       -0.332948         1
         4         5         9        10     9      180.000000        2.278192         2
         4         5         9        10     9        0.000000       -0.081057         3
         4         5         9        10     9      180.000000        0.029146         4
         4         5         9        14     9        0.000000        0.340147         1
         4         5         9        14     9      180.000000        2.094118         2
         4         5         9        14     9        0.000000       -0.054086         3
         4         5         9        14     9      180.000000        0.037100         4
         5         1         2         6     9        0.000000        0.985272         1
         5         1         2         6     9      180.000000       10.250466         2
         5         1         2         6     9        0.000000       -0.288305         3
         5         1         2         6     9      180.000000        0.044596         4
         5         4         3        16     9        0.000000        0.518482         1
         5         4         3        16     9      180.000000       12.721722         2
         5         4         3        16     9        0.000000        0.352406         3
         5         4         3        16     9      180.000000       -0.184802         4
         5         9        10        11     9        0.000000        0.355310         1
         5         9        10        11     9      180.000000       15.823741         2
         5         9        10        11     9        0.000000        0.036297         3
         5         9        10        11     9      180.000000       -0.419442         4
         5         9        10        23     9        0.000000        0.050272         1
         5         9        10        23     9      180.000000       13.013764         2
         5         9        10        23     9        0.000000       -0.151940         3
         5         9        10        23     9      180.000000        0.165897         4
         5         9        14        13     9        0.000000        0.323380         1
         5         9        14        13     9      180.000000       16.546331         2
         5         9        14        13     9        0.000000       -0.188607         3
         5         9        14        13     9      180.000000       -0.363240         4
         5         9        14        26     9        0.000000        0.105406         1
         5         9        14        26     9      180.000000       12.927510         2
         5         9        14        26     9        0.000000       -0.234453         3
         5         9        14        26     9      180.000000        0.179787         4
         6         2         3        16     9        0.000000        0.216703         1
         6         2         3        16     9      180.000000       15.170354         2
         6         2         3        16     9        0.000000        0.500829         3
         6         2         3        16     9      180.000000       -0.921398         4
         9         5         4        15     9        0.000000        0.443053         1
         9         5         4        15     9      180.000000       13.000813         2
         9         5         4        15     9        0.000000        0.559607         3
         9         5         4        15     9      180.000000       -0.488031         4
         9        10        11        12     9        0.000000        0.018410         1
         9        10        11        12     9      180.000000       15.236343         2
         9        10        11        12     9        0.000000       -0.813339         3
         9        10        11        12     9      180.000000       -0.167653         4
         9        10        11        21     9        0.000000        0.252818         1
         9        10        11        21     9      180.000000       16.941669         2
         9        10        11        21     9        0.000000        0.289934         3
         9        10        11        21     9      180.000000       -0.487144         4
         9        14        13        12     9        0.000000        0.023152         1
         9        14        13        12     9      180.000000       19.163133         2
         9        14        13        12     9        0.000000       -1.577722         3
         9        14        13        12     9      180.000000       -0.451015         4
         9        14        13        25     9        0.000000       -0.025859         1
         9        14        13        25     9      180.000000       14.972083         2
         9        14        13        25     9        0.000000       -0.527875         3
         9        14        13        25     9      180.000000        0.059429         4
        10         9        14        13     9        0.000000       -0.115581         1
        10         9        14        13     9      180.000000       17.801073         2
        10         9        14        13     9        0.000000       -1.424087         3
        10         9        14        13     9      180.000000       -0.270044         4
        10         9        14        26     9        0.000000       -0.031060         1
        10         9        14        26     9      180.000000       13.582411         2
        10         9        14        26     9        0.000000       -0.488641         3
        10         9        14        26     9      180.000000        0.141002         4
        10        11        12        13     9        0.000000        0.111032         1
        10        11        12        13     9      180.000000       15.144797         2
        10        11        12        13     9        0.000000       -0.712991         3
        10        11        12        13     9      180.000000       -0.148955         4
        10        11        12        24     9        0.000000        0.101483         1
        10        11        12        24     9      180.000000       12.418858         2
        10        11        12        24     9        0.000000       -0.278841         3
        10        11        12        24     9      180.000000        0.117953         4
        10        11        21        22     9        0.000000       -0.433404         1
        10        11        21        22     9      180.000000        5.090102         2
        10        11        21        22     9        0.000000        0.067944         3
        10        11        21        22     9      180.000000       -0.128062         4
        10        11        21        29     9        0.000000        0.264948         1
        10        11        21        29     9      180.000000        5.409279         2
        10        11        21        29     9        0.000000        0.018652         3
        10        11        21        29     9      180.000000       -0.347566         4
        11        10         9        14     9        0.000000       -0.173584         1
        11        10         9        14     9      180.000000       17.758073         2
        11        10         9        14     9        0.000000       -1.636253         3
        11        10         9        14     9      180.000000       -0.407816         4
        11        12        13        14     9        0.000000       -0.018524         1
        11        12        13        14     9      180.000000       18.039430         2
        11        12        13        14     9        0.000000       -1.610176         3
        11        12        13        14     9      180.000000       -0.430986         4
        11        12        13        25     9        0.000000        0.015013         1
        11        12        13        25     9      180.000000       14.361052         2
        11        12        13        25     9        0.000000       -0.600357         3
        11        12        13        25     9      180.000000        0.047300         4
        11        21        22        30     9        0.000000       -0.281422         1
        11        21        22        30     9      180.000000        0.215871         2
        11        21        22        30     9        0.000000        1.111708         3
        11        21        22        30     9      180.000000        0.011377         4
        11        21        22        31     9        0.000000       -0.281422         1
        11        21        22        31     9      180.000000        0.215871         2
        11        21        22        31     9        0.000000        1.111708         3
        11        21        22        31     9      180.000000        0.011377         4
        11        21        22        35     9        0.000000        1.485411         1
        11        21        22        35     9      180.000000       -0.365370         2
        11        21        22        35     9        0.000000        0.790928         3
        11        21        22        35     9      180.000000        0.020287         4
        12        11        10        23     9        0.000000        0.128789         1
        12        11        10        23     9      180.000000       12.375020         2
        12        11        10        23     9        0.000000       -0.327314         3
        12        11        10        23     9      180.000000        0.173360         4
        12        11        21        22     9        0.000000       -0.254815         1
        12        11        21        22     9      180.000000        5.032701         2
        12        11        21        22     9        0.000000        0.194530         3
        12        11        21        22     9      180.000000       -0.233865         4
        12        11        21        29     9        0.000000       -0.160600         1
        12        11        21        29     9      180.000000        5.398463         2
        12        11        21        29     9        0.000000        0.054814         3
        12        11        21        29     9      180.000000       -0.365037         4
        12        13        14        26     9        0.000000        0.061580         1
        12        13        14        26     9      180.000000       14.520392         2
        12        13        14        26     9        0.000000       -0.693925         3
        12        13        14        26     9      180.000000        0.150254         4
        13        12        11        21     9        0.000000        0.313005         1
        13        12        11        21     9      180.000000       16.749002         2
        13        12        11        21     9        0.000000        0.231730         3
        13        12        11        21     9      180.000000       -0.198887         4
        14         9        10        23     9        0.000000        0.092726         1
        14         9        10        23     9      180.000000       13.504004         2
        14         9        10        23     9        0.000000       -0.453847         3
        14         9        10        23     9      180.000000        0.156579         4
        14        13        12        24     9        0.000000        0.106107         1
        14        13        12        24     9      180.000000       14.145907         2
        14        13        12        24     9        0.000000       -0.628479         3
        14        13        12        24     9      180.000000        0.157895         4
        15         4         3        16     9        0.000000       -0.153280         1
        15         4         3        16     9      180.000000       12.598060         2
        15         4         3        16     9        0.000000        0.466981         3
        15         4         3        16     9      180.000000       -0.523506         4
        16        17        18        19     9        0.000000       -1.573021         1
        16        17        18        19     9      180.000000        4.124889         2
        16        17        18        19     9        0.000000        0.247417         3
        16        17        18        19     9      180.000000        0.125480         4
        16        17        18        20     9        0.000000       -1.573021         1
        16        17        18        20     9      180.000000        4.124889         2
        16        17        18        20     9        0.000000        0.247417         3
        16        17        18        20     9      180.000000        0.125480         4
        19        18        17        27     9        0.000000        0.050675         1
        19        18        17        27     9      180.000000       -0.380925         2
        19        18        17        27     9        0.000000        0.149856         3
        19        18        17        27     9      180.000000        0.058403         4
        19        18        17        28     9        0.000000        0.050675         1
        19        18        17        28     9      180.000000       -0.380925         2
        19        18        17        28     9        0.000000        0.149856         3
        19        18        17        28     9      180.000000        0.058403         4
        20        18        17        27     9        0.000000        0.050675         1
        20        18        17        27     9      180.000000       -0.380925         2
        20        18        17        27     9        0.000000        0.149856         3
        20        18        17        27     9      180.000000        0.058403         4
        20        18        17        28     9        0.000000        0.050675         1
        20        18        17        28     9      180.000000       -0.380925         2
        20        18        17        28     9        0.000000        0.149856         3
        20        18        17        28     9      180.000000        0.058403         4
        21        11        10        23     9        0.000000       -0.102904         1
        21        11        10        23     9      180.000000       14.057362         2
        21        11        10        23     9        0.000000        0.003807         3
        21        11        10        23     9      180.000000        0.278434         4
        21        11        12        24     9        0.000000       -0.175452         1
        21        11        12        24     9      180.000000       13.891844         2
        21        11        12        24     9        0.000000       -0.067024         3
        21        11        12        24     9      180.000000        0.265894         4
        21        22        35        32     9        0.000000       -0.065777         1
        21        22        35        32     9      180.000000       -0.064453         2
        21        22        35        32     9        0.000000        0.608503         3
        21        22        35        32     9      180.000000        0.096710         4
        21        22        35        34     9        0.000000        0.184320         1
        21        22        35        34     9      180.000000        0.487625         2
        21        22        35        34     9        0.000000        0.643842         3
        21        22        35        34     9      180.000000       -0.045795         4
        21        22        35        36     9        0.000000        0.184320         1
        21        22        35        36     9      180.000000        0.487625         2
        21        22        35        36     9        0.000000        0.643842         3
        21        22        35        36     9      180.000000       -0.045795         4
        22        35        34        33     9        0.000000       -0.116704         1
        22        35        34        33     9      180.000000        0.102189         2
        22        35        34        33     9        0.000000        0.272342         3
        22        35        34        33     9      180.000000        0.030689         4
        22        35        34        41     9        0.000000       -0.031546         1
        22        35        34        41     9      180.000000        0.019411         2
        22        35        34        41     9        0.000000        0.340562         3
        22        35        34        41     9      180.000000       -0.005797         4
        22        35        34        42     9        0.000000       -0.031546         1
        22        35        34        42     9      180.000000        0.019411         2
        22        35        34        42     9        0.000000        0.340562         3
        22        35        34        42     9      180.000000       -0.005797         4
        22        35        36        37     9        0.000000       -0.116704         1
        22        35        36        37     9      180.000000        0.102190         2
        22        35        36        37     9        0.000000        0.272342         3
        22        35        36        37     9      180.000000        0.030689         4
        22        35        36        43     9        0.000000       -0.031546         1
        22        35        36        43     9      180.000000        0.019411         2
        22        35        36        43     9        0.000000        0.340562         3
        22        35        36        43     9      180.000000       -0.005797         4
        22        35        36        44     9        0.000000       -0.031546         1
        22        35        36        44     9      180.000000        0.019411         2
        22        35        36        44     9        0.000000        0.340562         3
        22        35        36        44     9      180.000000       -0.005797         4
        24        12        13        25     9        0.000000       -0.147095         1
        24        12        13        25     9      180.000000       11.667466         2
        24        12        13        25     9        0.000000       -0.513118         3
        24        12        13        25     9      180.000000        0.238270         4
        25        13        14        26     9        0.000000       -0.187364         1
        25        13        14        26     9      180.000000       11.886129         2
        25        13        14        26     9        0.000000       -0.629805         3
        25        13        14        26     9      180.000000        0.293723         4
        29        21        22        30     9        0.000000       -0.229383         1
        29        21        22        30     9      180.000000        0.074869         2
        29        21        22        30     9        0.000000       -0.041427         3
        29        21        22        30     9      180.000000       -0.115165         4
        29        21        22        31     9        0.000000       -0.229383         1
        29        21        22        31     9      180.000000        0.074869         2
        29        21        22        31     9        0.000000       -0.041427         3
        29        21        22        31     9      180.000000       -0.115165         4
        29        21        22        35     9        0.000000        1.459920         1
        29        21        22        35     9      180.000000       -1.253608         2
        29        21        22        35     9        0.000000       -0.135139         3
        29        21        22        35     9      180.000000       -0.032261         4
        30        22        35        32     9        0.000000        0.132470         1
        30        22        35        32     9      180.000000        0.037203         2
        30        22        35        32     9        0.000000        0.659055         3
        30        22        35        32     9      180.000000       -0.074141         4
        30        22        35        34     9        0.000000       -0.082161         1
        30        22        35        34     9      180.000000       -0.043057         2
        30        22        35        34     9        0.000000        0.642627         3
        30        22        35        34     9      180.000000        0.062585         4
        30        22        35        36     9        0.000000       -0.082161         1
        30        22        35        36     9      180.000000       -0.043057         2
        30        22        35        36     9        0.000000        0.642627         3
        30        22        35        36     9      180.000000        0.062585         4
        31        22        35        32     9        0.000000        0.132470         1
        31        22        35        32     9      180.000000        0.037203         2
        31        22        35        32     9        0.000000        0.659055         3
        31        22        35        32     9      180.000000       -0.074141         4
        31        22        35        34     9        0.000000       -0.082161         1
        31        22        35        34     9      180.000000       -0.043057         2
        31        22        35        34     9        0.000000        0.642627         3
        31        22        35        34     9      180.000000        0.062585         4
        31        22        35        36     9        0.000000       -0.082161         1
        31        22        35        36     9      180.000000       -0.043057         2
        31        22        35        36     9        0.000000        0.642627         3
        31        22        35        36     9      180.000000        0.062585         4
        32        35        34        33     9        0.000000       -0.662781         1
        32        35        34        33     9      180.000000        0.103869         2
        32        35        34        33     9        0.000000        0.240983         3
        32        35        34        33     9      180.000000        0.022553         4
        32        35        34        41     9        0.000000        0.071587         1
        32        35        34        41     9      180.000000        0.018983         2
        32        35        34        41     9        0.000000        0.426524         3
        32        35        34        41     9      180.000000       -0.019161         4
        32        35        34        42     9        0.000000        0.071587         1
        32        35        34        42     9      180.000000        0.018983         2
        32        35        34        42     9        0.000000        0.426524         3
        32        35        34        42     9      180.000000       -0.019161         4
        32        35        36        37     9        0.000000       -0.662781         1
        32        35        36        37     9      180.000000        0.103869         2
        32        35        36        37     9        0.000000        0.240983         3
        32        35        36        37     9      180.000000        0.022553         4
        32        35        36        43     9        0.000000        0.071587         1
        32        35        36        43     9      180.000000        0.018983         2
        32        35        36        43     9        0.000000        0.426524         3
        32        35        36        43     9      180.000000       -0.019161         4
        32        35        36        44     9        0.000000        0.071587         1
        32        35        36        44     9      180.000000        0.018983         2
        32        35        36        44     9        0.000000        0.426524         3
        32        35        36        44     9      180.000000       -0.019161         4
        33        34        35        36     9        0.000000        1.638868         1
        33        34        35        36     9      180.000000       -1.720110         2
        33        34        35        36     9        0.000000        0.265313         3
        33        34        35        36     9      180.000000       -0.063550         4
        33        38        37        36     9        0.000000        0.201607         1
        33        38        37        36     9      180.000000       -0.945606         2
        33        38        37        36     9        0.000000        0.401297         3
        33        38        37        36     9      180.000000       -0.063156         4
        33        38        37        45     9        0.000000       -0.035529         1
        33        38        37        45     9      180.000000        0.026691         2
        33        38        37        45     9        0.000000        0.315065         3
        33        38        37        45     9      180.000000        0.000590         4
        33        38        37        46     9        0.000000       -0.035529         1
        33        38        37        46     9      180.000000        0.026691         2
        33        38        37        46     9        0.000000        0.315065         3
        33        38        37        46     9      180.000000        0.000590         4
        34        33        38        37     9        0.000000        0.201606         1
        34        33        38        37     9      180.000000       -0.945606         2
        34        33        38        37     9        0.000000        0.401298         3
        34        33        38        37     9      180.000000       -0.063157         4
        34        33        38        47     9        0.000000       -0.024593         1
        34        33        38        47     9      180.000000        0.028810         2
        34        33        38        47     9        0.000000        0.351977         3
        34        33        38        47     9      180.000000        0.005487         4
        34        33        38        48     9        0.000000       -0.024593         1
        34        33        38        48     9      180.000000        0.028810         2
        34        33        38        48     9        0.000000        0.351977         3
        34        33        38        48     9      180.000000        0.005487         4
        34        35        36        37     9        0.000000        1.638868         1
        34        35        36        37     9      180.000000       -1.720109         2
        34        35        36        37     9        0.000000        0.265313         3
        34        35        36        37     9      180.000000       -0.063550         4
        34        35        36        43     9        0.000000       -0.049714         1
        34        35        36        43     9      180.000000        0.034308         2
        34        35        36        43     9        0.000000        0.324161         3
        34        35        36        43     9      180.000000        0.004041         4
        34        35        36        44     9        0.000000       -0.049714         1
        34        35        36        44     9      180.000000        0.034308         2
        34        35        36        44     9        0.000000        0.324161         3
        34        35        36        44     9      180.000000        0.004041         4
        35        34        33        38     9        0.000000        0.851449         1
        35        34        33        38     9      180.000000       -1.682779         2
        35        34        33        38     9        0.000000        0.341205         3
        35        34        33        38     9      180.000000       -0.017356         4
        35        34        33        39     9        0.000000       -0.039252         1
        35        34        33        39     9      180.000000        0.056819         2
        35        34        33        39     9        0.000000        0.288376         3
        35        34        33        39     9      180.000000       -0.007495         4
        35        34        33        40     9        0.000000       -0.039252         1
        35        34        33        40     9      180.000000        0.056819         2
        35        34        33        40     9        0.000000        0.288376         3
        35        34        33        40     9      180.000000       -0.007495         4
        35        36        37        38     9        0.000000        0.851449         1
        35        36        37        38     9      180.000000       -1.682779         2
        35        36        37        38     9        0.000000        0.341205         3
        35        36        37        38     9      180.000000       -0.017356         4
        35        36        37        45     9        0.000000       -0.039251         1
        35        36        37        45     9      180.000000        0.056820         2
        35        36        37        45     9        0.000000        0.288376         3
        35        36        37        45     9      180.000000       -0.007495         4
        35        36        37        46     9        0.000000       -0.039251         1
        35        36        37        46     9      180.000000        0.056820         2
        35        36        37        46     9        0.000000        0.288376         3
        35        36        37        46     9      180.000000       -0.007495         4
        36        35        34        41     9        0.000000       -0.049714         1
        36        35        34        41     9      180.000000        0.034308         2
        36        35        34        41     9        0.000000        0.324161         3
        36        35        34        41     9      180.000000        0.004041         4
        36        35        34        42     9        0.000000       -0.049714         1
        36        35        34        42     9      180.000000        0.034308         2
        36        35        34        42     9        0.000000        0.324161         3
        36        35        34        42     9      180.000000        0.004041         4
        36        37        38        47     9        0.000000       -0.024593         1
        36        37        38        47     9      180.000000        0.028811         2
        36        37        38        47     9        0.000000        0.351977         3
        36        37        38        47     9      180.000000        0.005488         4
        36        37        38        48     9        0.000000       -0.024593         1
        36        37        38        48     9      180.000000        0.028811         2
        36        37        38        48     9        0.000000        0.351977         3
        36        37        38        48     9      180.000000        0.005488         4
        37        38        33        39     9        0.000000       -0.035529         1
        37        38        33        39     9      180.000000        0.026691         2
        37        38        33        39     9        0.000000        0.315065         3
        37        38        33        39     9      180.000000        0.000590         4
        37        38        33        40     9        0.000000       -0.035529         1
        37        38        33        40     9      180.000000        0.026691         2
        37        38        33        40     9        0.000000        0.315065         3
        37        38        33        40     9      180.000000        0.000590         4
        38        33        34        41     9        0.000000       -0.029033         1
        38        33        34        41     9      180.000000        0.044251         2
        38        33        34        41     9        0.000000        0.320965         3
        38        33        34        41     9      180.000000       -0.000415         4
        38        33        34        42     9        0.000000       -0.029033         1
        38        33        34        42     9      180.000000        0.044251         2
        38        33        34        42     9        0.000000        0.320965         3
        38        33        34        42     9      180.000000       -0.000415         4
        38        37        36        43     9        0.000000       -0.029033         1
        38        37        36        43     9      180.000000        0.044251         2
        38        37        36        43     9        0.000000        0.320965         3
        38        37        36        43     9      180.000000       -0.000414         4
        38        37        36        44     9        0.000000       -0.029033         1
        38        37        36        44     9      180.000000        0.044251         2
        38        37        36        44     9        0.000000        0.320965         3
        38        37        36        44     9      180.000000       -0.000414         4
        39        33        34        41     9        0.000000       -0.000531         1
        39        33        34        41     9      180.000000       -0.002824         2
        39        33        34        41     9        0.000000        0.347613         3
        39        33        34        41     9      180.000000        0.017716         4
        39        33        34        42     9        0.000000       -0.000531         1
        39        33        34        42     9      180.000000       -0.002824         2
        39        33        34        42     9        0.000000        0.347613         3
        39        33        34        42     9      180.000000        0.017716         4
        39        33        38        47     9        0.000000       -0.011858         1
        39        33        38        47     9      180.000000        0.003026         2
        39        33        38        47     9        0.000000        0.360875         3
        39        33        38        47     9      180.000000        0.004029         4
        39        33        38        48     9        0.000000       -0.011858         1
        39        33        38        48     9      180.000000        0.003026         2
        39        33        38        48     9        0.000000        0.360875         3
        39        33        38        48     9      180.000000        0.004029         4
        40        33        34        41     9        0.000000       -0.000531         1
        40        33        34        41     9      180.000000       -0.002824         2
        40        33        34        41     9        0.000000        0.347613         3
        40        33        34        41     9      180.000000        0.017716         4
        40        33        34        42     9        0.000000       -0.000531         1
        40        33        34        42     9      180.000000       -0.002824         2
        40        33        34        42     9        0.000000        0.347613         3
        40        33        34        42     9      180.000000        0.017716         4
        40        33        38        47     9        0.000000       -0.011858         1
        40        33        38        47     9      180.000000        0.003026         2
        40        33        38        47     9        0.000000        0.360875         3
        40        33        38        47     9      180.000000        0.004029         4
        40        33        38        48     9        0.000000       -0.011858         1
        40        33        38        48     9      180.000000        0.003026         2
        40        33        38        48     9        0.000000        0.360875         3
        40        33        38        48     9      180.000000        0.004029         4
        43        36        37        45     9        0.000000       -0.000530         1
        43        36        37        45     9      180.000000       -0.002824         2
        43        36        37        45     9        0.000000        0.347613         3
        43        36        37        45     9      180.000000        0.017716         4
        43        36        37        46     9        0.000000       -0.000530         1
        43        36        37        46     9      180.000000       -0.002824         2
        43        36        37        46     9        0.000000        0.347613         3
        43        36        37        46     9      180.000000        0.017716         4
        44        36        37        45     9        0.000000       -0.000530         1
        44        36        37        45     9      180.000000       -0.002824         2
        44        36        37        45     9        0.000000        0.347613         3
        44        36        37        45     9      180.000000        0.017716         4
        44        36        37        46     9        0.000000       -0.000530         1
        44        36        37        46     9      180.000000       -0.002824         2
        44        36        37        46     9        0.000000        0.347613         3
        44        36        37        46     9      180.000000        0.017716         4
        45        37        38        47     9        0.000000       -0.011858         1
        45        37        38        47     9      180.000000        0.003026         2
        45        37        38        47     9        0.000000        0.360875         3
        45        37        38        47     9      180.000000        0.004029         4
        45        37        38        48     9        0.000000       -0.011858         1
        45        37        38        48     9      180.000000        0.003026         2
        45        37        38        48     9        0.000000        0.360875         3
        45        37        38        48     9      180.000000        0.004029         4
        46        37        38        47     9        0.000000       -0.011858         1
        46        37        38        47     9      180.000000        0.003026         2
        46        37        38        47     9        0.000000        0.360875         3
        46        37        38        47     9      180.000000        0.004029         4
        46        37        38        48     9        0.000000       -0.011858         1
        46        37        38        48     9      180.000000        0.003026         2
        46        37        38        48     9        0.000000        0.360875         3
        46        37        38        48     9      180.000000        0.004029         4

[ dihedrals ] ; impropers
;       ai        aj        ak        al funct           phase               k        pn
         6         2         7         8     4      180.000000       27.893333         2
         6         7         8         2     4      180.000000       27.893333         2
         6         8         2         7     4      180.000000       27.893333         2
        18        17        19        20     4      180.000000       27.893333         2
        18        19        20        17     4      180.000000       27.893333         2
        18        20        17        19     4      180.000000       27.893333         2

[ pairs ]
;       ai        aj funct
         1         7     1
         1         8     1
         1        10     1
         1        14     1
         1        15     1
         1        16     1
         2         9     1
         2        15     1
         2        17     1
         3         7     1
         3         8     1
         3         9     1
         3        18     1
         3        27     1
         3        28     1
         4         6     1
         4        10     1
         4        14     1
         4        17     1
         5         6     1
         5        11     1
         5        13     1
         5        16     1
         5        23     1
         5        26     1
         6        16     1
         9        12     1
         9        15     1
         9        21     1
         9        25     1
        10        13     1
        10        22     1
        10        24     1
        10        26     1
        10        29     1
        11        14     1
        11        25     1
        11        30     1
        11        31     1
        11        35     1
        12        22     1
        12        23     1
        12        26     1
        12        29     1
        13        21     1
        14        23     1
        14        24     1
        15        16     1
        16        19     1
        16        20     1
        19        27     1
        19        28     1
        20        27     1
        20        28     1
        21        23     1
        21        24     1
        21        32     1
        21        34     1
        21        36     1
        22        33     1
        22        37     1
        22        41     1
        22        42     1
        22        43     1
        22        44     1
        24        25     1
        25        26     1
        29        30     1
        29        31     1
        29        35     1
        30        32     1
        30        34     1
        30        36     1
        31        32     1
        31        34     1
        31        36     1
        32        33     1
        32        37     1
        32        41     1
        32        42     1
        32        43     1
        32        44     1
        33        36     1
        33        45     1
        33        46     1
        34        37     1
        34        43     1
        34        44     1
        34        47     1
        34        48     1
        35        38     1
        35        39     1
        35        40     1
        35        45     1
        35        46     1
        36        41     1
        36        42     1
        36        47     1
        36        48     1
        37        39     1
        37        40     1
        38        41     1
        38        42     1
        38        43     1
        38        44     1
        39        41     1
        39        42     1
        39        47     1
        39        48     1
        40        41     1
        40        42     1
        40        47     1
        40        48     1
        43        45     1
        43        46     1
        44        45     1
        44        46     1
        45        47     1
        45        48     1
        46        47     1
        46        48     1
