; ITP file created by ByteFF-ML, 2026-02-21 08:23:59.942752

[ atomtypes ]
;name           bonded.type        at.num        mass        charge   ptype           sigma         epsilon
 s0bf                                  16      0.0000       0.00000       A     3.53064e-01     1.17901e+00
 c1bf                                   6      0.0000       0.00000       A     3.31755e-01     4.09816e-01
 c2bf                                   6      0.0000       0.00000       A     3.31349e-01     4.08441e-01
 c3bf                                   6      0.0000       0.00000       A     3.31198e-01     4.12218e-01
 c4bf                                   6      0.0000       0.00000       A     3.31630e-01     4.13561e-01
 c5bf                                   6      0.0000       0.00000       A     3.31455e-01     4.10610e-01
 o6bf                                   8      0.0000       0.00000       A     3.05104e-01     6.09960e-01
 o7bf                                   8      0.0000       0.00000       A     3.05104e-01     6.09960e-01
 c8bf                                   6      0.0000       0.00000       A     3.31422e-01     4.10147e-01
 c9bf                                   6      0.0000       0.00000       A     3.31610e-01     4.12850e-01
 c10bf                                  6      0.0000       0.00000       A     3.31489e-01     4.13882e-01
 c11bf                                  6      0.0000       0.00000       A     3.31444e-01     4.12412e-01
 c12bf                                  6      0.0000       0.00000       A     3.31486e-01     4.13791e-01
 c13bf                                  6      0.0000       0.00000       A     3.31465e-01     4.11762e-01
 br14bf                                35      0.0000       0.00000       A     3.61379e-01     1.65034e+00
 o15bf                                  8      0.0000       0.00000       A     3.15911e-01     3.03161e-01
 c16bf                                  6      0.0000       0.00000       A     3.39643e-01     4.49664e-01
 c17bf                                  6      0.0000       0.00000       A     3.31634e-01     4.10394e-01
 o18bf                                  8      0.0000       0.00000       A     3.04741e-01     6.09601e-01
 o19bf                                  8      0.0000       0.00000       A     3.04741e-01     6.09601e-01
 n20bf                                  7      0.0000       0.00000       A     3.27837e-01     6.40324e-01
 s21bf                                 16      0.0000       0.00000       A     4.06165e-01     2.55978e-01
 h22bf                                  1      0.0000       0.00000       A     2.62380e-01     6.78042e-02
 h23bf                                  1      0.0000       0.00000       A     2.62554e-01     6.74627e-02
 h24bf                                  1      0.0000       0.00000       A     2.62530e-01     6.75680e-02
 h25bf                                  1      0.0000       0.00000       A     2.62513e-01     6.75409e-02
 h26bf                                  1      0.0000       0.00000       A     2.41481e-01     8.75971e-02
 h27bf                                  1      0.0000       0.00000       A     2.41481e-01     8.75971e-02
 h28bf                                  1      0.0000       0.00000       A     1.10542e-01     4.33572e-02
 c29bf                                  6      0.0000       0.00000       A     3.31545e-01     4.13066e-01
 c30bf                                  6      0.0000       0.00000       A     3.31472e-01     4.12373e-01
 c31bf                                  6      0.0000       0.00000       A     3.31507e-01     4.13107e-01
 c32bf                                  6      0.0000       0.00000       A     3.31388e-01     4.12228e-01
 c33bf                                  6      0.0000       0.00000       A     3.31507e-01     4.13107e-01
 c34bf                                  6      0.0000       0.00000       A     3.31472e-01     4.12373e-01
 f35bf                                  9      0.0000       0.00000       A     3.03427e-01     3.47782e-01
 h36bf                                  1      0.0000       0.00000       A     2.62547e-01     6.71977e-02
 h37bf                                  1      0.0000       0.00000       A     2.62612e-01     6.79574e-02
 h38bf                                  1      0.0000       0.00000       A     2.62612e-01     6.79574e-02
 h39bf                                  1      0.0000       0.00000       A     2.62547e-01     6.71977e-02
 o40bf                                  8      0.0000       0.00000       A     3.04847e-01     6.11263e-01
 o41bf                                  8      0.0000       0.00000       A     3.04847e-01     6.11263e-01

[ moleculetype ]
;name             nrexcl
 23472                 3

[ atoms ]
;       nr            type      resi   res      atom      cgnr      charge          mass ; qtot
         1            s0bf         1   UNL        s0         1     0.19677       32.0670 ; qtot    0.197
         2            c1bf         1   UNL        c1         2    -0.26026       12.0110 ; qtot   -0.063
         3            c2bf         1   UNL        c2         3     0.11437       12.0110 ; qtot    0.051
         4            c3bf         1   UNL        c3         4    -0.05837       12.0110 ; qtot   -0.007
         5            c4bf         1   UNL        c4         5    -0.17008       12.0110 ; qtot   -0.178
         6            c5bf         1   UNL        c5         6     0.72713       12.0110 ; qtot    0.550
         7            o6bf         1   UNL        o6         7    -0.72308       15.9990 ; qtot   -0.174
         8            o7bf         1   UNL        o7         8    -0.72308       15.9990 ; qtot   -0.897
         9            c8bf         1   UNL        c8         9     0.00555       12.0110 ; qtot   -0.891
        10            c9bf         1   UNL        c9        10    -0.09329       12.0110 ; qtot   -0.984
        11           c10bf         1   UNL       c10        11     0.23118       12.0110 ; qtot   -0.753
        12           c11bf         1   UNL       c11        12    -0.11173       12.0110 ; qtot   -0.865
        13           c12bf         1   UNL       c12        13    -0.08944       12.0110 ; qtot   -0.954
        14           c13bf         1   UNL       c13        14    -0.10207       12.0110 ; qtot   -1.056
        15          br14bf         1   UNL      br14        15    -0.08621       79.9040 ; qtot   -1.143
        16           o15bf         1   UNL       o15        16    -0.35606       15.9990 ; qtot   -1.499
        17           c16bf         1   UNL       c16        17    -0.01490       12.0110 ; qtot   -1.514
        18           c17bf         1   UNL       c17        18     0.70991       12.0110 ; qtot   -0.804
        19           o18bf         1   UNL       o18        19    -0.73348       15.9990 ; qtot   -1.537
        20           o19bf         1   UNL       o19        20    -0.73348       15.9990 ; qtot   -2.271
        21           n20bf         1   UNL       n20        21    -0.81702       14.0070 ; qtot   -3.088
        22           s21bf         1   UNL       s21        22     1.06213       32.0670 ; qtot   -2.026
        23           h22bf         1   UNL       h22        23     0.13337        1.0080 ; qtot   -1.892
        24           h23bf         1   UNL       h23        24     0.12870        1.0080 ; qtot   -1.763
        25           h24bf         1   UNL       h24        25     0.12004        1.0080 ; qtot   -1.643
        26           h25bf         1   UNL       h25        26     0.12297        1.0080 ; qtot   -1.520
        27           h26bf         1   UNL       h26        27     0.02487        1.0080 ; qtot   -1.496
        28           h27bf         1   UNL       h27        28     0.02487        1.0080 ; qtot   -1.471
        29           h28bf         1   UNL       h28        29     0.47473        1.0080 ; qtot   -0.996
        30           c29bf         1   UNL       c29        30     0.21207       12.0110 ; qtot   -0.784
        31           c30bf         1   UNL       c30        31    -0.16760       12.0110 ; qtot   -0.951
        32           c31bf         1   UNL       c31        32     0.01726       12.0110 ; qtot   -0.934
        33           c32bf         1   UNL       c32        33    -0.28763       12.0110 ; qtot   -1.222
        34           c33bf         1   UNL       c33        34     0.01726       12.0110 ; qtot   -1.205
        35           c34bf         1   UNL       c34        35    -0.16760       12.0110 ; qtot   -1.372
        36           f35bf         1   UNL       f35        36    -0.17524       18.9980 ; qtot   -1.547
        37           h36bf         1   UNL       h36        37     0.14225        1.0080 ; qtot   -1.405
        38           h37bf         1   UNL       h37        38     0.14529        1.0080 ; qtot   -1.260
        39           h38bf         1   UNL       h38        39     0.14529        1.0080 ; qtot   -1.115
        40           h39bf         1   UNL       h39        40     0.14225        1.0080 ; qtot   -0.972
        41           o40bf         1   UNL       o40        41    -0.51384       15.9990 ; qtot   -1.486
        42           o41bf         1   UNL       o41        42    -0.51380       15.9990 ; qtot   -2.000

[ bonds ]
;       ai        aj funct               r               k
         1         2     1        0.174464   145572.874683
         1         5     1        0.175012   149020.499365
         2         3     1        0.138277   335024.121436
         2         6     1        0.154034   112597.124561
         3         4     1        0.143994   223875.334033
         3        16     1        0.134833   300010.369531
         4         5     1        0.138169   338414.734521
         4        15     1        0.190996   130541.361816
         5         9     1        0.147070   229245.966895
         6         7     1        0.125984   484107.493164
         6         8     1        0.125984   484107.493164
         9        10     1        0.140396   289804.719141
         9        14     1        0.140588   286846.806836
        10        11     1        0.139799   298036.350977
        10        23     1        0.108457   322195.094873
        11        12     1        0.140047   292889.091211
        11        21     1        0.143229   221772.787207
        12        13     1        0.139680   314204.201367
        12        24     1        0.108544   321216.640527
        13        14     1        0.139580   315648.963330
        13        25     1        0.108606   320064.150781
        14        26     1        0.108491   321875.217041
        16        17     1        0.145852   151865.231201
        17        18     1        0.156538   116742.448608
        17        27     1        0.109566   293138.384473
        17        28     1        0.109566   293138.384473
        18        19     1        0.126057   487285.433203
        18        20     1        0.126057   487285.433203
        21        22     1        0.171874   121862.983789
        21        29     1        0.101878   403094.435645
        22        33     1        0.179166   136335.565942
        22        41     1        0.146457   525083.419531
        22        42     1        0.146457   525083.419531
        30        31     1        0.139350   303841.421143
        30        35     1        0.139350   303841.421143
        30        36     1        0.135441   292846.699609
        31        32     1        0.139520   316648.741162
        31        37     1        0.108458   326687.915137
        32        33     1        0.139750   299032.042871
        32        38     1        0.108442   326466.048730
        33        34     1        0.139750   299032.042871
        34        35     1        0.139520   316648.715625
        34        39     1        0.108442   326466.048730
        35        40     1        0.108458   326687.915137

[ angles ]
;       ai        aj        ak funct           theta             cth
         1         2         3     1      110.160385      167.360000
         1         2         6     1      115.033363      592.691984
         1         5         4     1      108.982101      167.360000
         1         5         9     1      120.210739      422.199986
         2         1         5     1       93.195396      186.526063
         2         3         4     1      112.155884      382.616764
         2         3        16     1      126.134293      420.691381
         2         6         7     1      114.627625      339.029323
         2         6         8     1      114.627625      339.029323
         3         2         6     1      134.051437      467.327122
         3         4         5     1      114.634010      370.337213
         3         4        15     1      121.312027      306.426064
         3        16        17     1      117.821022      473.127047
         4         3        16     1      120.298485      422.691671
         4         5         9     1      130.731110      404.855628
         5         4        15     1      123.746353      284.291870
         5         9        10     1      120.284424      403.769822
         5         9        14     1      120.790932      462.101655
         7         6         8     1      130.398407      705.552920
         9        10        11     1      120.480225      699.987171
         9        10        23     1      119.927750      418.334178
         9        14        13     1      120.007828      688.902980
         9        14        26     1      119.837624      441.192892
        10         9        14     1      119.058426      653.424210
        10        11        12     1      120.174843      660.196141
        10        11        21     1      119.800766      433.889374
        11        10        23     1      119.420303      416.550698
        11        12        13     1      119.278343      693.400831
        11        12        24     1      119.830650      422.832827
        11        21        22     1      117.058060      557.202042
        11        21        29     1      113.736862      499.174643
        12        11        21     1      119.964012      479.286917
        12        13        14     1      120.623093      714.292294
        12        13        25     1      119.597595      432.376141
        13        12        24     1      120.849953      415.615849
        13        14        26     1      120.104507      423.180898
        14        13        25     1      119.712669      435.251236
        16        17        18     1      113.930588      533.838045
        16        17        27     1      107.778183      447.857886
        16        17        28     1      107.778183      447.857886
        17        18        19     1      114.982224      326.587708
        17        18        20     1      114.982224      326.587708
        18        17        27     1      109.132095      476.479910
        18        17        28     1      109.132095      476.479910
        19        18        20     1      130.064850      720.626454
        21        22        33     1      102.044930      563.598833
        21        22        41     1      106.494019      690.487047
        21        22        42     1      106.494019      690.487047
        22        21        29     1      107.153320      630.219916
        22        33        32     1      119.056961      509.567034
        22        33        34     1      119.056961      509.567034
        27        17        28     1      108.416725      344.620386
        30        31        32     1      118.533386      711.979015
        30        31        37     1      119.916138      414.437566
        30        35        34     1      118.533386      711.979078
        30        35        40     1      119.916138      414.437566
        31        30        35     1      122.759155      622.144443
        31        30        36     1      118.663048      570.370891
        31        32        33     1      119.220741      662.246196
        31        32        38     1      120.845482      406.658037
        32        31        37     1      121.605751      421.704151
        32        33        34     1      121.766235      697.278705
        33        22        41     1      108.483643      624.300733
        33        22        42     1      108.483643      624.300733
        33        32        38     1      120.020042      346.355633
        33        34        35     1      119.220749      662.246324
        33        34        39     1      120.020058      346.355633
        34        35        40     1      121.605751      421.704151
        35        30        36     1      118.663063      570.370955
        35        34        39     1      120.845497      406.658037
        41        22        42     1      121.848389      701.695859

[ dihedrals ] ; propers for gromacs 4.5 or higher, use funct 9
;       ai        aj        ak        al funct           phase               k        pn
         1         2         3         4     9        0.000000       -0.157449         1
         1         2         3         4     9      180.000000       23.193074         2
         1         2         3         4     9        0.000000       -4.968979         3
         1         2         3         4     9      180.000000       -0.609654         4
         1         2         3        16     9        0.000000        0.970784         1
         1         2         3        16     9      180.000000       21.885524         2
         1         2         3        16     9        0.000000        0.406670         3
         1         2         3        16     9      180.000000       -1.347848         4
         1         2         6         7     9        0.000000        1.117411         1
         1         2         6         7     9      180.000000        4.117929         2
         1         2         6         7     9        0.000000        0.067199         3
         1         2         6         7     9      180.000000        0.180393         4
         1         2         6         8     9        0.000000        1.117411         1
         1         2         6         8     9      180.000000        4.117929         2
         1         2         6         8     9        0.000000        0.067199         3
         1         2         6         8     9      180.000000        0.180393         4
         1         5         4         3     9        0.000000       -0.306829         1
         1         5         4         3     9      180.000000       24.522085         2
         1         5         4         3     9        0.000000       -5.964297         3
         1         5         4         3     9      180.000000       -0.599844         4
         1         5         4        15     9        0.000000        0.499553         1
         1         5         4        15     9      180.000000       17.380840         2
         1         5         4        15     9        0.000000        0.197540         3
         1         5         4        15     9      180.000000       -1.066303         4
         1         5         9        10     9        0.000000       -0.362120         1
         1         5         9        10     9      180.000000        3.212981         2
         1         5         9        10     9        0.000000        0.044162         3
         1         5         9        10     9      180.000000        0.267731         4
         1         5         9        14     9        0.000000       -0.248304         1
         1         5         9        14     9      180.000000        3.126873         2
         1         5         9        14     9        0.000000        0.150105         3
         1         5         9        14     9      180.000000        0.215452         4
         2         1         5         4     9        0.000000       -0.388546         1
         2         1         5         4     9      180.000000       24.242164         2
         2         1         5         4     9        0.000000       -5.021316         3
         2         1         5         4     9      180.000000       -0.471890         4
         2         1         5         9     9        0.000000       -0.150950         1
         2         1         5         9     9      180.000000       15.090187         2
         2         1         5         9     9        0.000000        0.264043         3
         2         1         5         9     9      180.000000       -0.597980         4
         2         3         4         5     9        0.000000       -0.251748         1
         2         3         4         5     9      180.000000       14.214229         2
         2         3         4         5     9        0.000000       -2.698729         3
         2         3         4         5     9      180.000000       -0.310431         4
         2         3         4        15     9        0.000000        0.248323         1
         2         3         4        15     9      180.000000       11.562275         2
         2         3         4        15     9        0.000000        0.148422         3
         2         3         4        15     9      180.000000       -0.630060         4
         2         3        16        17     9        0.000000        0.701674         1
         2         3        16        17     9      180.000000        2.973538         2
         2         3        16        17     9        0.000000        0.307642         3
         2         3        16        17     9      180.000000       -0.218272         4
         3         2         1         5     9        0.000000       -0.083281         1
         3         2         1         5     9      180.000000       22.870917         2
         3         2         1         5     9        0.000000       -3.551991         3
         3         2         1         5     9      180.000000       -0.695859         4
         3         2         6         7     9        0.000000       -5.137617         1
         3         2         6         7     9      180.000000        2.933940         2
         3         2         6         7     9        0.000000        0.193554         3
         3         2         6         7     9      180.000000       -0.187922         4
         3         2         6         8     9        0.000000       -5.137617         1
         3         2         6         8     9      180.000000        2.933940         2
         3         2         6         8     9        0.000000        0.193554         3
         3         2         6         8     9      180.000000       -0.187922         4
         3         4         5         9     9        0.000000        0.198735         1
         3         4         5         9     9      180.000000       16.078129         2
         3         4         5         9     9        0.000000       -0.315891         3
         3         4         5         9     9      180.000000       -1.031068         4
         3        16        17        18     9        0.000000       -4.760844         1
         3        16        17        18     9      180.000000       -1.857167         2
         3        16        17        18     9        0.000000        0.352751         3
         3        16        17        18     9      180.000000        0.004621         4
         3        16        17        27     9        0.000000       -0.294822         1
         3        16        17        27     9      180.000000       -0.281191         2
         3        16        17        27     9        0.000000        0.570610         3
         3        16        17        27     9      180.000000        0.007077         4
         3        16        17        28     9        0.000000       -0.294822         1
         3        16        17        28     9      180.000000       -0.281191         2
         3        16        17        28     9        0.000000        0.570610         3
         3        16        17        28     9      180.000000        0.007077         4
         4         3         2         6     9        0.000000       -0.190053         1
         4         3         2         6     9      180.000000       11.755029         2
         4         3         2         6     9        0.000000       -0.719247         3
         4         3         2         6     9      180.000000       -0.502059         4
         4         3        16        17     9        0.000000        2.857399         1
         4         3        16        17     9      180.000000        2.426502         2
         4         3        16        17     9        0.000000        0.581872         3
         4         3        16        17     9      180.000000       -0.192707         4
         4         5         9        10     9        0.000000        0.026407         1
         4         5         9        10     9      180.000000        2.317038         2
         4         5         9        10     9        0.000000       -0.067531         3
         4         5         9        10     9      180.000000        0.025113         4
         4         5         9        14     9        0.000000        0.246590         1
         4         5         9        14     9      180.000000        2.105469         2
         4         5         9        14     9        0.000000       -0.041775         3
         4         5         9        14     9      180.000000        0.032293         4
         5         1         2         6     9        0.000000        0.985272         1
         5         1         2         6     9      180.000000       10.250466         2
         5         1         2         6     9        0.000000       -0.288305         3
         5         1         2         6     9      180.000000        0.044596         4
         5         4         3        16     9        0.000000        0.518482         1
         5         4         3        16     9      180.000000       12.721722         2
         5         4         3        16     9        0.000000        0.352406         3
         5         4         3        16     9      180.000000       -0.184802         4
         5         9        10        11     9        0.000000        0.381032         1
         5         9        10        11     9      180.000000       15.799305         2
         5         9        10        11     9        0.000000        0.051530         3
         5         9        10        11     9      180.000000       -0.382597         4
         5         9        10        23     9        0.000000        0.065064         1
         5         9        10        23     9      180.000000       13.154120         2
         5         9        10        23     9        0.000000       -0.163636         3
         5         9        10        23     9      180.000000        0.134238         4
         5         9        14        13     9        0.000000        0.346884         1
         5         9        14        13     9      180.000000       16.418217         2
         5         9        14        13     9        0.000000       -0.159639         3
         5         9        14        13     9      180.000000       -0.358046         4
         5         9        14        26     9        0.000000        0.084349         1
         5         9        14        26     9      180.000000       12.983436         2
         5         9        14        26     9        0.000000       -0.238169         3
         5         9        14        26     9      180.000000        0.162852         4
         6         2         3        16     9        0.000000        0.216703         1
         6         2         3        16     9      180.000000       15.170354         2
         6         2         3        16     9        0.000000        0.500829         3
         6         2         3        16     9      180.000000       -0.921398         4
         9         5         4        15     9        0.000000        0.440769         1
         9         5         4        15     9      180.000000       13.063724         2
         9         5         4        15     9        0.000000        0.608504         3
         9         5         4        15     9      180.000000       -0.474070         4
         9        10        11        12     9        0.000000        0.034554         1
         9        10        11        12     9      180.000000       17.073233         2
         9        10        11        12     9        0.000000       -1.028282         3
         9        10        11        12     9      180.000000       -0.244985         4
         9        10        11        21     9        0.000000        0.332450         1
         9        10        11        21     9      180.000000       18.702016         2
         9        10        11        21     9        0.000000        0.371976         3
         9        10        11        21     9      180.000000       -0.615286         4
         9        14        13        12     9        0.000000       -0.019425         1
         9        14        13        12     9      180.000000       19.149253         2
         9        14        13        12     9        0.000000       -1.653930         3
         9        14        13        12     9      180.000000       -0.430316         4
         9        14        13        25     9        0.000000       -0.036152         1
         9        14        13        25     9      180.000000       15.136657         2
         9        14        13        25     9        0.000000       -0.500593         3
         9        14        13        25     9      180.000000        0.065568         4
        10         9        14        13     9        0.000000       -0.086536         1
        10         9        14        13     9      180.000000       18.213364         2
        10         9        14        13     9        0.000000       -1.448639         3
        10         9        14        13     9      180.000000       -0.356887         4
        10         9        14        26     9        0.000000       -0.002438         1
        10         9        14        26     9      180.000000       13.832819         2
        10         9        14        26     9        0.000000       -0.543253         3
        10         9        14        26     9      180.000000        0.115659         4
        10        11        12        13     9        0.000000        0.011603         1
        10        11        12        13     9      180.000000       17.150960         2
        10        11        12        13     9        0.000000       -1.007825         3
        10        11        12        13     9      180.000000       -0.238915         4
        10        11        12        24     9        0.000000       -0.061783         1
        10        11        12        24     9      180.000000       13.288391         2
        10        11        12        24     9        0.000000       -0.415143         3
        10        11        12        24     9      180.000000        0.117929         4
        10        11        21        22     9        0.000000       -1.566761         1
        10        11        21        22     9      180.000000        5.136219         2
        10        11        21        22     9        0.000000        0.618141         3
        10        11        21        22     9      180.000000       -0.057011         4
        10        11        21        29     9        0.000000        0.266187         1
        10        11        21        29     9      180.000000        3.212997         2
        10        11        21        29     9        0.000000        0.186665         3
        10        11        21        29     9      180.000000        0.080723         4
        11        10         9        14     9        0.000000       -0.136030         1
        11        10         9        14     9      180.000000       18.025554         2
        11        10         9        14     9        0.000000       -1.390275         3
        11        10         9        14     9      180.000000       -0.436485         4
        11        12        13        14     9        0.000000        0.026291         1
        11        12        13        14     9      180.000000       18.481673         2
        11        12        13        14     9        0.000000       -1.496123         3
        11        12        13        14     9      180.000000       -0.438959         4
        11        12        13        25     9        0.000000        0.045948         1
        11        12        13        25     9      180.000000       14.390175         2
        11        12        13        25     9        0.000000       -0.502060         3
        11        12        13        25     9      180.000000        0.066060         4
        11        21        22        33     9        0.000000       -4.805642         1
        11        21        22        33     9      180.000000       -6.528489         2
        11        21        22        33     9        0.000000        1.902922         3
        11        21        22        33     9      180.000000        1.288250         4
        11        21        22        41     9        0.000000        0.647303         1
        11        21        22        41     9      180.000000        0.539471         2
        11        21        22        41     9        0.000000        1.100440         3
        11        21        22        41     9      180.000000        0.034422         4
        11        21        22        42     9        0.000000        0.647303         1
        11        21        22        42     9      180.000000        0.539471         2
        11        21        22        42     9        0.000000        1.100440         3
        11        21        22        42     9      180.000000        0.034422         4
        12        11        10        23     9        0.000000       -0.040723         1
        12        11        10        23     9      180.000000       13.212214         2
        12        11        10        23     9        0.000000       -0.447465         3
        12        11        10        23     9      180.000000        0.130583         4
        12        11        21        22     9        0.000000       -0.836691         1
        12        11        21        22     9      180.000000        4.976435         2
        12        11        21        22     9        0.000000        0.681647         3
        12        11        21        22     9      180.000000       -0.084045         4
        12        11        21        29     9        0.000000       -0.011986         1
        12        11        21        29     9      180.000000        3.193641         2
        12        11        21        29     9        0.000000        0.180501         3
        12        11        21        29     9      180.000000        0.105893         4
        12        13        14        26     9        0.000000        0.119012         1
        12        13        14        26     9      180.000000       14.955093         2
        12        13        14        26     9        0.000000       -0.726131         3
        12        13        14        26     9      180.000000        0.125802         4
        13        12        11        21     9        0.000000        0.452793         1
        13        12        11        21     9      180.000000       18.246775         2
        13        12        11        21     9        0.000000        0.277171         3
        13        12        11        21     9      180.000000       -0.369036         4
        14         9        10        23     9        0.000000       -0.021201         1
        14         9        10        23     9      180.000000       13.523320         2
        14         9        10        23     9        0.000000       -0.510556         3
        14         9        10        23     9      180.000000        0.087543         4
        14        13        12        24     9        0.000000        0.083941         1
        14        13        12        24     9      180.000000       14.171614         2
        14        13        12        24     9        0.000000       -0.591930         3
        14        13        12        24     9      180.000000        0.112547         4
        15         4         3        16     9        0.000000       -0.153280         1
        15         4         3        16     9      180.000000       12.598060         2
        15         4         3        16     9        0.000000        0.466981         3
        15         4         3        16     9      180.000000       -0.523506         4
        16        17        18        19     9        0.000000       -1.573021         1
        16        17        18        19     9      180.000000        4.124889         2
        16        17        18        19     9        0.000000        0.247417         3
        16        17        18        19     9      180.000000        0.125480         4
        16        17        18        20     9        0.000000       -1.573021         1
        16        17        18        20     9      180.000000        4.124889         2
        16        17        18        20     9        0.000000        0.247417         3
        16        17        18        20     9      180.000000        0.125480         4
        19        18        17        27     9        0.000000        0.050675         1
        19        18        17        27     9      180.000000       -0.380925         2
        19        18        17        27     9        0.000000        0.149856         3
        19        18        17        27     9      180.000000        0.058403         4
        19        18        17        28     9        0.000000        0.050675         1
        19        18        17        28     9      180.000000       -0.380925         2
        19        18        17        28     9        0.000000        0.149856         3
        19        18        17        28     9      180.000000        0.058403         4
        20        18        17        27     9        0.000000        0.050675         1
        20        18        17        27     9      180.000000       -0.380925         2
        20        18        17        27     9        0.000000        0.149856         3
        20        18        17        27     9      180.000000        0.058403         4
        20        18        17        28     9        0.000000        0.050675         1
        20        18        17        28     9      180.000000       -0.380925         2
        20        18        17        28     9        0.000000        0.149856         3
        20        18        17        28     9      180.000000        0.058403         4
        21        11        10        23     9        0.000000        0.001860         1
        21        11        10        23     9      180.000000       14.398681         2
        21        11        10        23     9        0.000000        0.005027         3
        21        11        10        23     9      180.000000        0.232011         4
        21        11        12        24     9        0.000000        0.044772         1
        21        11        12        24     9      180.000000       14.121960         2
        21        11        12        24     9        0.000000       -0.055000         3
        21        11        12        24     9      180.000000        0.213453         4
        21        22        33        32     9        0.000000       -0.672443         1
        21        22        33        32     9      180.000000       -0.836993         2
        21        22        33        32     9        0.000000        0.544978         3
        21        22        33        32     9      180.000000        0.076402         4
        21        22        33        34     9        0.000000       -0.672443         1
        21        22        33        34     9      180.000000       -0.836992         2
        21        22        33        34     9        0.000000        0.544977         3
        21        22        33        34     9      180.000000        0.076402         4
        22        33        32        31     9        0.000000       -0.099593         1
        22        33        32        31     9      180.000000       13.471312         2
        22        33        32        31     9        0.000000        0.159575         3
        22        33        32        31     9      180.000000       -0.331508         4
        22        33        32        38     9        0.000000        0.258365         1
        22        33        32        38     9      180.000000       12.109416         2
        22        33        32        38     9        0.000000       -0.029811         3
        22        33        32        38     9      180.000000       -0.147293         4
        22        33        34        35     9        0.000000       -0.099593         1
        22        33        34        35     9      180.000000       13.471315         2
        22        33        34        35     9        0.000000        0.159575         3
        22        33        34        35     9      180.000000       -0.331508         4
        22        33        34        39     9        0.000000        0.258364         1
        22        33        34        39     9      180.000000       12.109416         2
        22        33        34        39     9        0.000000       -0.029811         3
        22        33        34        39     9      180.000000       -0.147292         4
        24        12        13        25     9        0.000000       -0.126043         1
        24        12        13        25     9      180.000000       11.916785         2
        24        12        13        25     9        0.000000       -0.600164         3
        24        12        13        25     9      180.000000        0.207971         4
        25        13        14        26     9        0.000000       -0.185015         1
        25        13        14        26     9      180.000000       12.012410         2
        25        13        14        26     9        0.000000       -0.638783         3
        25        13        14        26     9      180.000000        0.285125         4
        29        21        22        33     9        0.000000       -8.714406         1
        29        21        22        33     9      180.000000       -4.347405         2
        29        21        22        33     9        0.000000        0.375587         3
        29        21        22        33     9      180.000000        0.811018         4
        29        21        22        41     9        0.000000        0.356430         1
        29        21        22        41     9      180.000000        0.211693         2
        29        21        22        41     9        0.000000        0.092075         3
        29        21        22        41     9      180.000000       -0.251592         4
        29        21        22        42     9        0.000000        0.356430         1
        29        21        22        42     9      180.000000        0.211693         2
        29        21        22        42     9        0.000000        0.092075         3
        29        21        22        42     9      180.000000       -0.251592         4
        30        31        32        33     9        0.000000       -0.132153         1
        30        31        32        33     9      180.000000       18.956091         2
        30        31        32        33     9        0.000000       -1.459052         3
        30        31        32        33     9      180.000000       -0.494383         4
        30        31        32        38     9        0.000000        0.173054         1
        30        31        32        38     9      180.000000       14.922889         2
        30        31        32        38     9        0.000000       -0.520847         3
        30        31        32        38     9      180.000000        0.035921         4
        30        35        34        33     9        0.000000       -0.132152         1
        30        35        34        33     9      180.000000       18.956095         2
        30        35        34        33     9        0.000000       -1.459052         3
        30        35        34        33     9      180.000000       -0.494383         4
        30        35        34        39     9        0.000000        0.173053         1
        30        35        34        39     9      180.000000       14.922891         2
        30        35        34        39     9        0.000000       -0.520848         3
        30        35        34        39     9      180.000000        0.035921         4
        31        30        35        34     9        0.000000       -0.110515         1
        31        30        35        34     9      180.000000       17.178209         2
        31        30        35        34     9        0.000000       -1.054997         3
        31        30        35        34     9      180.000000       -0.434186         4
        31        30        35        40     9        0.000000        0.127656         1
        31        30        35        40     9      180.000000       12.740131         2
        31        30        35        40     9        0.000000       -0.432764         3
        31        30        35        40     9      180.000000        0.136346         4
        31        32        33        34     9        0.000000       -0.043942         1
        31        32        33        34     9      180.000000       18.679492         2
        31        32        33        34     9        0.000000       -1.440824         3
        31        32        33        34     9      180.000000       -0.543976         4
        32        31        30        35     9        0.000000       -0.110516         1
        32        31        30        35     9      180.000000       17.178209         2
        32        31        30        35     9        0.000000       -1.054998         3
        32        31        30        35     9      180.000000       -0.434186         4
        32        31        30        36     9        0.000000        0.398847         1
        32        31        30        36     9      180.000000       23.753919         2
        32        31        30        36     9        0.000000        0.428827         3
        32        31        30        36     9      180.000000       -0.771387         4
        32        33        22        41     9        0.000000        0.071856         1
        32        33        22        41     9      180.000000        0.256887         2
        32        33        22        41     9        0.000000        0.178504         3
        32        33        22        41     9      180.000000        0.005606         4
        32        33        22        42     9        0.000000        0.071856         1
        32        33        22        42     9      180.000000        0.256887         2
        32        33        22        42     9        0.000000        0.178504         3
        32        33        22        42     9      180.000000        0.005606         4
        32        33        34        35     9        0.000000       -0.043942         1
        32        33        34        35     9      180.000000       18.679492         2
        32        33        34        35     9        0.000000       -1.440825         3
        32        33        34        35     9      180.000000       -0.543975         4
        32        33        34        39     9        0.000000        0.101717         1
        32        33        34        39     9      180.000000       14.445100         2
        32        33        34        39     9        0.000000       -0.540332         3
        32        33        34        39     9      180.000000       -0.045996         4
        33        32        31        37     9        0.000000        0.041918         1
        33        32        31        37     9      180.000000       14.456191         2
        33        32        31        37     9        0.000000       -0.407462         3
        33        32        31        37     9      180.000000        0.112122         4
        33        34        35        40     9        0.000000        0.041919         1
        33        34        35        40     9      180.000000       14.456189         2
        33        34        35        40     9        0.000000       -0.407461         3
        33        34        35        40     9      180.000000        0.112123         4
        34        33        22        41     9        0.000000        0.071856         1
        34        33        22        41     9      180.000000        0.256887         2
        34        33        22        41     9        0.000000        0.178504         3
        34        33        22        41     9      180.000000        0.005606         4
        34        33        22        42     9        0.000000        0.071856         1
        34        33        22        42     9      180.000000        0.256887         2
        34        33        22        42     9        0.000000        0.178504         3
        34        33        22        42     9      180.000000        0.005606         4
        34        33        32        38     9        0.000000        0.101718         1
        34        33        32        38     9      180.000000       14.445100         2
        34        33        32        38     9        0.000000       -0.540333         3
        34        33        32        38     9      180.000000       -0.045995         4
        34        35        30        36     9        0.000000        0.398847         1
        34        35        30        36     9      180.000000       23.753917         2
        34        35        30        36     9        0.000000        0.428827         3
        34        35        30        36     9      180.000000       -0.771387         4
        35        30        31        37     9        0.000000        0.127657         1
        35        30        31        37     9      180.000000       12.740132         2
        35        30        31        37     9        0.000000       -0.432764         3
        35        30        31        37     9      180.000000        0.136346         4
        36        30        31        37     9        0.000000        0.294158         1
        36        30        31        37     9      180.000000       16.020249         2
        36        30        31        37     9        0.000000        0.339987         3
        36        30        31        37     9      180.000000        0.110456         4
        36        30        35        40     9        0.000000        0.294159         1
        36        30        35        40     9      180.000000       16.020248         2
        36        30        35        40     9        0.000000        0.339987         3
        36        30        35        40     9      180.000000        0.110457         4
        37        31        32        38     9        0.000000       -0.068964         1
        37        31        32        38     9      180.000000       12.492556         2
        37        31        32        38     9        0.000000       -0.759792         3
        37        31        32        38     9      180.000000        0.180217         4
        39        34        35        40     9        0.000000       -0.068965         1
        39        34        35        40     9      180.000000       12.492557         2
        39        34        35        40     9        0.000000       -0.759792         3
        39        34        35        40     9      180.000000        0.180216         4

[ dihedrals ] ; impropers
;       ai        aj        ak        al funct           phase               k        pn
         6         2         7         8     4      180.000000       27.893333         2
         6         7         8         2     4      180.000000       27.893333         2
         6         8         2         7     4      180.000000       27.893333         2
        13        12        14        25     4      180.000000        0.324576         2
        13        14        25        12     4      180.000000        0.324576         2
        13        25        12        14     4      180.000000        0.324576         2
        18        17        19        20     4      180.000000       27.893333         2
        18        19        20        17     4      180.000000       27.893333         2
        18        20        17        19     4      180.000000       27.893333         2
        30        31        35        36     4      180.000000        2.106106         2
        30        35        36        31     4      180.000000        2.106106         2
        30        36        31        35     4      180.000000        2.106106         2
        31        30        32        37     4      180.000000        2.588880         2
        31        32        37        30     4      180.000000        2.588880         2
        31        37        30        32     4      180.000000        2.588880         2
        32        31        33        38     4      180.000000        2.893193         2
        32        33        38        31     4      180.000000        2.893193         2
        32        38        31        33     4      180.000000        2.893193         2
        34        33        35        39     4      180.000000        2.893193         2
        34        35        39        33     4      180.000000        2.893193         2
        34        39        33        35     4      180.000000        2.893193         2
        35        30        34        40     4      180.000000        2.588880         2
        35        34        40        30     4      180.000000        2.588880         2
        35        40        30        34     4      180.000000        2.588880         2

[ pairs ]
;       ai        aj funct
         1         7     1
         1         8     1
         1        10     1
         1        14     1
         1        15     1
         1        16     1
         2         9     1
         2        15     1
         2        17     1
         3         7     1
         3         8     1
         3         9     1
         3        18     1
         3        27     1
         3        28     1
         4         6     1
         4        10     1
         4        14     1
         4        17     1
         5         6     1
         5        11     1
         5        13     1
         5        16     1
         5        23     1
         5        26     1
         6        16     1
         9        12     1
         9        15     1
         9        21     1
         9        25     1
        10        13     1
        10        22     1
        10        24     1
        10        26     1
        10        29     1
        11        14     1
        11        25     1
        11        33     1
        11        41     1
        11        42     1
        12        22     1
        12        23     1
        12        26     1
        12        29     1
        13        21     1
        14        23     1
        14        24     1
        15        16     1
        16        19     1
        16        20     1
        19        27     1
        19        28     1
        20        27     1
        20        28     1
        21        23     1
        21        24     1
        21        32     1
        21        34     1
        22        31     1
        22        35     1
        22        38     1
        22        39     1
        24        25     1
        25        26     1
        29        33     1
        29        41     1
        29        42     1
        30        33     1
        30        38     1
        30        39     1
        31        34     1
        31        40     1
        32        35     1
        32        36     1
        32        39     1
        32        41     1
        32        42     1
        33        37     1
        33        40     1
        34        36     1
        34        38     1
        34        41     1
        34        42     1
        35        37     1
        36        37     1
        36        40     1
        37        38     1
        39        40     1
