; ITP file created by ByteFF-ML, 2026-02-21 08:23:57.640768

[ atomtypes ]
;name           bonded.type        at.num        mass        charge   ptype           sigma         epsilon
 s0bf                                  16      0.0000       0.00000       A     3.53064e-01     1.17901e+00
 c1bf                                   6      0.0000       0.00000       A     3.31755e-01     4.09816e-01
 c2bf                                   6      0.0000       0.00000       A     3.31349e-01     4.08441e-01
 c3bf                                   6      0.0000       0.00000       A     3.31198e-01     4.12218e-01
 c4bf                                   6      0.0000       0.00000       A     3.31630e-01     4.13561e-01
 c5bf                                   6      0.0000       0.00000       A     3.31455e-01     4.10610e-01
 o6bf                                   8      0.0000       0.00000       A     3.05104e-01     6.09960e-01
 o7bf                                   8      0.0000       0.00000       A     3.05104e-01     6.09960e-01
 c8bf                                   6      0.0000       0.00000       A     3.31408e-01     4.09890e-01
 c9bf                                   6      0.0000       0.00000       A     3.31738e-01     4.14247e-01
 c10bf                                  6      0.0000       0.00000       A     3.31501e-01     4.10501e-01
 c11bf                                  6      0.0000       0.00000       A     3.31461e-01     4.12764e-01
 c12bf                                  6      0.0000       0.00000       A     3.31487e-01     4.13443e-01
 c13bf                                  6      0.0000       0.00000       A     3.31465e-01     4.11762e-01
 br14bf                                35      0.0000       0.00000       A     3.61379e-01     1.65034e+00
 o15bf                                  8      0.0000       0.00000       A     3.15911e-01     3.03161e-01
 c16bf                                  6      0.0000       0.00000       A     3.39643e-01     4.49664e-01
 c17bf                                  6      0.0000       0.00000       A     3.31634e-01     4.10394e-01
 o18bf                                  8      0.0000       0.00000       A     3.04741e-01     6.09601e-01
 o19bf                                  8      0.0000       0.00000       A     3.04741e-01     6.09601e-01
 n20bf                                  7      0.0000       0.00000       A     3.27689e-01     6.48513e-01
 h21bf                                  1      0.0000       0.00000       A     2.62337e-01     6.77707e-02
 h22bf                                  1      0.0000       0.00000       A     2.62471e-01     6.73493e-02
 h23bf                                  1      0.0000       0.00000       A     2.62530e-01     6.75680e-02
 h24bf                                  1      0.0000       0.00000       A     2.62513e-01     6.75409e-02
 h25bf                                  1      0.0000       0.00000       A     2.41481e-01     8.75971e-02
 h26bf                                  1      0.0000       0.00000       A     2.41481e-01     8.75971e-02
 h27bf                                  1      0.0000       0.00000       A     1.10895e-01     4.20628e-02
 h28bf                                  1      0.0000       0.00000       A     2.41979e-01     8.66107e-02
 c29bf                                  6      0.0000       0.00000       A     3.39812e-01     4.49463e-01
 c30bf                                  6      0.0000       0.00000       A     3.39832e-01     4.50701e-01
 c31bf                                  6      0.0000       0.00000       A     3.39793e-01     4.50018e-01
 c32bf                                  6      0.0000       0.00000       A     3.39793e-01     4.50018e-01
 c33bf                                  6      0.0000       0.00000       A     3.39832e-01     4.50701e-01
 h34bf                                  1      0.0000       0.00000       A     2.60122e-01     8.75604e-02
 h35bf                                  1      0.0000       0.00000       A     2.60122e-01     8.75604e-02
 h36bf                                  1      0.0000       0.00000       A     2.60181e-01     8.70959e-02
 h37bf                                  1      0.0000       0.00000       A     2.60181e-01     8.70959e-02
 h38bf                                  1      0.0000       0.00000       A     2.60181e-01     8.70959e-02
 h39bf                                  1      0.0000       0.00000       A     2.60181e-01     8.70959e-02
 h40bf                                  1      0.0000       0.00000       A     2.60122e-01     8.75604e-02
 h41bf                                  1      0.0000       0.00000       A     2.60122e-01     8.75604e-02

[ moleculetype ]
;name             nrexcl
 23475                 3

[ atoms ]
;       nr            type      resi   res      atom      cgnr      charge          mass ; qtot
         1            s0bf         1   UNL        s0         1     0.19677       32.0670 ; qtot    0.197
         2            c1bf         1   UNL        c1         2    -0.26026       12.0110 ; qtot   -0.063
         3            c2bf         1   UNL        c2         3     0.11437       12.0110 ; qtot    0.051
         4            c3bf         1   UNL        c3         4    -0.05837       12.0110 ; qtot   -0.007
         5            c4bf         1   UNL        c4         5    -0.16786       12.0110 ; qtot   -0.175
         6            c5bf         1   UNL        c5         6     0.72713       12.0110 ; qtot    0.552
         7            o6bf         1   UNL        o6         7    -0.72308       15.9990 ; qtot   -0.171
         8            o7bf         1   UNL        o7         8    -0.72308       15.9990 ; qtot   -0.894
         9            c8bf         1   UNL        c8         9     0.01412       12.0110 ; qtot   -0.880
        10            c9bf         1   UNL        c9        10    -0.15633       12.0110 ; qtot   -1.037
        11           c10bf         1   UNL       c10        11     0.29991       12.0110 ; qtot   -0.737
        12           c11bf         1   UNL       c11        12    -0.17327       12.0110 ; qtot   -0.910
        13           c12bf         1   UNL       c12        13    -0.07705       12.0110 ; qtot   -0.987
        14           c13bf         1   UNL       c13        14    -0.11639       12.0110 ; qtot   -1.103
        15          br14bf         1   UNL      br14        15    -0.08621       79.9040 ; qtot   -1.190
        16           o15bf         1   UNL       o15        16    -0.35606       15.9990 ; qtot   -1.546
        17           c16bf         1   UNL       c16        17    -0.01490       12.0110 ; qtot   -1.561
        18           c17bf         1   UNL       c17        18     0.70991       12.0110 ; qtot   -0.851
        19           o18bf         1   UNL       o18        19    -0.73348       15.9990 ; qtot   -1.584
        20           o19bf         1   UNL       o19        20    -0.73348       15.9990 ; qtot   -2.318
        21           n20bf         1   UNL       n20        21    -0.93291       14.0070 ; qtot   -3.251
        22           h21bf         1   UNL       h21        22     0.11936        1.0080 ; qtot   -3.131
        23           h22bf         1   UNL       h22        23     0.11677        1.0080 ; qtot   -3.014
        24           h23bf         1   UNL       h23        24     0.11523        1.0080 ; qtot   -2.899
        25           h24bf         1   UNL       h24        25     0.12297        1.0080 ; qtot   -2.776
        26           h25bf         1   UNL       h25        26     0.02487        1.0080 ; qtot   -2.751
        27           h26bf         1   UNL       h26        27     0.02487        1.0080 ; qtot   -2.726
        28           h27bf         1   UNL       h27        28     0.44988        1.0080 ; qtot   -2.277
        29           h28bf         1   UNL       h28        29     0.05685        1.0080 ; qtot   -2.220
        30           c29bf         1   UNL       c29        30     0.19867       12.0110 ; qtot   -2.021
        31           c30bf         1   UNL       c30        31    -0.09736       12.0110 ; qtot   -2.118
        32           c31bf         1   UNL       c31        32    -0.07930       12.0110 ; qtot   -2.198
        33           c32bf         1   UNL       c32        33    -0.07930       12.0110 ; qtot   -2.277
        34           c33bf         1   UNL       c33        34    -0.09736       12.0110 ; qtot   -2.374
        35           h34bf         1   UNL       h34        35     0.05065        1.0080 ; qtot   -2.324
        36           h35bf         1   UNL       h35        36     0.05065        1.0080 ; qtot   -2.273
        37           h36bf         1   UNL       h36        37     0.04295        1.0080 ; qtot   -2.230
        38           h37bf         1   UNL       h37        38     0.04295        1.0080 ; qtot   -2.187
        39           h38bf         1   UNL       h38        39     0.04295        1.0080 ; qtot   -2.144
        40           h39bf         1   UNL       h39        40     0.04295        1.0080 ; qtot   -2.101
        41           h40bf         1   UNL       h40        41     0.05065        1.0080 ; qtot   -2.051
        42           h41bf         1   UNL       h41        42     0.05062        1.0080 ; qtot   -2.000

[ bonds ]
;       ai        aj funct               r               k
         1         2     1        0.174464   145572.874683
         1         5     1        0.175012   149020.499365
         2         3     1        0.138277   335024.121436
         2         6     1        0.154034   112597.124561
         3         4     1        0.143994   223875.334033
         3        16     1        0.134833   300010.369531
         4         5     1        0.138169   338414.734521
         4        15     1        0.190996   130541.361816
         5         9     1        0.147085   228739.668164
         6         7     1        0.125984   484107.493164
         6         8     1        0.125984   484107.493164
         9        10     1        0.140388   291090.231689
         9        14     1        0.140539   288054.763184
        10        11     1        0.140726   280459.975781
        10        22     1        0.108449   320661.846826
        11        12     1        0.140972   276770.399756
        11        21     1        0.139431   279789.856494
        12        13     1        0.139570   317407.601904
        12        23     1        0.108558   319309.324902
        13        14     1        0.139558   315977.064111
        13        24     1        0.108656   318209.722510
        14        25     1        0.108491   321875.217041
        16        17     1        0.145852   151865.231201
        17        18     1        0.156538   116742.448608
        17        26     1        0.109566   293138.384473
        17        27     1        0.109566   293138.384473
        18        19     1        0.126057   487285.433203
        18        20     1        0.126057   487285.433203
        21        28     1        0.101308   409897.291748
        21        30     1        0.146259   198648.947437
        29        30     1        0.109553   294777.228467
        30        31     1        0.154438   160153.248975
        30        34     1        0.154438   160153.248975
        31        32     1        0.154546   165919.375049
        31        35     1        0.109417   301810.480371
        31        36     1        0.109417   301810.480371
        32        33     1        0.155244   158800.637671
        32        37     1        0.109401   302336.749121
        32        38     1        0.109401   302336.749121
        33        34     1        0.154546   165919.400586
        33        39     1        0.109401   302336.749121
        33        40     1        0.109401   302336.749121
        34        41     1        0.109417   301810.480371
        34        42     1        0.109417   301810.480371

[ angles ]
;       ai        aj        ak funct           theta             cth
         1         2         3     1      110.160385      167.360000
         1         2         6     1      115.033363      592.691984
         1         5         4     1      108.982101      167.360000
         1         5         9     1      120.223495      422.353815
         2         1         5     1       93.195396      186.526063
         2         3         4     1      112.155884      382.616764
         2         3        16     1      126.134293      420.691381
         2         6         7     1      114.627625      339.029323
         2         6         8     1      114.627625      339.029323
         3         2         6     1      134.051437      467.327122
         3         4         5     1      114.634010      370.337213
         3         4        15     1      121.312027      306.426064
         3        16        17     1      117.821022      473.127047
         4         3        16     1      120.298485      422.691671
         4         5         9     1      130.790314      405.078503
         5         4        15     1      123.746353      284.291870
         5         9        10     1      119.995987      400.826830
         5         9        14     1      120.682617      464.469201
         7         6         8     1      130.398407      705.552920
         9        10        11     1      121.216331      752.898019
         9        10        22     1      119.054039      431.937924
         9        14        13     1      119.572449      679.851735
         9        14        25     1      119.948502      443.045545
        10         9        14     1      119.379539      623.332685
        10        11        12     1      118.441086      641.982692
        10        11        21     1      120.471634      520.917959
        11        10        22     1      119.611572      426.198714
        11        12        13     1      120.104813      766.074273
        11        12        23     1      120.117470      430.131557
        11        21        28     1      112.874863      498.617232
        11        21        30     1      122.441002      485.285680
        12        11        21     1      121.107300      581.745056
        12        13        14     1      121.045303      692.016528
        12        13        24     1      119.201843      431.142092
        13        12        23     1      119.832947      428.071254
        13        14        25     1      120.308998      426.914902
        14        13        24     1      119.639511      436.883568
        16        17        18     1      113.930588      533.838045
        16        17        26     1      107.778183      447.857886
        16        17        27     1      107.778183      447.857886
        17        18        19     1      114.982224      326.587708
        17        18        20     1      114.982224      326.587708
        18        17        26     1      109.132095      476.479910
        18        17        27     1      109.132095      476.479910
        19        18        20     1      130.064850      720.626454
        21        30        29     1      108.003296      481.081250
        21        30        31     1      112.732590      565.438398
        21        30        34     1      112.732590      565.438398
        26        17        27     1      108.416725      344.620386
        28        21        30     1      113.108849      472.168033
        29        30        31     1      109.973610      451.337413
        29        30        34     1      109.973610      451.337413
        30        31        32     1      104.848167      481.950693
        30        31        35     1      110.485497      492.576173
        30        31        36     1      110.485497      492.576173
        30        34        33     1      104.848167      481.950693
        30        34        41     1      110.485497      492.576109
        30        34        42     1      110.485497      492.576109
        31        30        34     1      103.211525      419.332488
        31        32        33     1      105.162247      494.068307
        31        32        37     1      111.091736      477.780100
        31        32        38     1      111.091736      477.780100
        32        31        35     1      111.732712      467.126688
        32        31        36     1      111.732712      467.126688
        32        33        34     1      105.162247      494.068307
        32        33        39     1      111.260696      462.287214
        32        33        40     1      111.260696      462.287214
        33        32        37     1      111.260696      462.287214
        33        32        38     1      111.260696      462.287214
        33        34        41     1      111.732712      467.126688
        33        34        42     1      111.732712      467.126688
        34        33        39     1      111.091721      477.780100
        34        33        40     1      111.091721      477.780100
        35        31        36     1      107.292763      360.310067
        37        32        38     1      106.971153      360.123997
        39        33        40     1      106.971153      360.124029
        41        34        42     1      107.292763      360.310099

[ dihedrals ] ; propers for gromacs 4.5 or higher, use funct 9
;       ai        aj        ak        al funct           phase               k        pn
         1         2         3         4     9        0.000000       -0.157449         1
         1         2         3         4     9      180.000000       23.193074         2
         1         2         3         4     9        0.000000       -4.968979         3
         1         2         3         4     9      180.000000       -0.609654         4
         1         2         3        16     9        0.000000        0.970784         1
         1         2         3        16     9      180.000000       21.885524         2
         1         2         3        16     9        0.000000        0.406670         3
         1         2         3        16     9      180.000000       -1.347848         4
         1         2         6         7     9        0.000000        1.117411         1
         1         2         6         7     9      180.000000        4.117929         2
         1         2         6         7     9        0.000000        0.067199         3
         1         2         6         7     9      180.000000        0.180393         4
         1         2         6         8     9        0.000000        1.117411         1
         1         2         6         8     9      180.000000        4.117929         2
         1         2         6         8     9        0.000000        0.067199         3
         1         2         6         8     9      180.000000        0.180393         4
         1         5         4         3     9        0.000000       -0.306829         1
         1         5         4         3     9      180.000000       24.522085         2
         1         5         4         3     9        0.000000       -5.964297         3
         1         5         4         3     9      180.000000       -0.599844         4
         1         5         4        15     9        0.000000        0.499553         1
         1         5         4        15     9      180.000000       17.380840         2
         1         5         4        15     9        0.000000        0.197540         3
         1         5         4        15     9      180.000000       -1.066303         4
         1         5         9        10     9        0.000000       -0.421397         1
         1         5         9        10     9      180.000000        3.268375         2
         1         5         9        10     9        0.000000       -0.036997         3
         1         5         9        10     9      180.000000        0.313414         4
         1         5         9        14     9        0.000000       -0.230281         1
         1         5         9        14     9      180.000000        3.130593         2
         1         5         9        14     9        0.000000        0.165733         3
         1         5         9        14     9      180.000000        0.213054         4
         2         1         5         4     9        0.000000       -0.388546         1
         2         1         5         4     9      180.000000       24.242164         2
         2         1         5         4     9        0.000000       -5.021316         3
         2         1         5         4     9      180.000000       -0.471890         4
         2         1         5         9     9        0.000000       -0.203926         1
         2         1         5         9     9      180.000000       15.233131         2
         2         1         5         9     9        0.000000        0.250332         3
         2         1         5         9     9      180.000000       -0.605051         4
         2         3         4         5     9        0.000000       -0.251748         1
         2         3         4         5     9      180.000000       14.214229         2
         2         3         4         5     9        0.000000       -2.698729         3
         2         3         4         5     9      180.000000       -0.310431         4
         2         3         4        15     9        0.000000        0.248323         1
         2         3         4        15     9      180.000000       11.562275         2
         2         3         4        15     9        0.000000        0.148422         3
         2         3         4        15     9      180.000000       -0.630060         4
         2         3        16        17     9        0.000000        0.701674         1
         2         3        16        17     9      180.000000        2.973538         2
         2         3        16        17     9        0.000000        0.307642         3
         2         3        16        17     9      180.000000       -0.218272         4
         3         2         1         5     9        0.000000       -0.083281         1
         3         2         1         5     9      180.000000       22.870917         2
         3         2         1         5     9        0.000000       -3.551991         3
         3         2         1         5     9      180.000000       -0.695859         4
         3         2         6         7     9        0.000000       -5.137617         1
         3         2         6         7     9      180.000000        2.933940         2
         3         2         6         7     9        0.000000        0.193554         3
         3         2         6         7     9      180.000000       -0.187922         4
         3         2         6         8     9        0.000000       -5.137617         1
         3         2         6         8     9      180.000000        2.933940         2
         3         2         6         8     9        0.000000        0.193554         3
         3         2         6         8     9      180.000000       -0.187922         4
         3         4         5         9     9        0.000000        0.189951         1
         3         4         5         9     9      180.000000       16.326436         2
         3         4         5         9     9        0.000000       -0.403522         3
         3         4         5         9     9      180.000000       -1.039436         4
         3        16        17        18     9        0.000000       -4.760844         1
         3        16        17        18     9      180.000000       -1.857167         2
         3        16        17        18     9        0.000000        0.352751         3
         3        16        17        18     9      180.000000        0.004621         4
         3        16        17        26     9        0.000000       -0.294822         1
         3        16        17        26     9      180.000000       -0.281191         2
         3        16        17        26     9        0.000000        0.570610         3
         3        16        17        26     9      180.000000        0.007077         4
         3        16        17        27     9        0.000000       -0.294822         1
         3        16        17        27     9      180.000000       -0.281191         2
         3        16        17        27     9        0.000000        0.570610         3
         3        16        17        27     9      180.000000        0.007077         4
         4         3         2         6     9        0.000000       -0.190053         1
         4         3         2         6     9      180.000000       11.755029         2
         4         3         2         6     9        0.000000       -0.719247         3
         4         3         2         6     9      180.000000       -0.502059         4
         4         3        16        17     9        0.000000        2.857399         1
         4         3        16        17     9      180.000000        2.426502         2
         4         3        16        17     9        0.000000        0.581872         3
         4         3        16        17     9      180.000000       -0.192707         4
         4         5         9        10     9        0.000000       -0.360234         1
         4         5         9        10     9      180.000000        2.284981         2
         4         5         9        10     9        0.000000       -0.068583         3
         4         5         9        10     9      180.000000        0.026202         4
         4         5         9        14     9        0.000000        0.328319         1
         4         5         9        14     9      180.000000        2.101784         2
         4         5         9        14     9        0.000000       -0.053147         3
         4         5         9        14     9      180.000000        0.034967         4
         5         1         2         6     9        0.000000        0.985272         1
         5         1         2         6     9      180.000000       10.250466         2
         5         1         2         6     9        0.000000       -0.288305         3
         5         1         2         6     9      180.000000        0.044596         4
         5         4         3        16     9        0.000000        0.518482         1
         5         4         3        16     9      180.000000       12.721722         2
         5         4         3        16     9        0.000000        0.352406         3
         5         4         3        16     9      180.000000       -0.184802         4
         5         9        10        11     9        0.000000        0.390401         1
         5         9        10        11     9      180.000000       15.773139         2
         5         9        10        11     9        0.000000        0.018165         3
         5         9        10        11     9      180.000000       -0.388762         4
         5         9        10        22     9        0.000000        0.048296         1
         5         9        10        22     9      180.000000       13.061306         2
         5         9        10        22     9        0.000000       -0.171611         3
         5         9        10        22     9      180.000000        0.167911         4
         5         9        14        13     9        0.000000        0.323275         1
         5         9        14        13     9      180.000000       16.549281         2
         5         9        14        13     9        0.000000       -0.191519         3
         5         9        14        13     9      180.000000       -0.363737         4
         5         9        14        25     9        0.000000        0.094684         1
         5         9        14        25     9      180.000000       12.925007         2
         5         9        14        25     9        0.000000       -0.240050         3
         5         9        14        25     9      180.000000        0.177142         4
         6         2         3        16     9        0.000000        0.216703         1
         6         2         3        16     9      180.000000       15.170354         2
         6         2         3        16     9        0.000000        0.500829         3
         6         2         3        16     9      180.000000       -0.921398         4
         9         5         4        15     9        0.000000        0.444660         1
         9         5         4        15     9      180.000000       13.002694         2
         9         5         4        15     9        0.000000        0.563279         3
         9         5         4        15     9      180.000000       -0.483855         4
         9        10        11        12     9        0.000000        0.061259         1
         9        10        11        12     9      180.000000       15.488372         2
         9        10        11        12     9        0.000000       -0.833451         3
         9        10        11        12     9      180.000000       -0.185560         4
         9        10        11        21     9        0.000000        0.263383         1
         9        10        11        21     9      180.000000       17.186902         2
         9        10        11        21     9        0.000000        0.215065         3
         9        10        11        21     9      180.000000       -0.416765         4
         9        14        13        12     9        0.000000        0.008861         1
         9        14        13        12     9      180.000000       19.180019         2
         9        14        13        12     9        0.000000       -1.595024         3
         9        14        13        12     9      180.000000       -0.448202         4
         9        14        13        24     9        0.000000       -0.030979         1
         9        14        13        24     9      180.000000       15.023359         2
         9        14        13        24     9        0.000000       -0.524974         3
         9        14        13        24     9      180.000000        0.057419         4
        10         9        14        13     9        0.000000       -0.114589         1
        10         9        14        13     9      180.000000       17.911477         2
        10         9        14        13     9        0.000000       -1.435220         3
        10         9        14        13     9      180.000000       -0.287804         4
        10         9        14        25     9        0.000000       -0.042837         1
        10         9        14        25     9      180.000000       13.601585         2
        10         9        14        25     9        0.000000       -0.502932         3
        10         9        14        25     9      180.000000        0.137910         4
        10        11        12        13     9        0.000000        0.095611         1
        10        11        12        13     9      180.000000       15.408169         2
        10        11        12        13     9        0.000000       -0.749849         3
        10        11        12        13     9      180.000000       -0.153447         4
        10        11        12        23     9        0.000000        0.139541         1
        10        11        12        23     9      180.000000       12.242304         2
        10        11        12        23     9        0.000000       -0.282616         3
        10        11        12        23     9      180.000000        0.142460         4
        10        11        21        28     9        0.000000        0.480206         1
        10        11        21        28     9      180.000000        5.393789         2
        10        11        21        28     9        0.000000       -0.011094         3
        10        11        21        28     9      180.000000       -0.387325         4
        10        11        21        30     9        0.000000       -0.135062         1
        10        11        21        30     9      180.000000        4.467344         2
        10        11        21        30     9        0.000000        0.266071         3
        10        11        21        30     9      180.000000        0.052358         4
        11        10         9        14     9        0.000000       -0.194692         1
        11        10         9        14     9      180.000000       17.816112         2
        11        10         9        14     9        0.000000       -1.592320         3
        11        10         9        14     9      180.000000       -0.421956         4
        11        12        13        14     9        0.000000       -0.023947         1
        11        12        13        14     9      180.000000       18.037607         2
        11        12        13        14     9        0.000000       -1.598472         3
        11        12        13        14     9      180.000000       -0.425006         4
        11        12        13        24     9        0.000000        0.022451         1
        11        12        13        24     9      180.000000       14.249675         2
        11        12        13        24     9        0.000000       -0.580307         3
        11        12        13        24     9      180.000000        0.065935         4
        11        21        30        29     9        0.000000       -1.083753         1
        11        21        30        29     9      180.000000       -0.203087         2
        11        21        30        29     9        0.000000        1.423032         3
        11        21        30        29     9      180.000000       -0.109320         4
        11        21        30        31     9        0.000000        0.852396         1
        11        21        30        31     9      180.000000        0.063358         2
        11        21        30        31     9        0.000000        1.010769         3
        11        21        30        31     9      180.000000        0.079187         4
        11        21        30        34     9        0.000000        0.852395         1
        11        21        30        34     9      180.000000        0.063357         2
        11        21        30        34     9        0.000000        1.010769         3
        11        21        30        34     9      180.000000        0.079187         4
        12        11        10        22     9        0.000000        0.124598         1
        12        11        10        22     9      180.000000       12.256011         2
        12        11        10        22     9        0.000000       -0.318014         3
        12        11        10        22     9      180.000000        0.194688         4
        12        11        21        28     9        0.000000        0.024804         1
        12        11        21        28     9      180.000000        5.414653         2
        12        11        21        28     9        0.000000        0.041833         3
        12        11        21        28     9      180.000000       -0.401550         4
        12        11        21        30     9        0.000000        0.105588         1
        12        11        21        30     9      180.000000        4.430933         2
        12        11        21        30     9        0.000000        0.431246         3
        12        11        21        30     9      180.000000       -0.013989         4
        12        13        14        25     9        0.000000        0.056554         1
        12        13        14        25     9      180.000000       14.518035         2
        12        13        14        25     9        0.000000       -0.716573         3
        12        13        14        25     9      180.000000        0.160059         4
        13        12        11        21     9        0.000000        0.268370         1
        13        12        11        21     9      180.000000       16.903318         2
        13        12        11        21     9        0.000000        0.140644         3
        13        12        11        21     9      180.000000       -0.183457         4
        14         9        10        22     9        0.000000        0.075552         1
        14         9        10        22     9      180.000000       13.465688         2
        14         9        10        22     9        0.000000       -0.452280         3
        14         9        10        22     9      180.000000        0.147503         4
        14        13        12        23     9        0.000000        0.105180         1
        14        13        12        23     9      180.000000       14.124133         2
        14        13        12        23     9        0.000000       -0.629787         3
        14        13        12        23     9      180.000000        0.160178         4
        15         4         3        16     9        0.000000       -0.153280         1
        15         4         3        16     9      180.000000       12.598060         2
        15         4         3        16     9        0.000000        0.466981         3
        15         4         3        16     9      180.000000       -0.523506         4
        16        17        18        19     9        0.000000       -1.573021         1
        16        17        18        19     9      180.000000        4.124889         2
        16        17        18        19     9        0.000000        0.247417         3
        16        17        18        19     9      180.000000        0.125480         4
        16        17        18        20     9        0.000000       -1.573021         1
        16        17        18        20     9      180.000000        4.124889         2
        16        17        18        20     9        0.000000        0.247417         3
        16        17        18        20     9      180.000000        0.125480         4
        19        18        17        26     9        0.000000        0.050675         1
        19        18        17        26     9      180.000000       -0.380925         2
        19        18        17        26     9        0.000000        0.149856         3
        19        18        17        26     9      180.000000        0.058403         4
        19        18        17        27     9        0.000000        0.050675         1
        19        18        17        27     9      180.000000       -0.380925         2
        19        18        17        27     9        0.000000        0.149856         3
        19        18        17        27     9      180.000000        0.058403         4
        20        18        17        26     9        0.000000        0.050675         1
        20        18        17        26     9      180.000000       -0.380925         2
        20        18        17        26     9        0.000000        0.149856         3
        20        18        17        26     9      180.000000        0.058403         4
        20        18        17        27     9        0.000000        0.050675         1
        20        18        17        27     9      180.000000       -0.380925         2
        20        18        17        27     9        0.000000        0.149856         3
        20        18        17        27     9      180.000000        0.058403         4
        21        11        10        22     9        0.000000       -0.217672         1
        21        11        10        22     9      180.000000       14.138032         2
        21        11        10        22     9        0.000000       -0.007460         3
        21        11        10        22     9      180.000000        0.267264         4
        21        11        12        23     9        0.000000       -0.297241         1
        21        11        12        23     9      180.000000       13.834029         2
        21        11        12        23     9        0.000000       -0.068039         3
        21        11        12        23     9      180.000000        0.264565         4
        21        30        31        32     9        0.000000        0.239769         1
        21        30        31        32     9      180.000000       -0.401990         2
        21        30        31        32     9        0.000000        0.343929         3
        21        30        31        32     9      180.000000        0.056270         4
        21        30        31        35     9        0.000000        0.079783         1
        21        30        31        35     9      180.000000        0.052307         2
        21        30        31        35     9        0.000000        0.457721         3
        21        30        31        35     9      180.000000        0.002594         4
        21        30        31        36     9        0.000000        0.079783         1
        21        30        31        36     9      180.000000        0.052307         2
        21        30        31        36     9        0.000000        0.457721         3
        21        30        31        36     9      180.000000        0.002594         4
        21        30        34        33     9        0.000000        0.239768         1
        21        30        34        33     9      180.000000       -0.401990         2
        21        30        34        33     9        0.000000        0.343929         3
        21        30        34        33     9      180.000000        0.056270         4
        21        30        34        41     9        0.000000        0.079784         1
        21        30        34        41     9      180.000000        0.052308         2
        21        30        34        41     9        0.000000        0.457721         3
        21        30        34        41     9      180.000000        0.002594         4
        21        30        34        42     9        0.000000        0.079784         1
        21        30        34        42     9      180.000000        0.052308         2
        21        30        34        42     9        0.000000        0.457721         3
        21        30        34        42     9      180.000000        0.002594         4
        23        12        13        24     9        0.000000       -0.146091         1
        23        12        13        24     9      180.000000       11.607670         2
        23        12        13        24     9        0.000000       -0.524493         3
        23        12        13        24     9      180.000000        0.238273         4
        24        13        14        25     9        0.000000       -0.191740         1
        24        13        14        25     9      180.000000       11.911895         2
        24        13        14        25     9        0.000000       -0.632504         3
        24        13        14        25     9      180.000000        0.291212         4
        28        21        30        29     9        0.000000       -1.067453         1
        28        21        30        29     9      180.000000       -0.944080         2
        28        21        30        29     9        0.000000       -0.082933         3
        28        21        30        29     9      180.000000       -0.012829         4
        28        21        30        31     9        0.000000        1.268054         1
        28        21        30        31     9      180.000000       -0.308611         2
        28        21        30        31     9        0.000000       -0.111432         3
        28        21        30        31     9      180.000000        0.020242         4
        28        21        30        34     9        0.000000        1.268053         1
        28        21        30        34     9      180.000000       -0.308612         2
        28        21        30        34     9        0.000000       -0.111432         3
        28        21        30        34     9      180.000000        0.020242         4
        29        30        31        32     9        0.000000        0.133821         1
        29        30        31        32     9      180.000000        0.028193         2
        29        30        31        32     9        0.000000        0.225423         3
        29        30        31        32     9      180.000000        0.057564         4
        29        30        31        35     9        0.000000       -0.050015         1
        29        30        31        35     9      180.000000       -0.027453         2
        29        30        31        35     9        0.000000        0.364729         3
        29        30        31        35     9      180.000000       -0.039345         4
        29        30        31        36     9        0.000000       -0.050015         1
        29        30        31        36     9      180.000000       -0.027453         2
        29        30        31        36     9        0.000000        0.364729         3
        29        30        31        36     9      180.000000       -0.039345         4
        29        30        34        33     9        0.000000        0.133821         1
        29        30        34        33     9      180.000000        0.028192         2
        29        30        34        33     9        0.000000        0.225423         3
        29        30        34        33     9      180.000000        0.057564         4
        29        30        34        41     9        0.000000       -0.050014         1
        29        30        34        41     9      180.000000       -0.027454         2
        29        30        34        41     9        0.000000        0.364729         3
        29        30        34        41     9      180.000000       -0.039344         4
        29        30        34        42     9        0.000000       -0.050014         1
        29        30        34        42     9      180.000000       -0.027454         2
        29        30        34        42     9        0.000000        0.364729         3
        29        30        34        42     9      180.000000       -0.039344         4
        30        31        32        33     9        0.000000       -0.070616         1
        30        31        32        33     9      180.000000       -0.118694         2
        30        31        32        33     9        0.000000        0.130414         3
        30        31        32        33     9      180.000000       -0.507152         4
        30        31        32        37     9        0.000000       -0.007443         1
        30        31        32        37     9      180.000000        0.024797         2
        30        31        32        37     9        0.000000        0.119008         3
        30        31        32        37     9      180.000000        0.026570         4
        30        31        32        38     9        0.000000       -0.007443         1
        30        31        32        38     9      180.000000        0.024797         2
        30        31        32        38     9        0.000000        0.119008         3
        30        31        32        38     9      180.000000        0.026570         4
        30        34        33        32     9        0.000000       -0.070616         1
        30        34        33        32     9      180.000000       -0.118694         2
        30        34        33        32     9        0.000000        0.130414         3
        30        34        33        32     9      180.000000       -0.507151         4
        30        34        33        39     9        0.000000       -0.007444         1
        30        34        33        39     9      180.000000        0.024797         2
        30        34        33        39     9        0.000000        0.119009         3
        30        34        33        39     9      180.000000        0.026570         4
        30        34        33        40     9        0.000000       -0.007444         1
        30        34        33        40     9      180.000000        0.024797         2
        30        34        33        40     9        0.000000        0.119009         3
        30        34        33        40     9      180.000000        0.026570         4
        31        30        34        33     9        0.000000       -0.340220         1
        31        30        34        33     9      180.000000        1.912704         2
        31        30        34        33     9        0.000000       -0.060174         3
        31        30        34        33     9      180.000000       -1.207731         4
        31        30        34        41     9        0.000000        0.007697         1
        31        30        34        41     9      180.000000        0.016705         2
        31        30        34        41     9        0.000000        0.111608         3
        31        30        34        41     9      180.000000        0.055109         4
        31        30        34        42     9        0.000000        0.007697         1
        31        30        34        42     9      180.000000        0.016705         2
        31        30        34        42     9        0.000000        0.111608         3
        31        30        34        42     9      180.000000        0.055109         4
        31        32        33        34     9        0.000000        0.324862         1
        31        32        33        34     9      180.000000       -0.748924         2
        31        32        33        34     9        0.000000        0.366957         3
        31        32        33        34     9      180.000000       -0.249867         4
        31        32        33        39     9        0.000000       -0.028925         1
        31        32        33        39     9      180.000000        0.007929         2
        31        32        33        39     9        0.000000        0.241202         3
        31        32        33        39     9      180.000000        0.013612         4
        31        32        33        40     9        0.000000       -0.028925         1
        31        32        33        40     9      180.000000        0.007929         2
        31        32        33        40     9        0.000000        0.241202         3
        31        32        33        40     9      180.000000        0.013612         4
        32        31        30        34     9        0.000000       -0.340221         1
        32        31        30        34     9      180.000000        1.912704         2
        32        31        30        34     9        0.000000       -0.060174         3
        32        31        30        34     9      180.000000       -1.207731         4
        32        33        34        41     9        0.000000       -0.016701         1
        32        33        34        41     9      180.000000        0.007050         2
        32        33        34        41     9        0.000000        0.135993         3
        32        33        34        41     9      180.000000        0.051450         4
        32        33        34        42     9        0.000000       -0.016701         1
        32        33        34        42     9      180.000000        0.007050         2
        32        33        34        42     9        0.000000        0.135993         3
        32        33        34        42     9      180.000000        0.051450         4
        33        32        31        35     9        0.000000       -0.016701         1
        33        32        31        35     9      180.000000        0.007051         2
        33        32        31        35     9        0.000000        0.135993         3
        33        32        31        35     9      180.000000        0.051450         4
        33        32        31        36     9        0.000000       -0.016701         1
        33        32        31        36     9      180.000000        0.007051         2
        33        32        31        36     9        0.000000        0.135993         3
        33        32        31        36     9      180.000000        0.051450         4
        34        30        31        35     9        0.000000        0.007696         1
        34        30        31        35     9      180.000000        0.016705         2
        34        30        31        35     9        0.000000        0.111608         3
        34        30        31        35     9      180.000000        0.055109         4
        34        30        31        36     9        0.000000        0.007696         1
        34        30        31        36     9      180.000000        0.016705         2
        34        30        31        36     9        0.000000        0.111608         3
        34        30        31        36     9      180.000000        0.055109         4
        34        33        32        37     9        0.000000       -0.028926         1
        34        33        32        37     9      180.000000        0.007929         2
        34        33        32        37     9        0.000000        0.241202         3
        34        33        32        37     9      180.000000        0.013612         4
        34        33        32        38     9        0.000000       -0.028926         1
        34        33        32        38     9      180.000000        0.007929         2
        34        33        32        38     9        0.000000        0.241202         3
        34        33        32        38     9      180.000000        0.013612         4
        35        31        32        37     9        0.000000       -0.007369         1
        35        31        32        37     9      180.000000        0.005093         2
        35        31        32        37     9        0.000000        0.309796         3
        35        31        32        37     9      180.000000       -0.021775         4
        35        31        32        38     9        0.000000       -0.007369         1
        35        31        32        38     9      180.000000        0.005093         2
        35        31        32        38     9        0.000000        0.309796         3
        35        31        32        38     9      180.000000       -0.021775         4
        36        31        32        37     9        0.000000       -0.007369         1
        36        31        32        37     9      180.000000        0.005093         2
        36        31        32        37     9        0.000000        0.309796         3
        36        31        32        37     9      180.000000       -0.021775         4
        36        31        32        38     9        0.000000       -0.007369         1
        36        31        32        38     9      180.000000        0.005093         2
        36        31        32        38     9        0.000000        0.309796         3
        36        31        32        38     9      180.000000       -0.021775         4
        37        32        33        39     9        0.000000       -0.027850         1
        37        32        33        39     9      180.000000        0.013318         2
        37        32        33        39     9        0.000000        0.337845         3
        37        32        33        39     9      180.000000       -0.013829         4
        37        32        33        40     9        0.000000       -0.027850         1
        37        32        33        40     9      180.000000        0.013318         2
        37        32        33        40     9        0.000000        0.337845         3
        37        32        33        40     9      180.000000       -0.013829         4
        38        32        33        39     9        0.000000       -0.027850         1
        38        32        33        39     9      180.000000        0.013318         2
        38        32        33        39     9        0.000000        0.337845         3
        38        32        33        39     9      180.000000       -0.013829         4
        38        32        33        40     9        0.000000       -0.027850         1
        38        32        33        40     9      180.000000        0.013318         2
        38        32        33        40     9        0.000000        0.337845         3
        38        32        33        40     9      180.000000       -0.013829         4
        39        33        34        41     9        0.000000       -0.007368         1
        39        33        34        41     9      180.000000        0.005092         2
        39        33        34        41     9        0.000000        0.309796         3
        39        33        34        41     9      180.000000       -0.021775         4
        39        33        34        42     9        0.000000       -0.007368         1
        39        33        34        42     9      180.000000        0.005092         2
        39        33        34        42     9        0.000000        0.309796         3
        39        33        34        42     9      180.000000       -0.021775         4
        40        33        34        41     9        0.000000       -0.007368         1
        40        33        34        41     9      180.000000        0.005092         2
        40        33        34        41     9        0.000000        0.309796         3
        40        33        34        41     9      180.000000       -0.021775         4
        40        33        34        42     9        0.000000       -0.007368         1
        40        33        34        42     9      180.000000        0.005092         2
        40        33        34        42     9        0.000000        0.309796         3
        40        33        34        42     9      180.000000       -0.021775         4

[ dihedrals ] ; impropers
;       ai        aj        ak        al funct           phase               k        pn
         6         2         7         8     4      180.000000       27.893333         2
         6         7         8         2     4      180.000000       27.893333         2
         6         8         2         7     4      180.000000       27.893333         2
        18        17        19        20     4      180.000000       27.893333         2
        18        19        20        17     4      180.000000       27.893333         2
        18        20        17        19     4      180.000000       27.893333         2

[ pairs ]
;       ai        aj funct
         1         7     1
         1         8     1
         1        10     1
         1        14     1
         1        15     1
         1        16     1
         2         9     1
         2        15     1
         2        17     1
         3         7     1
         3         8     1
         3         9     1
         3        18     1
         3        26     1
         3        27     1
         4         6     1
         4        10     1
         4        14     1
         4        17     1
         5         6     1
         5        11     1
         5        13     1
         5        16     1
         5        22     1
         5        25     1
         6        16     1
         9        12     1
         9        15     1
         9        21     1
         9        24     1
        10        13     1
        10        23     1
        10        25     1
        10        28     1
        10        30     1
        11        14     1
        11        24     1
        11        29     1
        11        31     1
        11        34     1
        12        22     1
        12        25     1
        12        28     1
        12        30     1
        13        21     1
        14        22     1
        14        23     1
        15        16     1
        16        19     1
        16        20     1
        19        26     1
        19        27     1
        20        26     1
        20        27     1
        21        22     1
        21        23     1
        21        32     1
        21        33     1
        21        35     1
        21        36     1
        21        41     1
        21        42     1
        23        24     1
        24        25     1
        28        29     1
        28        31     1
        28        34     1
        29        32     1
        29        33     1
        29        35     1
        29        36     1
        29        41     1
        29        42     1
        30        37     1
        30        38     1
        30        39     1
        30        40     1
        31        39     1
        31        40     1
        31        41     1
        31        42     1
        32        41     1
        32        42     1
        33        35     1
        33        36     1
        34        35     1
        34        36     1
        34        37     1
        34        38     1
        35        37     1
        35        38     1
        36        37     1
        36        38     1
        37        39     1
        37        40     1
        38        39     1
        38        40     1
        39        41     1
        39        42     1
        40        41     1
        40        42     1
