; ITP file created by ByteFF-ML, 2026-02-21 08:23:32.641525

[ atomtypes ]
;name           bonded.type        at.num        mass        charge   ptype           sigma         epsilon
 s0bf                                  16      0.0000       0.00000       A     3.53064e-01     1.17901e+00
 c1bf                                   6      0.0000       0.00000       A     3.31755e-01     4.09816e-01
 c2bf                                   6      0.0000       0.00000       A     3.31349e-01     4.08441e-01
 c3bf                                   6      0.0000       0.00000       A     3.31198e-01     4.12218e-01
 c4bf                                   6      0.0000       0.00000       A     3.31630e-01     4.13561e-01
 c5bf                                   6      0.0000       0.00000       A     3.31455e-01     4.10610e-01
 o6bf                                   8      0.0000       0.00000       A     3.05104e-01     6.09960e-01
 o7bf                                   8      0.0000       0.00000       A     3.05104e-01     6.09960e-01
 c8bf                                   6      0.0000       0.00000       A     3.31408e-01     4.09824e-01
 c9bf                                   6      0.0000       0.00000       A     3.31672e-01     4.14274e-01
 c10bf                                  6      0.0000       0.00000       A     3.31416e-01     4.11966e-01
 c11bf                                  6      0.0000       0.00000       A     3.31465e-01     4.12503e-01
 c12bf                                  6      0.0000       0.00000       A     3.31475e-01     4.13803e-01
 c13bf                                  6      0.0000       0.00000       A     3.31465e-01     4.11762e-01
 br14bf                                35      0.0000       0.00000       A     3.61379e-01     1.65034e+00
 o15bf                                  8      0.0000       0.00000       A     3.15911e-01     3.03161e-01
 c16bf                                  6      0.0000       0.00000       A     3.39643e-01     4.49664e-01
 c17bf                                  6      0.0000       0.00000       A     3.31634e-01     4.10394e-01
 o18bf                                  8      0.0000       0.00000       A     3.04741e-01     6.09601e-01
 o19bf                                  8      0.0000       0.00000       A     3.04741e-01     6.09601e-01
 n20bf                                  7      0.0000       0.00000       A     3.27229e-01     4.87725e-01
 h21bf                                  1      0.0000       0.00000       A     2.62374e-01     6.75648e-02
 h22bf                                  1      0.0000       0.00000       A     2.62571e-01     6.74818e-02
 h23bf                                  1      0.0000       0.00000       A     2.62530e-01     6.75680e-02
 h24bf                                  1      0.0000       0.00000       A     2.62513e-01     6.75409e-02
 h25bf                                  1      0.0000       0.00000       A     2.41481e-01     8.75971e-02
 h26bf                                  1      0.0000       0.00000       A     2.41481e-01     8.75971e-02
 h27bf                                  1      0.0000       0.00000       A     1.10462e-01     4.14196e-02
 c28bf                                  6      0.0000       0.00000       A     3.31363e-01     4.12169e-01
 o29bf                                  8      0.0000       0.00000       A     3.04704e-01     6.12050e-01
 n30bf                                  7      0.0000       0.00000       A     3.27197e-01     4.93342e-01
 h31bf                                  1      0.0000       0.00000       A     1.10578e-01     4.11227e-02
 c32bf                                  6      0.0000       0.00000       A     3.39777e-01     4.48275e-01
 h33bf                                  1      0.0000       0.00000       A     2.42995e-01     9.00071e-02
 c34bf                                  6      0.0000       0.00000       A     3.39821e-01     4.50894e-01
 h35bf                                  1      0.0000       0.00000       A     2.59966e-01     8.74630e-02
 h36bf                                  1      0.0000       0.00000       A     2.59966e-01     8.74630e-02
 h37bf                                  1      0.0000       0.00000       A     2.59966e-01     8.74630e-02
 c38bf                                  6      0.0000       0.00000       A     3.39821e-01     4.50894e-01
 h39bf                                  1      0.0000       0.00000       A     2.59966e-01     8.74630e-02
 h40bf                                  1      0.0000       0.00000       A     2.59966e-01     8.74630e-02
 h41bf                                  1      0.0000       0.00000       A     2.59966e-01     8.74630e-02

[ moleculetype ]
;name             nrexcl
 23470                 3

[ atoms ]
;       nr            type      resi   res      atom      cgnr      charge          mass ; qtot
         1            s0bf         1   UNL        s0         1     0.19677       32.0670 ; qtot    0.197
         2            c1bf         1   UNL        c1         2    -0.26026       12.0110 ; qtot   -0.063
         3            c2bf         1   UNL        c2         3     0.11437       12.0110 ; qtot    0.051
         4            c3bf         1   UNL        c3         4    -0.05837       12.0110 ; qtot   -0.007
         5            c4bf         1   UNL        c4         5    -0.16896       12.0110 ; qtot   -0.176
         6            c5bf         1   UNL        c5         6     0.72713       12.0110 ; qtot    0.551
         7            o6bf         1   UNL        o6         7    -0.72308       15.9990 ; qtot   -0.172
         8            o7bf         1   UNL        o7         8    -0.72308       15.9990 ; qtot   -0.895
         9            c8bf         1   UNL        c8         9     0.00923       12.0110 ; qtot   -0.886
        10            c9bf         1   UNL        c9        10    -0.13684       12.0110 ; qtot   -1.023
        11           c10bf         1   UNL       c10        11    -0.00176       12.0110 ; qtot   -1.025
        12           c11bf         1   UNL       c11        12    -0.15197       12.0110 ; qtot   -1.177
        13           c12bf         1   UNL       c12        13    -0.08352       12.0110 ; qtot   -1.260
        14           c13bf         1   UNL       c13        14    -0.10938       12.0110 ; qtot   -1.370
        15          br14bf         1   UNL      br14        15    -0.08621       79.9040 ; qtot   -1.456
        16           o15bf         1   UNL       o15        16    -0.35606       15.9990 ; qtot   -1.812
        17           c16bf         1   UNL       c16        17    -0.01490       12.0110 ; qtot   -1.827
        18           c17bf         1   UNL       c17        18     0.70991       12.0110 ; qtot   -1.117
        19           o18bf         1   UNL       o18        19    -0.73348       15.9990 ; qtot   -1.850
        20           o19bf         1   UNL       o19        20    -0.73348       15.9990 ; qtot   -2.584
        21           n20bf         1   UNL       n20        21    -0.16887       14.0070 ; qtot   -2.753
        22           h21bf         1   UNL       h21        22     0.13697        1.0080 ; qtot   -2.616
        23           h22bf         1   UNL       h22        23     0.13378        1.0080 ; qtot   -2.482
        24           h23bf         1   UNL       h23        24     0.11851        1.0080 ; qtot   -2.364
        25           h24bf         1   UNL       h24        25     0.12297        1.0080 ; qtot   -2.241
        26           h25bf         1   UNL       h25        26     0.02487        1.0080 ; qtot   -2.216
        27           h26bf         1   UNL       h26        27     0.02487        1.0080 ; qtot   -2.191
        28           h27bf         1   UNL       h27        28     0.15369        1.0080 ; qtot   -2.037
        29           c28bf         1   UNL       c28        29     0.64092       12.0110 ; qtot   -1.396
        30           o29bf         1   UNL       o29        30    -0.61105       15.9990 ; qtot   -2.007
        31           n30bf         1   UNL       n30        31    -0.50758       14.0070 ; qtot   -2.515
        32           h31bf         1   UNL       h31        32     0.30292        1.0080 ; qtot   -2.212
        33           c32bf         1   UNL       c32        33     0.10382       12.0110 ; qtot   -2.108
        34           h33bf         1   UNL       h33        34     0.06676        1.0080 ; qtot   -2.041
        35           c34bf         1   UNL       c34        35    -0.10781       12.0110 ; qtot   -2.149
        36           h35bf         1   UNL       h35        36     0.04284        1.0080 ; qtot   -2.106
        37           h36bf         1   UNL       h36        37     0.04284        1.0080 ; qtot   -2.063
        38           h37bf         1   UNL       h37        38     0.04284        1.0080 ; qtot   -2.021
        39           c38bf         1   UNL       c38        39    -0.10781       12.0110 ; qtot   -2.128
        40           h39bf         1   UNL       h39        40     0.04284        1.0080 ; qtot   -2.086
        41           h40bf         1   UNL       h40        41     0.04284        1.0080 ; qtot   -2.043
        42           h41bf         1   UNL       h41        42     0.04278        1.0080 ; qtot   -2.000

[ bonds ]
;       ai        aj funct               r               k
         1         2     1        0.174464   145572.874683
         1         5     1        0.175012   149020.499365
         2         3     1        0.138277   335024.121436
         2         6     1        0.154034   112597.124561
         3         4     1        0.143994   223875.334033
         3        16     1        0.134833   300010.369531
         4         5     1        0.138169   338414.734521
         4        15     1        0.190996   130541.361816
         5         9     1        0.147069   228992.791992
         6         7     1        0.125984   484107.493164
         6         8     1        0.125984   484107.493164
         9        10     1        0.140429   291229.357861
         9        14     1        0.140563   287308.875293
        10        11     1        0.140294   287805.852979
        10        22     1        0.108258   326995.177637
        11        12     1        0.140579   283204.142480
        11        21     1        0.140941   251500.919287
        12        13     1        0.139605   317911.781055
        12        23     1        0.108339   326598.662939
        13        14     1        0.139542   316193.210205
        13        24     1        0.108622   319386.625732
        14        25     1        0.108491   321875.217041
        16        17     1        0.145852   151865.231201
        17        18     1        0.156538   116742.448608
        17        26     1        0.109566   293138.384473
        17        27     1        0.109566   293138.384473
        18        19     1        0.126057   487285.433203
        18        20     1        0.126057   487285.433203
        21        28     1        0.101060   420197.684814
        21        29     1        0.138984   239470.540283
        29        30     1        0.122894   587249.222070
        29        31     1        0.138332   265620.412598
        31        32     1        0.101211   417851.667187
        31        33     1        0.147341   183555.430469
        33        34     1        0.109333   303063.535254
        33        35     1        0.153303   186188.102148
        33        39     1        0.153303   186188.102148
        35        36     1        0.109382   300887.977832
        35        37     1        0.109382   300887.977832
        35        38     1        0.109382   300887.977832
        39        40     1        0.109382   300887.977832
        39        41     1        0.109382   300887.977832
        39        42     1        0.109382   300887.977832

[ angles ]
;       ai        aj        ak funct           theta             cth
         1         2         3     1      110.160385      167.360000
         1         2         6     1      115.033363      592.691984
         1         5         4     1      108.982101      167.360000
         1         5         9     1      120.207993      422.054616
         2         1         5     1       93.195396      186.526063
         2         3         4     1      112.155884      382.616764
         2         3        16     1      126.134293      420.691381
         2         6         7     1      114.627625      339.029323
         2         6         8     1      114.627625      339.029323
         3         2         6     1      134.051437      467.327122
         3         4         5     1      114.634010      370.337213
         3         4        15     1      121.312027      306.426064
         3        16        17     1      117.821022      473.127047
         4         3        16     1      120.298485      422.691671
         4         5         9     1      130.768707      404.819269
         5         4        15     1      123.746353      284.291870
         5         9        10     1      120.002808      401.097938
         5         9        14     1      120.732788      464.321596
         7         6         8     1      130.398407      705.552920
         9        10        11     1      120.757935      728.489777
         9        10        22     1      119.574265      415.219066
         9        14        13     1      119.786049      681.762932
         9        14        25     1      119.886086      442.839429
        10         9        14     1      119.352127      636.800127
        10        11        12     1      119.506851      572.350655
        10        11        21     1      119.522301      510.151003
        11        10        22     1      119.413574      438.175618
        11        12        13     1      119.436356      739.589226
        11        12        23     1      119.830528      451.291286
        11        21        28     1      114.707809      458.228027
        11        21        29     1      128.491791      461.810085
        12        11        21     1      120.734741      596.126598
        12        13        14     1      121.103210      699.205161
        12        13        24     1      119.167381      438.937358
        13        12        23     1      120.742172      390.626797
        13        14        25     1      120.215225      425.165195
        14        13        24     1      119.675903      439.505719
        16        17        18     1      113.930588      533.838045
        16        17        26     1      107.778183      447.857886
        16        17        27     1      107.778183      447.857886
        17        18        19     1      114.982224      326.587708
        17        18        20     1      114.982224      326.587708
        18        17        26     1      109.132095      476.479910
        18        17        27     1      109.132095      476.479910
        19        18        20     1      130.064850      720.626454
        21        29        30     1      124.312172      539.367116
        21        29        31     1      112.969200      563.753013
        26        17        27     1      108.416725      344.620386
        28        21        29     1      116.150757      467.104439
        29        31        32     1      116.370865      479.225915
        29        31        33     1      120.501694      557.549858
        30        29        31     1      123.422813      559.202045
        31        33        34     1      105.467148      529.294993
        31        33        35     1      110.336464      654.135802
        31        33        39     1      110.336464      654.135802
        32        31        33     1      115.303162      443.102972
        33        35        36     1      110.630615      492.996259
        33        35        37     1      110.630615      492.996259
        33        35        38     1      110.630615      492.996259
        33        39        40     1      110.630615      492.996259
        33        39        41     1      110.630615      492.996259
        33        39        42     1      110.630615      492.996259
        34        33        35     1      108.648354      486.497926
        34        33        39     1      108.648354      486.497926
        35        33        39     1      112.166763      593.383912
        36        35        37     1      108.297241      361.157484
        36        35        38     1      108.297241      361.157484
        37        35        38     1      108.297241      361.157484
        40        39        41     1      108.297241      361.157484
        40        39        42     1      108.297241      361.157484
        41        39        42     1      108.297241      361.157484

[ dihedrals ] ; propers for gromacs 4.5 or higher, use funct 9
;       ai        aj        ak        al funct           phase               k        pn
         1         2         3         4     9        0.000000       -0.157449         1
         1         2         3         4     9      180.000000       23.193074         2
         1         2         3         4     9        0.000000       -4.968979         3
         1         2         3         4     9      180.000000       -0.609654         4
         1         2         3        16     9        0.000000        0.970784         1
         1         2         3        16     9      180.000000       21.885524         2
         1         2         3        16     9        0.000000        0.406670         3
         1         2         3        16     9      180.000000       -1.347848         4
         1         2         6         7     9        0.000000        1.117411         1
         1         2         6         7     9      180.000000        4.117929         2
         1         2         6         7     9        0.000000        0.067199         3
         1         2         6         7     9      180.000000        0.180393         4
         1         2         6         8     9        0.000000        1.117411         1
         1         2         6         8     9      180.000000        4.117929         2
         1         2         6         8     9        0.000000        0.067199         3
         1         2         6         8     9      180.000000        0.180393         4
         1         5         4         3     9        0.000000       -0.306829         1
         1         5         4         3     9      180.000000       24.522085         2
         1         5         4         3     9        0.000000       -5.964297         3
         1         5         4         3     9      180.000000       -0.599844         4
         1         5         4        15     9        0.000000        0.499553         1
         1         5         4        15     9      180.000000       17.380840         2
         1         5         4        15     9        0.000000        0.197540         3
         1         5         4        15     9      180.000000       -1.066303         4
         1         5         9        10     9        0.000000       -0.439513         1
         1         5         9        10     9      180.000000        3.260215         2
         1         5         9        10     9        0.000000        0.040972         3
         1         5         9        10     9      180.000000        0.260934         4
         1         5         9        14     9        0.000000       -0.243249         1
         1         5         9        14     9      180.000000        3.141758         2
         1         5         9        14     9        0.000000        0.151330         3
         1         5         9        14     9      180.000000        0.218282         4
         2         1         5         4     9        0.000000       -0.388546         1
         2         1         5         4     9      180.000000       24.242164         2
         2         1         5         4     9        0.000000       -5.021316         3
         2         1         5         4     9      180.000000       -0.471890         4
         2         1         5         9     9        0.000000       -0.194960         1
         2         1         5         9     9      180.000000       15.184003         2
         2         1         5         9     9        0.000000        0.238336         3
         2         1         5         9     9      180.000000       -0.596384         4
         2         3         4         5     9        0.000000       -0.251748         1
         2         3         4         5     9      180.000000       14.214229         2
         2         3         4         5     9        0.000000       -2.698729         3
         2         3         4         5     9      180.000000       -0.310431         4
         2         3         4        15     9        0.000000        0.248323         1
         2         3         4        15     9      180.000000       11.562275         2
         2         3         4        15     9        0.000000        0.148422         3
         2         3         4        15     9      180.000000       -0.630060         4
         2         3        16        17     9        0.000000        0.701674         1
         2         3        16        17     9      180.000000        2.973538         2
         2         3        16        17     9        0.000000        0.307642         3
         2         3        16        17     9      180.000000       -0.218272         4
         3         2         1         5     9        0.000000       -0.083281         1
         3         2         1         5     9      180.000000       22.870917         2
         3         2         1         5     9        0.000000       -3.551991         3
         3         2         1         5     9      180.000000       -0.695859         4
         3         2         6         7     9        0.000000       -5.137617         1
         3         2         6         7     9      180.000000        2.933940         2
         3         2         6         7     9        0.000000        0.193554         3
         3         2         6         7     9      180.000000       -0.187922         4
         3         2         6         8     9        0.000000       -5.137617         1
         3         2         6         8     9      180.000000        2.933940         2
         3         2         6         8     9        0.000000        0.193554         3
         3         2         6         8     9      180.000000       -0.187922         4
         3         4         5         9     9        0.000000        0.171982         1
         3         4         5         9     9      180.000000       16.183259         2
         3         4         5         9     9        0.000000       -0.359592         3
         3         4         5         9     9      180.000000       -1.029060         4
         3        16        17        18     9        0.000000       -4.760844         1
         3        16        17        18     9      180.000000       -1.857167         2
         3        16        17        18     9        0.000000        0.352751         3
         3        16        17        18     9      180.000000        0.004621         4
         3        16        17        26     9        0.000000       -0.294822         1
         3        16        17        26     9      180.000000       -0.281191         2
         3        16        17        26     9        0.000000        0.570610         3
         3        16        17        26     9      180.000000        0.007077         4
         3        16        17        27     9        0.000000       -0.294822         1
         3        16        17        27     9      180.000000       -0.281191         2
         3        16        17        27     9        0.000000        0.570610         3
         3        16        17        27     9      180.000000        0.007077         4
         4         3         2         6     9        0.000000       -0.190053         1
         4         3         2         6     9      180.000000       11.755029         2
         4         3         2         6     9        0.000000       -0.719247         3
         4         3         2         6     9      180.000000       -0.502059         4
         4         3        16        17     9        0.000000        2.857399         1
         4         3        16        17     9      180.000000        2.426502         2
         4         3        16        17     9        0.000000        0.581872         3
         4         3        16        17     9      180.000000       -0.192707         4
         4         5         9        10     9        0.000000        0.017653         1
         4         5         9        10     9      180.000000        2.314615         2
         4         5         9        10     9        0.000000       -0.111409         3
         4         5         9        10     9      180.000000        0.041177         4
         4         5         9        14     9        0.000000        0.296847         1
         4         5         9        14     9      180.000000        2.110787         2
         4         5         9        14     9        0.000000       -0.049016         3
         4         5         9        14     9      180.000000        0.028661         4
         5         1         2         6     9        0.000000        0.985272         1
         5         1         2         6     9      180.000000       10.250466         2
         5         1         2         6     9        0.000000       -0.288305         3
         5         1         2         6     9      180.000000        0.044596         4
         5         4         3        16     9        0.000000        0.518482         1
         5         4         3        16     9      180.000000       12.721722         2
         5         4         3        16     9        0.000000        0.352406         3
         5         4         3        16     9      180.000000       -0.184802         4
         5         9        10        11     9        0.000000        0.504761         1
         5         9        10        11     9      180.000000       16.017689         2
         5         9        10        11     9        0.000000       -0.067875         3
         5         9        10        11     9      180.000000       -0.439590         4
         5         9        10        22     9        0.000000        0.058919         1
         5         9        10        22     9      180.000000       13.181043         2
         5         9        10        22     9        0.000000       -0.164560         3
         5         9        10        22     9      180.000000        0.137797         4
         5         9        14        13     9        0.000000        0.337773         1
         5         9        14        13     9      180.000000       16.499680         2
         5         9        14        13     9        0.000000       -0.157851         3
         5         9        14        13     9      180.000000       -0.363557         4
         5         9        14        25     9        0.000000        0.083839         1
         5         9        14        25     9      180.000000       12.951337         2
         5         9        14        25     9        0.000000       -0.246232         3
         5         9        14        25     9      180.000000        0.172927         4
         6         2         3        16     9        0.000000        0.216703         1
         6         2         3        16     9      180.000000       15.170354         2
         6         2         3        16     9        0.000000        0.500829         3
         6         2         3        16     9      180.000000       -0.921398         4
         9         5         4        15     9        0.000000        0.456359         1
         9         5         4        15     9      180.000000       13.033962         2
         9         5         4        15     9        0.000000        0.583958         3
         9         5         4        15     9      180.000000       -0.482413         4
         9        10        11        12     9        0.000000       -0.016995         1
         9        10        11        12     9      180.000000       16.169014         2
         9        10        11        12     9        0.000000       -1.085714         3
         9        10        11        12     9      180.000000       -0.214079         4
         9        10        11        21     9        0.000000        0.364224         1
         9        10        11        21     9      180.000000       16.134920         2
         9        10        11        21     9        0.000000        0.361202         3
         9        10        11        21     9      180.000000       -0.319017         4
         9        14        13        12     9        0.000000        0.021253         1
         9        14        13        12     9      180.000000       19.223476         2
         9        14        13        12     9        0.000000       -1.581046         3
         9        14        13        12     9      180.000000       -0.481744         4
         9        14        13        24     9        0.000000       -0.044464         1
         9        14        13        24     9      180.000000       15.108857         2
         9        14        13        24     9        0.000000       -0.515382         3
         9        14        13        24     9      180.000000        0.063944         4
        10         9        14        13     9        0.000000       -0.110825         1
        10         9        14        13     9      180.000000       17.901350         2
        10         9        14        13     9        0.000000       -1.379857         3
        10         9        14        13     9      180.000000       -0.320764         4
        10         9        14        25     9        0.000000       -0.023700         1
        10         9        14        25     9      180.000000       13.770062         2
        10         9        14        25     9        0.000000       -0.577900         3
        10         9        14        25     9      180.000000        0.133703         4
        10        11        12        13     9        0.000000        0.046797         1
        10        11        12        13     9      180.000000       16.226570         2
        10        11        12        13     9        0.000000       -0.935064         3
        10        11        12        13     9      180.000000       -0.151869         4
        10        11        12        23     9        0.000000        0.191793         1
        10        11        12        23     9      180.000000       12.848349         2
        10        11        12        23     9        0.000000       -0.396929         3
        10        11        12        23     9      180.000000        0.144300         4
        10        11        21        28     9        0.000000        0.513930         1
        10        11        21        28     9      180.000000        2.730522         2
        10        11        21        28     9        0.000000        0.019126         3
        10        11        21        28     9      180.000000       -0.178711         4
        10        11        21        29     9        0.000000        0.045677         1
        10        11        21        29     9      180.000000        2.053272         2
        10        11        21        29     9        0.000000       -0.171898         3
        10        11        21        29     9      180.000000        0.312208         4
        11        10         9        14     9        0.000000       -0.082669         1
        11        10         9        14     9      180.000000       17.791596         2
        11        10         9        14     9        0.000000       -1.533058         3
        11        10         9        14     9      180.000000       -0.416394         4
        11        12        13        14     9        0.000000        0.038727         1
        11        12        13        14     9      180.000000       18.424564         2
        11        12        13        14     9        0.000000       -1.603760         3
        11        12        13        14     9      180.000000       -0.483433         4
        11        12        13        24     9        0.000000        0.042645         1
        11        12        13        24     9      180.000000       14.709196         2
        11        12        13        24     9        0.000000       -0.494645         3
        11        12        13        24     9      180.000000       -0.021511         4
        11        21        29        30     9        0.000000       -3.313869         1
        11        21        29        30     9      180.000000        3.753663         2
        11        21        29        30     9        0.000000       -0.580624         3
        11        21        29        30     9      180.000000       -0.204734         4
        11        21        29        31     9        0.000000        5.733422         1
        11        21        29        31     9      180.000000        5.661827         2
        11        21        29        31     9        0.000000       -0.371296         3
        11        21        29        31     9      180.000000       -0.037727         4
        12        11        10        22     9        0.000000        0.197827         1
        12        11        10        22     9      180.000000       12.607012         2
        12        11        10        22     9        0.000000       -0.463747         3
        12        11        10        22     9      180.000000        0.184473         4
        12        11        21        28     9        0.000000       -0.025271         1
        12        11        21        28     9      180.000000        2.576944         2
        12        11        21        28     9        0.000000       -0.060873         3
        12        11        21        28     9      180.000000       -0.159807         4
        12        11        21        29     9        0.000000        0.356684         1
        12        11        21        29     9      180.000000        1.995190         2
        12        11        21        29     9        0.000000       -0.102671         3
        12        11        21        29     9      180.000000        0.307358         4
        12        13        14        25     9        0.000000        0.100801         1
        12        13        14        25     9      180.000000       14.776072         2
        12        13        14        25     9        0.000000       -0.737406         3
        12        13        14        25     9      180.000000        0.127868         4
        13        12        11        21     9        0.000000        0.355848         1
        13        12        11        21     9      180.000000       16.894380         2
        13        12        11        21     9        0.000000        0.206429         3
        13        12        11        21     9      180.000000       -0.222519         4
        14         9        10        22     9        0.000000       -0.057408         1
        14         9        10        22     9      180.000000       13.617198         2
        14         9        10        22     9        0.000000       -0.526557         3
        14         9        10        22     9      180.000000        0.135983         4
        14        13        12        23     9        0.000000        0.039177         1
        14        13        12        23     9      180.000000       14.482332         2
        14        13        12        23     9        0.000000       -0.598840         3
        14        13        12        23     9      180.000000        0.136063         4
        15         4         3        16     9        0.000000       -0.153280         1
        15         4         3        16     9      180.000000       12.598060         2
        15         4         3        16     9        0.000000        0.466981         3
        15         4         3        16     9      180.000000       -0.523506         4
        16        17        18        19     9        0.000000       -1.573021         1
        16        17        18        19     9      180.000000        4.124889         2
        16        17        18        19     9        0.000000        0.247417         3
        16        17        18        19     9      180.000000        0.125480         4
        16        17        18        20     9        0.000000       -1.573021         1
        16        17        18        20     9      180.000000        4.124889         2
        16        17        18        20     9        0.000000        0.247417         3
        16        17        18        20     9      180.000000        0.125480         4
        19        18        17        26     9        0.000000        0.050675         1
        19        18        17        26     9      180.000000       -0.380925         2
        19        18        17        26     9        0.000000        0.149856         3
        19        18        17        26     9      180.000000        0.058403         4
        19        18        17        27     9        0.000000        0.050675         1
        19        18        17        27     9      180.000000       -0.380925         2
        19        18        17        27     9        0.000000        0.149856         3
        19        18        17        27     9      180.000000        0.058403         4
        20        18        17        26     9        0.000000        0.050675         1
        20        18        17        26     9      180.000000       -0.380925         2
        20        18        17        26     9        0.000000        0.149856         3
        20        18        17        26     9      180.000000        0.058403         4
        20        18        17        27     9        0.000000        0.050675         1
        20        18        17        27     9      180.000000       -0.380925         2
        20        18        17        27     9        0.000000        0.149856         3
        20        18        17        27     9      180.000000        0.058403         4
        21        11        10        22     9        0.000000       -0.237678         1
        21        11        10        22     9      180.000000       13.822245         2
        21        11        10        22     9        0.000000       -0.222913         3
        21        11        10        22     9      180.000000        0.253521         4
        21        11        12        23     9        0.000000       -0.143006         1
        21        11        12        23     9      180.000000       13.623186         2
        21        11        12        23     9        0.000000       -0.215001         3
        21        11        12        23     9      180.000000        0.250462         4
        21        29        31        32     9        0.000000        2.628189         1
        21        29        31        32     9      180.000000        9.265800         2
        21        29        31        32     9        0.000000       -0.721416         3
        21        29        31        32     9      180.000000        1.109641         4
        21        29        31        33     9        0.000000        4.665732         1
        21        29        31        33     9      180.000000        8.552353         2
        21        29        31        33     9        0.000000        0.419396         3
        21        29        31        33     9      180.000000        0.058214         4
        23        12        13        24     9        0.000000       -0.099278         1
        23        12        13        24     9      180.000000       11.872411         2
        23        12        13        24     9        0.000000       -0.589508         3
        23        12        13        24     9      180.000000        0.248125         4
        24        13        14        25     9        0.000000       -0.184613         1
        24        13        14        25     9      180.000000       11.998565         2
        24        13        14        25     9        0.000000       -0.625214         3
        24        13        14        25     9      180.000000        0.294037         4
        28        21        29        30     9        0.000000       -1.724117         1
        28        21        29        30     9      180.000000        4.987416         2
        28        21        29        30     9        0.000000        0.217380         3
        28        21        29        30     9      180.000000        0.034143         4
        28        21        29        31     9        0.000000        4.883206         1
        28        21        29        31     9      180.000000        7.309453         2
        28        21        29        31     9        0.000000       -0.733744         3
        28        21        29        31     9      180.000000        0.316156         4
        29        31        33        34     9        0.000000        0.409057         1
        29        31        33        34     9      180.000000       -0.051251         2
        29        31        33        34     9        0.000000        0.324154         3
        29        31        33        34     9      180.000000        0.149791         4
        29        31        33        35     9        0.000000       -0.048407         1
        29        31        33        35     9      180.000000       -0.232128         2
        29        31        33        35     9        0.000000        0.891511         3
        29        31        33        35     9      180.000000       -0.083665         4
        29        31        33        39     9        0.000000       -0.048407         1
        29        31        33        39     9      180.000000       -0.232128         2
        29        31        33        39     9        0.000000        0.891511         3
        29        31        33        39     9      180.000000       -0.083665         4
        30        29        31        32     9        0.000000       -0.982532         1
        30        29        31        32     9      180.000000        6.447088         2
        30        29        31        32     9        0.000000       -0.007639         3
        30        29        31        32     9      180.000000        0.487606         4
        30        29        31        33     9        0.000000       -1.710044         1
        30        29        31        33     9      180.000000        4.487230         2
        30        29        31        33     9        0.000000        0.426208         3
        30        29        31        33     9      180.000000       -0.326277         4
        31        33        35        36     9        0.000000        0.002193         1
        31        33        35        36     9      180.000000        0.009344         2
        31        33        35        36     9        0.000000        0.551029         3
        31        33        35        36     9      180.000000       -0.006152         4
        31        33        35        37     9        0.000000        0.002193         1
        31        33        35        37     9      180.000000        0.009344         2
        31        33        35        37     9        0.000000        0.551029         3
        31        33        35        37     9      180.000000       -0.006152         4
        31        33        35        38     9        0.000000        0.002193         1
        31        33        35        38     9      180.000000        0.009344         2
        31        33        35        38     9        0.000000        0.551029         3
        31        33        35        38     9      180.000000       -0.006152         4
        31        33        39        40     9        0.000000        0.002193         1
        31        33        39        40     9      180.000000        0.009344         2
        31        33        39        40     9        0.000000        0.551029         3
        31        33        39        40     9      180.000000       -0.006152         4
        31        33        39        41     9        0.000000        0.002193         1
        31        33        39        41     9      180.000000        0.009344         2
        31        33        39        41     9        0.000000        0.551029         3
        31        33        39        41     9      180.000000       -0.006152         4
        31        33        39        42     9        0.000000        0.002193         1
        31        33        39        42     9      180.000000        0.009344         2
        31        33        39        42     9        0.000000        0.551029         3
        31        33        39        42     9      180.000000       -0.006152         4
        32        31        33        34     9        0.000000       -0.220144         1
        32        31        33        34     9      180.000000       -0.076163         2
        32        31        33        34     9        0.000000        0.364882         3
        32        31        33        34     9      180.000000        0.078656         4
        32        31        33        35     9        0.000000       -0.409437         1
        32        31        33        35     9      180.000000        0.160889         2
        32        31        33        35     9        0.000000        0.226432         3
        32        31        33        35     9      180.000000       -0.002056         4
        32        31        33        39     9        0.000000       -0.409437         1
        32        31        33        39     9      180.000000        0.160889         2
        32        31        33        39     9        0.000000        0.226432         3
        32        31        33        39     9      180.000000       -0.002056         4
        34        33        35        36     9        0.000000        0.062226         1
        34        33        35        36     9      180.000000        0.034119         2
        34        33        35        36     9        0.000000        0.561523         3
        34        33        35        36     9      180.000000       -0.002516         4
        34        33        35        37     9        0.000000        0.062226         1
        34        33        35        37     9      180.000000        0.034119         2
        34        33        35        37     9        0.000000        0.561523         3
        34        33        35        37     9      180.000000       -0.002516         4
        34        33        35        38     9        0.000000        0.062226         1
        34        33        35        38     9      180.000000        0.034119         2
        34        33        35        38     9        0.000000        0.561523         3
        34        33        35        38     9      180.000000       -0.002516         4
        34        33        39        40     9        0.000000        0.062226         1
        34        33        39        40     9      180.000000        0.034119         2
        34        33        39        40     9        0.000000        0.561523         3
        34        33        39        40     9      180.000000       -0.002516         4
        34        33        39        41     9        0.000000        0.062226         1
        34        33        39        41     9      180.000000        0.034119         2
        34        33        39        41     9        0.000000        0.561523         3
        34        33        39        41     9      180.000000       -0.002516         4
        34        33        39        42     9        0.000000        0.062226         1
        34        33        39        42     9      180.000000        0.034119         2
        34        33        39        42     9        0.000000        0.561523         3
        34        33        39        42     9      180.000000       -0.002516         4
        35        33        39        40     9        0.000000       -0.105884         1
        35        33        39        40     9      180.000000        0.063778         2
        35        33        39        40     9        0.000000        0.541324         3
        35        33        39        40     9      180.000000        0.069438         4
        35        33        39        41     9        0.000000       -0.105884         1
        35        33        39        41     9      180.000000        0.063778         2
        35        33        39        41     9        0.000000        0.541324         3
        35        33        39        41     9      180.000000        0.069438         4
        35        33        39        42     9        0.000000       -0.105884         1
        35        33        39        42     9      180.000000        0.063778         2
        35        33        39        42     9        0.000000        0.541324         3
        35        33        39        42     9      180.000000        0.069438         4
        36        35        33        39     9        0.000000       -0.105884         1
        36        35        33        39     9      180.000000        0.063778         2
        36        35        33        39     9        0.000000        0.541324         3
        36        35        33        39     9      180.000000        0.069438         4
        37        35        33        39     9        0.000000       -0.105884         1
        37        35        33        39     9      180.000000        0.063778         2
        37        35        33        39     9        0.000000        0.541324         3
        37        35        33        39     9      180.000000        0.069438         4
        38        35        33        39     9        0.000000       -0.105884         1
        38        35        33        39     9      180.000000        0.063778         2
        38        35        33        39     9        0.000000        0.541324         3
        38        35        33        39     9      180.000000        0.069438         4

[ dihedrals ] ; impropers
;       ai        aj        ak        al funct           phase               k        pn
         6         2         7         8     4      180.000000       27.893333         2
         6         7         8         2     4      180.000000       27.893333         2
         6         8         2         7     4      180.000000       27.893333         2
        18        17        19        20     4      180.000000       27.893333         2
        18        19        20        17     4      180.000000       27.893333         2
        18        20        17        19     4      180.000000       27.893333         2
        29        21        30        31     4      180.000000        2.648951         2
        29        30        31        21     4      180.000000        2.648951         2
        29        31        21        30     4      180.000000        2.648951         2

[ pairs ]
;       ai        aj funct
         1         7     1
         1         8     1
         1        10     1
         1        14     1
         1        15     1
         1        16     1
         2         9     1
         2        15     1
         2        17     1
         3         7     1
         3         8     1
         3         9     1
         3        18     1
         3        26     1
         3        27     1
         4         6     1
         4        10     1
         4        14     1
         4        17     1
         5         6     1
         5        11     1
         5        13     1
         5        16     1
         5        22     1
         5        25     1
         6        16     1
         9        12     1
         9        15     1
         9        21     1
         9        24     1
        10        13     1
        10        23     1
        10        25     1
        10        28     1
        10        29     1
        11        14     1
        11        24     1
        11        30     1
        11        31     1
        12        22     1
        12        25     1
        12        28     1
        12        29     1
        13        21     1
        14        22     1
        14        23     1
        15        16     1
        16        19     1
        16        20     1
        19        26     1
        19        27     1
        20        26     1
        20        27     1
        21        22     1
        21        23     1
        21        32     1
        21        33     1
        23        24     1
        24        25     1
        28        30     1
        28        31     1
        29        34     1
        29        35     1
        29        39     1
        30        32     1
        30        33     1
        31        36     1
        31        37     1
        31        38     1
        31        40     1
        31        41     1
        31        42     1
        32        34     1
        32        35     1
        32        39     1
        34        36     1
        34        37     1
        34        38     1
        34        40     1
        34        41     1
        34        42     1
        35        40     1
        35        41     1
        35        42     1
        36        39     1
        37        39     1
        38        39     1
