; ITP file created by ByteFF-ML, 2026-02-21 08:24:17.940600

[ atomtypes ]
;name           bonded.type        at.num        mass        charge   ptype           sigma         epsilon
 s0bf                                  16      0.0000       0.00000       A     3.53064e-01     1.17901e+00
 c1bf                                   6      0.0000       0.00000       A     3.31755e-01     4.09816e-01
 c2bf                                   6      0.0000       0.00000       A     3.31349e-01     4.08441e-01
 c3bf                                   6      0.0000       0.00000       A     3.31198e-01     4.12218e-01
 c4bf                                   6      0.0000       0.00000       A     3.31621e-01     4.13639e-01
 c5bf                                   6      0.0000       0.00000       A     3.31455e-01     4.10610e-01
 o6bf                                   8      0.0000       0.00000       A     3.05104e-01     6.09960e-01
 o7bf                                   8      0.0000       0.00000       A     3.05104e-01     6.09960e-01
 c8bf                                   6      0.0000       0.00000       A     3.31385e-01     4.10014e-01
 c9bf                                   6      0.0000       0.00000       A     3.31605e-01     4.12459e-01
 c10bf                                  6      0.0000       0.00000       A     3.31365e-01     4.13476e-01
 c11bf                                  6      0.0000       0.00000       A     3.31576e-01     4.11953e-01
 c12bf                                  6      0.0000       0.00000       A     3.31495e-01     4.13546e-01
 c13bf                                  6      0.0000       0.00000       A     3.31463e-01     4.11623e-01
 br14bf                                35      0.0000       0.00000       A     3.61379e-01     1.65034e+00
 o15bf                                  8      0.0000       0.00000       A     3.15911e-01     3.03161e-01
 c16bf                                  6      0.0000       0.00000       A     3.39643e-01     4.49664e-01
 c17bf                                  6      0.0000       0.00000       A     3.31634e-01     4.10394e-01
 o18bf                                  8      0.0000       0.00000       A     3.04741e-01     6.09601e-01
 o19bf                                  8      0.0000       0.00000       A     3.04741e-01     6.09601e-01
 o20bf                                  8      0.0000       0.00000       A     3.15820e-01     3.03207e-01
 c21bf                                  6      0.0000       0.00000       A     3.39802e-01     4.51028e-01
 h22bf                                  1      0.0000       0.00000       A     2.62475e-01     6.74451e-02
 h23bf                                  1      0.0000       0.00000       A     2.62446e-01     6.69008e-02
 h24bf                                  1      0.0000       0.00000       A     2.62531e-01     6.74084e-02
 h25bf                                  1      0.0000       0.00000       A     2.62513e-01     6.75409e-02
 h26bf                                  1      0.0000       0.00000       A     2.41481e-01     8.75971e-02
 h27bf                                  1      0.0000       0.00000       A     2.41481e-01     8.75971e-02
 h28bf                                  1      0.0000       0.00000       A     2.42007e-01     8.73577e-02
 h29bf                                  1      0.0000       0.00000       A     2.42007e-01     8.73577e-02
 c30bf                                  6      0.0000       0.00000       A     3.31497e-01     4.12822e-01
 c31bf                                  6      0.0000       0.00000       A     3.31502e-01     4.13146e-01
 c32bf                                  6      0.0000       0.00000       A     3.31488e-01     4.12874e-01
 c33bf                                  6      0.0000       0.00000       A     3.31536e-01     4.12412e-01
 c34bf                                  6      0.0000       0.00000       A     3.31488e-01     4.12874e-01
 c35bf                                  6      0.0000       0.00000       A     3.31502e-01     4.13146e-01
 h36bf                                  1      0.0000       0.00000       A     2.62457e-01     6.73477e-02
 h37bf                                  1      0.0000       0.00000       A     2.62458e-01     6.72983e-02
 h38bf                                  1      0.0000       0.00000       A     2.62546e-01     6.75616e-02
 h39bf                                  1      0.0000       0.00000       A     2.62546e-01     6.75616e-02
 h40bf                                  1      0.0000       0.00000       A     2.62458e-01     6.72983e-02

[ moleculetype ]
;name             nrexcl
 23473                 3

[ atoms ]
;       nr            type      resi   res      atom      cgnr      charge          mass ; qtot
         1            s0bf         1   UNL        s0         1     0.19849       32.0670 ; qtot    0.198
         2            c1bf         1   UNL        c1         2    -0.26026       12.0110 ; qtot   -0.062
         3            c2bf         1   UNL        c2         3     0.11437       12.0110 ; qtot    0.053
         4            c3bf         1   UNL        c3         4    -0.05716       12.0110 ; qtot   -0.005
         5            c4bf         1   UNL        c4         5    -0.17115       12.0110 ; qtot   -0.176
         6            c5bf         1   UNL        c5         6     0.72713       12.0110 ; qtot    0.551
         7            o6bf         1   UNL        o6         7    -0.72308       15.9990 ; qtot   -0.172
         8            o7bf         1   UNL        o7         8    -0.72308       15.9990 ; qtot   -0.895
         9            c8bf         1   UNL        c8         9     0.01751       12.0110 ; qtot   -0.877
        10            c9bf         1   UNL        c9        10    -0.14607       12.0110 ; qtot   -1.023
        11           c10bf         1   UNL       c10        11     0.13785       12.0110 ; qtot   -0.885
        12           c11bf         1   UNL       c11        12    -0.16208       12.0110 ; qtot   -1.048
        13           c12bf         1   UNL       c12        13    -0.07573       12.0110 ; qtot   -1.123
        14           c13bf         1   UNL       c13        14    -0.11697       12.0110 ; qtot   -1.240
        15          br14bf         1   UNL      br14        15    -0.08621       79.9040 ; qtot   -1.326
        16           o15bf         1   UNL       o15        16    -0.35606       15.9990 ; qtot   -1.682
        17           c16bf         1   UNL       c16        17    -0.01490       12.0110 ; qtot   -1.697
        18           c17bf         1   UNL       c17        18     0.70991       12.0110 ; qtot   -0.987
        19           o18bf         1   UNL       o18        19    -0.73348       15.9990 ; qtot   -1.721
        20           o19bf         1   UNL       o19        20    -0.73348       15.9990 ; qtot   -2.454
        21           o20bf         1   UNL       o20        21    -0.34894       15.9990 ; qtot   -2.803
        22           c21bf         1   UNL       c21        22     0.20961       12.0110 ; qtot   -2.594
        23           h22bf         1   UNL       h22        23     0.12996        1.0080 ; qtot   -2.464
        24           h23bf         1   UNL       h23        24     0.12712        1.0080 ; qtot   -2.337
        25           h24bf         1   UNL       h24        25     0.11691        1.0080 ; qtot   -2.220
        26           h25bf         1   UNL       h25        26     0.12343        1.0080 ; qtot   -2.096
        27           h26bf         1   UNL       h26        27     0.02487        1.0080 ; qtot   -2.071
        28           h27bf         1   UNL       h27        28     0.02487        1.0080 ; qtot   -2.047
        29           h28bf         1   UNL       h28        29     0.04893        1.0080 ; qtot   -1.998
        30           h29bf         1   UNL       h29        30     0.04893        1.0080 ; qtot   -1.949
        31           c30bf         1   UNL       c30        31    -0.10449       12.0110 ; qtot   -2.053
        32           c31bf         1   UNL       c31        32    -0.11541       12.0110 ; qtot   -2.169
        33           c32bf         1   UNL       c32        33    -0.09269       12.0110 ; qtot   -2.261
        34           c33bf         1   UNL       c33        34    -0.11241       12.0110 ; qtot   -2.374
        35           c34bf         1   UNL       c34        35    -0.09269       12.0110 ; qtot   -2.466
        36           c35bf         1   UNL       c35        36    -0.11541       12.0110 ; qtot   -2.582
        37           h36bf         1   UNL       h36        37     0.11320        1.0080 ; qtot   -2.469
        38           h37bf         1   UNL       h37        38     0.11532        1.0080 ; qtot   -2.353
        39           h38bf         1   UNL       h38        39     0.11902        1.0080 ; qtot   -2.234
        40           h39bf         1   UNL       h39        40     0.11902        1.0080 ; qtot   -2.115
        41           h40bf         1   UNL       h40        41     0.11530        1.0080 ; qtot   -2.000

[ bonds ]
;       ai        aj funct               r               k
         1         2     1        0.174464   145572.874683
         1         5     1        0.175011   149164.477588
         2         3     1        0.138277   335024.121436
         2         6     1        0.154034   112597.124561
         3         4     1        0.143994   223875.334033
         3        16     1        0.134833   300010.369531
         4         5     1        0.138172   338405.209180
         4        15     1        0.190996   130541.361816
         5         9     1        0.147071   228841.663379
         6         7     1        0.125984   484107.493164
         6         8     1        0.125984   484107.493164
         9        10     1        0.140432   290177.152344
         9        14     1        0.140587   287111.090381
        10        11     1        0.140015   292340.043359
        10        23     1        0.108347   324413.120508
        11        12     1        0.140274   287979.811768
        11        21     1        0.137048   262506.162109
        12        13     1        0.139753   313721.090332
        12        24     1        0.108403   324242.098486
        13        14     1        0.139576   316500.523779
        13        25     1        0.108647   318625.466650
        14        26     1        0.108490   321932.062646
        16        17     1        0.145852   151865.231201
        17        18     1        0.156538   116742.448608
        17        27     1        0.109566   293138.384473
        17        28     1        0.109566   293138.384473
        18        19     1        0.126057   487285.433203
        18        20     1        0.126057   487285.433203
        21        22     1        0.143253   187230.756787
        22        29     1        0.109642   290582.885938
        22        30     1        0.109642   290582.885938
        22        34     1        0.150886   201992.304102
        31        32     1        0.139941   306677.189453
        31        36     1        0.139941   306677.189453
        31        37     1        0.108629   319751.295654
        32        33     1        0.139832   311909.564404
        32        38     1        0.108634   319425.237842
        33        34     1        0.140146   292963.531885
        33        39     1        0.108666   317524.664014
        34        35     1        0.140146   292963.531885
        35        36     1        0.139832   311909.564404
        35        40     1        0.108666   317524.664014
        36        41     1        0.108634   319425.237842

[ angles ]
;       ai        aj        ak funct           theta             cth
         1         2         3     1      110.160385      167.360000
         1         2         6     1      115.033363      592.691984
         1         5         4     1      108.978355      167.360000
         1         5         9     1      120.220627      422.262711
         2         1         5     1       93.199356      186.345676
         2         3         4     1      112.155884      382.616764
         2         3        16     1      126.134293      420.691381
         2         6         7     1      114.627625      339.029323
         2         6         8     1      114.627625      339.029323
         3         2         6     1      134.051437      467.327122
         3         4         5     1      114.629684      369.673344
         3         4        15     1      121.312027      306.426064
         3        16        17     1      117.821022      473.127047
         4         3        16     1      120.298485      422.691671
         4         5         9     1      130.711197      405.558090
         5         4        15     1      123.761276      284.251362
         5         9        10     1      120.101601      410.641890
         5         9        14     1      120.706802      467.150342
         7         6         8     1      130.398407      705.552920
         9        10        11     1      120.330200      727.538775
         9        10        23     1      120.022598      427.290074
         9        14        13     1      119.747269      676.694710
         9        14        26     1      119.902870      443.866052
        10         9        14     1      119.293991      625.485208
        10        11        12     1      120.014748      616.605891
        10        11        21     1      118.451492      502.436402
        11        10        23     1      119.701767      430.131142
        11        12        13     1      119.176308      733.048726
        11        12        24     1      120.266251      434.541815
        11        21        22     1      118.292770      537.484776
        12        11        21     1      120.659775      547.878954
        12        13        14     1      121.023170      695.585403
        12        13        25     1      119.287231      434.313003
        13        12        24     1      120.498375      426.093054
        13        14        26     1      120.256836      429.350472
        14        13        25     1      119.657326      436.699286
        16        17        18     1      113.930588      533.838045
        16        17        27     1      107.778183      447.857886
        16        17        28     1      107.778183      447.857886
        17        18        19     1      114.982224      326.587708
        17        18        20     1      114.982224      326.587708
        18        17        27     1      109.132095      476.479910
        18        17        28     1      109.132095      476.479910
        19        18        20     1      130.064850      720.626454
        21        22        29     1      108.980362      445.407600
        21        22        30     1      108.980362      445.407600
        21        22        34     1      109.774376      580.041858
        22        34        33     1      120.393211      508.070910
        22        34        35     1      120.393211      508.070910
        27        17        28     1      108.416725      344.620386
        29        22        30     1      107.867210      346.002359
        29        22        34     1      110.558304      470.196664
        30        22        34     1      110.558304      470.196664
        31        32        33     1      120.099380      707.556051
        31        32        38     1      120.073624      429.740520
        31        36        35     1      120.099380      707.556051
        31        36        41     1      120.073624      429.740520
        32        31        36     1      119.707008      694.228234
        32        31        37     1      120.169128      431.255700
        32        33        34     1      120.426270      706.332249
        32        33        39     1      120.056313      428.890389
        33        32        38     1      119.875343      429.716834
        33        34        35     1      119.092735      695.034185
        34        33        39     1      119.535889      398.648419
        34        35        36     1      120.426270      706.332185
        34        35        40     1      119.535889      398.648450
        35        36        41     1      119.875343      429.716834
        36        31        37     1      120.169128      431.255700
        36        35        40     1      120.056313      428.890389

[ dihedrals ] ; propers for gromacs 4.5 or higher, use funct 9
;       ai        aj        ak        al funct           phase               k        pn
         1         2         3         4     9        0.000000       -0.157449         1
         1         2         3         4     9      180.000000       23.193074         2
         1         2         3         4     9        0.000000       -4.968979         3
         1         2         3         4     9      180.000000       -0.609654         4
         1         2         3        16     9        0.000000        0.970784         1
         1         2         3        16     9      180.000000       21.885524         2
         1         2         3        16     9        0.000000        0.406670         3
         1         2         3        16     9      180.000000       -1.347848         4
         1         2         6         7     9        0.000000        1.117411         1
         1         2         6         7     9      180.000000        4.117929         2
         1         2         6         7     9        0.000000        0.067199         3
         1         2         6         7     9      180.000000        0.180393         4
         1         2         6         8     9        0.000000        1.117411         1
         1         2         6         8     9      180.000000        4.117929         2
         1         2         6         8     9        0.000000        0.067199         3
         1         2         6         8     9      180.000000        0.180393         4
         1         5         4         3     9        0.000000       -0.308869         1
         1         5         4         3     9      180.000000       24.525030         2
         1         5         4         3     9        0.000000       -5.951574         3
         1         5         4         3     9      180.000000       -0.597078         4
         1         5         4        15     9        0.000000        0.499745         1
         1         5         4        15     9      180.000000       17.364526         2
         1         5         4        15     9        0.000000        0.197165         3
         1         5         4        15     9      180.000000       -1.058848         4
         1         5         9        10     9        0.000000       -0.315918         1
         1         5         9        10     9      180.000000        3.203475         2
         1         5         9        10     9        0.000000        0.029290         3
         1         5         9        10     9      180.000000        0.284581         4
         1         5         9        14     9        0.000000       -0.239555         1
         1         5         9        14     9      180.000000        3.131768         2
         1         5         9        14     9        0.000000        0.173149         3
         1         5         9        14     9      180.000000        0.220955         4
         2         1         5         4     9        0.000000       -0.374056         1
         2         1         5         4     9      180.000000       24.245361         2
         2         1         5         4     9        0.000000       -5.026659         3
         2         1         5         4     9      180.000000       -0.461986         4
         2         1         5         9     9        0.000000       -0.153530         1
         2         1         5         9     9      180.000000       15.155880         2
         2         1         5         9     9        0.000000        0.294731         3
         2         1         5         9     9      180.000000       -0.603311         4
         2         3         4         5     9        0.000000       -0.242386         1
         2         3         4         5     9      180.000000       14.197159         2
         2         3         4         5     9        0.000000       -2.696384         3
         2         3         4         5     9      180.000000       -0.313835         4
         2         3         4        15     9        0.000000        0.248323         1
         2         3         4        15     9      180.000000       11.562275         2
         2         3         4        15     9        0.000000        0.148422         3
         2         3         4        15     9      180.000000       -0.630060         4
         2         3        16        17     9        0.000000        0.701674         1
         2         3        16        17     9      180.000000        2.973538         2
         2         3        16        17     9        0.000000        0.307642         3
         2         3        16        17     9      180.000000       -0.218272         4
         3         2         1         5     9        0.000000       -0.081377         1
         3         2         1         5     9      180.000000       22.925196         2
         3         2         1         5     9        0.000000       -3.557954         3
         3         2         1         5     9      180.000000       -0.700000         4
         3         2         6         7     9        0.000000       -5.137617         1
         3         2         6         7     9      180.000000        2.933940         2
         3         2         6         7     9        0.000000        0.193554         3
         3         2         6         7     9      180.000000       -0.187922         4
         3         2         6         8     9        0.000000       -5.137617         1
         3         2         6         8     9      180.000000        2.933940         2
         3         2         6         8     9        0.000000        0.193554         3
         3         2         6         8     9      180.000000       -0.187922         4
         3         4         5         9     9        0.000000        0.189900         1
         3         4         5         9     9      180.000000       16.103143         2
         3         4         5         9     9        0.000000       -0.354209         3
         3         4         5         9     9      180.000000       -1.016117         4
         3        16        17        18     9        0.000000       -4.760844         1
         3        16        17        18     9      180.000000       -1.857167         2
         3        16        17        18     9        0.000000        0.352751         3
         3        16        17        18     9      180.000000        0.004621         4
         3        16        17        27     9        0.000000       -0.294822         1
         3        16        17        27     9      180.000000       -0.281191         2
         3        16        17        27     9        0.000000        0.570610         3
         3        16        17        27     9      180.000000        0.007077         4
         3        16        17        28     9        0.000000       -0.294822         1
         3        16        17        28     9      180.000000       -0.281191         2
         3        16        17        28     9        0.000000        0.570610         3
         3        16        17        28     9      180.000000        0.007077         4
         4         3         2         6     9        0.000000       -0.190053         1
         4         3         2         6     9      180.000000       11.755029         2
         4         3         2         6     9        0.000000       -0.719247         3
         4         3         2         6     9      180.000000       -0.502059         4
         4         3        16        17     9        0.000000        2.857399         1
         4         3        16        17     9      180.000000        2.426502         2
         4         3        16        17     9        0.000000        0.581872         3
         4         3        16        17     9      180.000000       -0.192707         4
         4         5         9        10     9        0.000000       -0.214809         1
         4         5         9        10     9      180.000000        2.226787         2
         4         5         9        10     9        0.000000       -0.063932         3
         4         5         9        10     9      180.000000        0.021608         4
         4         5         9        14     9        0.000000        0.351807         1
         4         5         9        14     9      180.000000        2.118998         2
         4         5         9        14     9        0.000000       -0.047209         3
         4         5         9        14     9      180.000000        0.037454         4
         5         1         2         6     9        0.000000        0.979538         1
         5         1         2         6     9      180.000000       10.292334         2
         5         1         2         6     9        0.000000       -0.306427         3
         5         1         2         6     9      180.000000        0.046357         4
         5         4         3        16     9        0.000000        0.518834         1
         5         4         3        16     9      180.000000       12.738605         2
         5         4         3        16     9        0.000000        0.358004         3
         5         4         3        16     9      180.000000       -0.181101         4
         5         9        10        11     9        0.000000        0.152068         1
         5         9        10        11     9      180.000000       16.113980         2
         5         9        10        11     9        0.000000       -0.076880         3
         5         9        10        11     9      180.000000       -0.468256         4
         5         9        10        23     9        0.000000        0.007047         1
         5         9        10        23     9      180.000000       12.908248         2
         5         9        10        23     9        0.000000       -0.204775         3
         5         9        10        23     9      180.000000        0.209060         4
         5         9        14        13     9        0.000000        0.333506         1
         5         9        14        13     9      180.000000       16.527976         2
         5         9        14        13     9        0.000000       -0.192084         3
         5         9        14        13     9      180.000000       -0.358377         4
         5         9        14        26     9        0.000000        0.091589         1
         5         9        14        26     9      180.000000       12.997549         2
         5         9        14        26     9        0.000000       -0.232623         3
         5         9        14        26     9      180.000000        0.180258         4
         6         2         3        16     9        0.000000        0.216703         1
         6         2         3        16     9      180.000000       15.170354         2
         6         2         3        16     9        0.000000        0.500829         3
         6         2         3        16     9      180.000000       -0.921398         4
         9         5         4        15     9        0.000000        0.432323         1
         9         5         4        15     9      180.000000       13.060104         2
         9         5         4        15     9        0.000000        0.572240         3
         9         5         4        15     9      180.000000       -0.486851         4
         9        10        11        12     9        0.000000       -0.107602         1
         9        10        11        12     9      180.000000       15.923141         2
         9        10        11        12     9        0.000000       -0.979247         3
         9        10        11        12     9      180.000000       -0.252202         4
         9        10        11        21     9        0.000000        0.349818         1
         9        10        11        21     9      180.000000       17.322603         2
         9        10        11        21     9        0.000000        0.397337         3
         9        10        11        21     9      180.000000       -0.335964         4
         9        14        13        12     9        0.000000       -0.008693         1
         9        14        13        12     9      180.000000       19.233318         2
         9        14        13        12     9        0.000000       -1.612978         3
         9        14        13        12     9      180.000000       -0.427298         4
         9        14        13        25     9        0.000000       -0.060497         1
         9        14        13        25     9      180.000000       15.027192         2
         9        14        13        25     9        0.000000       -0.570790         3
         9        14        13        25     9      180.000000        0.078627         4
        10         9        14        13     9        0.000000       -0.100132         1
        10         9        14        13     9      180.000000       18.125833         2
        10         9        14        13     9        0.000000       -1.452618         3
        10         9        14        13     9      180.000000       -0.325599         4
        10         9        14        26     9        0.000000        0.004018         1
        10         9        14        26     9      180.000000       13.814900         2
        10         9        14        26     9        0.000000       -0.540621         3
        10         9        14        26     9      180.000000        0.128262         4
        10        11        12        13     9        0.000000       -0.064471         1
        10        11        12        13     9      180.000000       15.827918         2
        10        11        12        13     9        0.000000       -0.853103         3
        10        11        12        13     9      180.000000       -0.207242         4
        10        11        12        24     9        0.000000        0.042753         1
        10        11        12        24     9      180.000000       12.571745         2
        10        11        12        24     9        0.000000       -0.437457         3
        10        11        12        24     9      180.000000        0.142926         4
        10        11        21        22     9        0.000000       -0.589262         1
        10        11        21        22     9      180.000000        4.798679         2
        10        11        21        22     9        0.000000        0.030823         3
        10        11        21        22     9      180.000000        0.409985         4
        11        10         9        14     9        0.000000       -0.178394         1
        11        10         9        14     9      180.000000       18.030486         2
        11        10         9        14     9        0.000000       -1.585185         3
        11        10         9        14     9      180.000000       -0.425494         4
        11        12        13        14     9        0.000000        0.006208         1
        11        12        13        14     9      180.000000       18.423881         2
        11        12        13        14     9        0.000000       -1.571568         3
        11        12        13        14     9      180.000000       -0.487713         4
        11        12        13        25     9        0.000000        0.040739         1
        11        12        13        25     9      180.000000       14.530631         2
        11        12        13        25     9        0.000000       -0.475275         3
        11        12        13        25     9      180.000000        0.060441         4
        11        21        22        29     9        0.000000       -0.175612         1
        11        21        22        29     9      180.000000        0.158434         2
        11        21        22        29     9        0.000000        0.888912         3
        11        21        22        29     9      180.000000       -0.051570         4
        11        21        22        30     9        0.000000       -0.175612         1
        11        21        22        30     9      180.000000        0.158434         2
        11        21        22        30     9        0.000000        0.888912         3
        11        21        22        30     9      180.000000       -0.051570         4
        11        21        22        34     9        0.000000        0.464871         1
        11        21        22        34     9      180.000000       -0.780918         2
        11        21        22        34     9        0.000000        0.943971         3
        11        21        22        34     9      180.000000        0.082249         4
        12        11        10        23     9        0.000000        0.113230         1
        12        11        10        23     9      180.000000       12.568216         2
        12        11        10        23     9        0.000000       -0.469539         3
        12        11        10        23     9      180.000000        0.248574         4
        12        11        21        22     9        0.000000        0.128894         1
        12        11        21        22     9      180.000000        4.743423         2
        12        11        21        22     9        0.000000        0.190506         3
        12        11        21        22     9      180.000000        0.372882         4
        12        13        14        26     9        0.000000        0.044878         1
        12        13        14        26     9      180.000000       14.980496         2
        12        13        14        26     9        0.000000       -0.720938         3
        12        13        14        26     9      180.000000        0.125179         4
        13        12        11        21     9        0.000000        0.484394         1
        13        12        11        21     9      180.000000       17.578651         2
        13        12        11        21     9        0.000000        0.452953         3
        13        12        11        21     9      180.000000       -0.260942         4
        14         9        10        23     9        0.000000        0.058563         1
        14         9        10        23     9      180.000000       13.339319         2
        14         9        10        23     9        0.000000       -0.550642         3
        14         9        10        23     9      180.000000        0.134441         4
        14        13        12        24     9        0.000000        0.074237         1
        14        13        12        24     9      180.000000       13.605924         2
        14        13        12        24     9        0.000000       -0.664522         3
        14        13        12        24     9      180.000000        0.193958         4
        15         4         3        16     9        0.000000       -0.153280         1
        15         4         3        16     9      180.000000       12.598060         2
        15         4         3        16     9        0.000000        0.466981         3
        15         4         3        16     9      180.000000       -0.523506         4
        16        17        18        19     9        0.000000       -1.573021         1
        16        17        18        19     9      180.000000        4.124889         2
        16        17        18        19     9        0.000000        0.247417         3
        16        17        18        19     9      180.000000        0.125480         4
        16        17        18        20     9        0.000000       -1.573021         1
        16        17        18        20     9      180.000000        4.124889         2
        16        17        18        20     9        0.000000        0.247417         3
        16        17        18        20     9      180.000000        0.125480         4
        19        18        17        27     9        0.000000        0.050675         1
        19        18        17        27     9      180.000000       -0.380925         2
        19        18        17        27     9        0.000000        0.149856         3
        19        18        17        27     9      180.000000        0.058403         4
        19        18        17        28     9        0.000000        0.050675         1
        19        18        17        28     9      180.000000       -0.380925         2
        19        18        17        28     9        0.000000        0.149856         3
        19        18        17        28     9      180.000000        0.058403         4
        20        18        17        27     9        0.000000        0.050675         1
        20        18        17        27     9      180.000000       -0.380925         2
        20        18        17        27     9        0.000000        0.149856         3
        20        18        17        27     9      180.000000        0.058403         4
        20        18        17        28     9        0.000000        0.050675         1
        20        18        17        28     9      180.000000       -0.380925         2
        20        18        17        28     9        0.000000        0.149856         3
        20        18        17        28     9      180.000000        0.058403         4
        21        11        10        23     9        0.000000        0.070565         1
        21        11        10        23     9      180.000000       12.957541         2
        21        11        10        23     9        0.000000       -0.125524         3
        21        11        10        23     9      180.000000        0.320501         4
        21        11        12        24     9        0.000000        0.073626         1
        21        11        12        24     9      180.000000       12.929774         2
        21        11        12        24     9        0.000000       -0.111762         3
        21        11        12        24     9      180.000000        0.259514         4
        21        22        34        33     9        0.000000       -0.028086         1
        21        22        34        33     9      180.000000        0.931664         2
        21        22        34        33     9        0.000000       -0.071119         3
        21        22        34        33     9      180.000000        0.307905         4
        21        22        34        35     9        0.000000       -0.028086         1
        21        22        34        35     9      180.000000        0.931664         2
        21        22        34        35     9        0.000000       -0.071119         3
        21        22        34        35     9      180.000000        0.307905         4
        22        34        33        32     9        0.000000        0.027296         1
        22        34        33        32     9      180.000000       15.316051         2
        22        34        33        32     9        0.000000       -0.259651         3
        22        34        33        32     9      180.000000       -0.164909         4
        22        34        33        39     9        0.000000       -0.171290         1
        22        34        33        39     9      180.000000       12.898209         2
        22        34        33        39     9        0.000000       -0.429596         3
        22        34        33        39     9      180.000000        0.169588         4
        22        34        35        36     9        0.000000        0.027296         1
        22        34        35        36     9      180.000000       15.316051         2
        22        34        35        36     9        0.000000       -0.259651         3
        22        34        35        36     9      180.000000       -0.164909         4
        22        34        35        40     9        0.000000       -0.171290         1
        22        34        35        40     9      180.000000       12.898209         2
        22        34        35        40     9        0.000000       -0.429596         3
        22        34        35        40     9      180.000000        0.169588         4
        24        12        13        25     9        0.000000       -0.187554         1
        24        12        13        25     9      180.000000       11.492068         2
        24        12        13        25     9        0.000000       -0.569457         3
        24        12        13        25     9      180.000000        0.234655         4
        25        13        14        26     9        0.000000       -0.167138         1
        25        13        14        26     9      180.000000       12.056266         2
        25        13        14        26     9        0.000000       -0.657188         3
        25        13        14        26     9      180.000000        0.293284         4
        29        22        34        33     9        0.000000       -0.028230         1
        29        22        34        33     9      180.000000       -0.039817         2
        29        22        34        33     9        0.000000        0.002577         3
        29        22        34        33     9      180.000000       -0.045523         4
        29        22        34        35     9        0.000000       -0.028230         1
        29        22        34        35     9      180.000000       -0.039817         2
        29        22        34        35     9        0.000000        0.002577         3
        29        22        34        35     9      180.000000       -0.045523         4
        30        22        34        33     9        0.000000       -0.028230         1
        30        22        34        33     9      180.000000       -0.039817         2
        30        22        34        33     9        0.000000        0.002577         3
        30        22        34        33     9      180.000000       -0.045523         4
        30        22        34        35     9        0.000000       -0.028230         1
        30        22        34        35     9      180.000000       -0.039817         2
        30        22        34        35     9        0.000000        0.002577         3
        30        22        34        35     9      180.000000       -0.045523         4
        31        32        33        34     9        0.000000        0.029854         1
        31        32        33        34     9      180.000000       18.486908         2
        31        32        33        34     9        0.000000       -1.533112         3
        31        32        33        34     9      180.000000       -0.378354         4
        31        32        33        39     9        0.000000        0.073889         1
        31        32        33        39     9      180.000000       14.566808         2
        31        32        33        39     9        0.000000       -0.687523         3
        31        32        33        39     9      180.000000        0.136448         4
        31        36        35        34     9        0.000000        0.029854         1
        31        36        35        34     9      180.000000       18.486908         2
        31        36        35        34     9        0.000000       -1.533112         3
        31        36        35        34     9      180.000000       -0.378354         4
        31        36        35        40     9        0.000000        0.073889         1
        31        36        35        40     9      180.000000       14.566808         2
        31        36        35        40     9        0.000000       -0.687523         3
        31        36        35        40     9      180.000000        0.136448         4
        32        31        36        35     9        0.000000       -0.042840         1
        32        31        36        35     9      180.000000       18.738343         2
        32        31        36        35     9        0.000000       -1.640278         3
        32        31        36        35     9      180.000000       -0.392385         4
        32        31        36        41     9        0.000000       -0.005491         1
        32        31        36        41     9      180.000000       14.304918         2
        32        31        36        41     9        0.000000       -0.808442         3
        32        31        36        41     9      180.000000        0.156929         4
        32        33        34        35     9        0.000000       -0.076744         1
        32        33        34        35     9      180.000000       18.873817         2
        32        33        34        35     9        0.000000       -1.374852         3
        32        33        34        35     9      180.000000       -0.464921         4
        33        32        31        36     9        0.000000       -0.042840         1
        33        32        31        36     9      180.000000       18.738343         2
        33        32        31        36     9        0.000000       -1.640278         3
        33        32        31        36     9      180.000000       -0.392385         4
        33        32        31        37     9        0.000000        0.019535         1
        33        32        31        37     9      180.000000       14.491350         2
        33        32        31        37     9        0.000000       -0.811267         3
        33        32        31        37     9      180.000000        0.123125         4
        33        34        35        36     9        0.000000       -0.076744         1
        33        34        35        36     9      180.000000       18.873817         2
        33        34        35        36     9        0.000000       -1.374852         3
        33        34        35        36     9      180.000000       -0.464921         4
        33        34        35        40     9        0.000000       -0.007034         1
        33        34        35        40     9      180.000000       14.359189         2
        33        34        35        40     9        0.000000       -0.570530         3
        33        34        35        40     9      180.000000        0.021497         4
        34        33        32        38     9        0.000000        0.054042         1
        34        33        32        38     9      180.000000       14.707619         2
        34        33        32        38     9        0.000000       -0.675961         3
        34        33        32        38     9      180.000000        0.103327         4
        34        35        36        41     9        0.000000        0.054042         1
        34        35        36        41     9      180.000000       14.707619         2
        34        35        36        41     9        0.000000       -0.675961         3
        34        35        36        41     9      180.000000        0.103327         4
        35        34        33        39     9        0.000000       -0.007034         1
        35        34        33        39     9      180.000000       14.359189         2
        35        34        33        39     9        0.000000       -0.570530         3
        35        34        33        39     9      180.000000        0.021497         4
        35        36        31        37     9        0.000000        0.019535         1
        35        36        31        37     9      180.000000       14.491352         2
        35        36        31        37     9        0.000000       -0.811267         3
        35        36        31        37     9      180.000000        0.123125         4
        36        31        32        38     9        0.000000       -0.005491         1
        36        31        32        38     9      180.000000       14.304918         2
        36        31        32        38     9        0.000000       -0.808442         3
        36        31        32        38     9      180.000000        0.156929         4
        37        31        32        38     9        0.000000       -0.086531         1
        37        31        32        38     9      180.000000       11.554255         2
        37        31        32        38     9        0.000000       -0.600111         3
        37        31        32        38     9      180.000000        0.268073         4
        37        31        36        41     9        0.000000       -0.086531         1
        37        31        36        41     9      180.000000       11.554255         2
        37        31        36        41     9        0.000000       -0.600111         3
        37        31        36        41     9      180.000000        0.268073         4
        38        32        33        39     9        0.000000       -0.104429         1
        38        32        33        39     9      180.000000       11.928174         2
        38        32        33        39     9        0.000000       -0.688659         3
        38        32        33        39     9      180.000000        0.283128         4
        40        35        36        41     9        0.000000       -0.104429         1
        40        35        36        41     9      180.000000       11.928174         2
        40        35        36        41     9        0.000000       -0.688659         3
        40        35        36        41     9      180.000000        0.283128         4

[ dihedrals ] ; impropers
;       ai        aj        ak        al funct           phase               k        pn
         6         2         7         8     4      180.000000       27.893333         2
         6         7         8         2     4      180.000000       27.893333         2
         6         8         2         7     4      180.000000       27.893333         2
        11        10        12        21     4      180.000000        0.289843         2
        11        12        21        10     4      180.000000        0.289843         2
        11        21        10        12     4      180.000000        0.289843         2
        18        17        19        20     4      180.000000       27.893333         2
        18        19        20        17     4      180.000000       27.893333         2
        18        20        17        19     4      180.000000       27.893333         2
        31        32        36        37     4      180.000000        0.839614         2
        31        36        37        32     4      180.000000        0.839614         2
        31        37        32        36     4      180.000000        0.839614         2
        33        32        34        39     4      180.000000        0.327124         2
        33        34        39        32     4      180.000000        0.327124         2
        33        39        32        34     4      180.000000        0.327124         2
        35        34        36        40     4      180.000000        0.327124         2
        35        36        40        34     4      180.000000        0.327124         2
        35        40        34        36     4      180.000000        0.327124         2

[ pairs ]
;       ai        aj funct
         1         7     1
         1         8     1
         1        10     1
         1        14     1
         1        15     1
         1        16     1
         2         9     1
         2        15     1
         2        17     1
         3         7     1
         3         8     1
         3         9     1
         3        18     1
         3        27     1
         3        28     1
         4         6     1
         4        10     1
         4        14     1
         4        17     1
         5         6     1
         5        11     1
         5        13     1
         5        16     1
         5        23     1
         5        26     1
         6        16     1
         9        12     1
         9        15     1
         9        21     1
         9        25     1
        10        13     1
        10        22     1
        10        24     1
        10        26     1
        11        14     1
        11        25     1
        11        29     1
        11        30     1
        11        34     1
        12        22     1
        12        23     1
        12        26     1
        13        21     1
        14        23     1
        14        24     1
        15        16     1
        16        19     1
        16        20     1
        19        27     1
        19        28     1
        20        27     1
        20        28     1
        21        23     1
        21        24     1
        21        33     1
        21        35     1
        22        32     1
        22        36     1
        22        39     1
        22        40     1
        24        25     1
        25        26     1
        29        33     1
        29        35     1
        30        33     1
        30        35     1
        31        34     1
        31        39     1
        31        40     1
        32        35     1
        32        41     1
        33        36     1
        33        37     1
        33        40     1
        34        38     1
        34        41     1
        35        37     1
        35        39     1
        36        38     1
        37        38     1
        37        41     1
        38        39     1
        40        41     1
