; ITP file created by ByteFF-ML, 2026-02-21 08:23:55.138507

[ atomtypes ]
;name           bonded.type        at.num        mass        charge   ptype           sigma         epsilon
 s0bf                                  16      0.0000       0.00000       A     3.53186e-01     1.17757e+00
 c1bf                                   6      0.0000       0.00000       A     3.31745e-01     4.08812e-01
 c2bf                                   6      0.0000       0.00000       A     3.31296e-01     4.10415e-01
 c3bf                                   6      0.0000       0.00000       A     3.31727e-01     4.13797e-01
 c4bf                                   6      0.0000       0.00000       A     3.31333e-01     4.16368e-01
 c5bf                                   6      0.0000       0.00000       A     3.31429e-01     4.09231e-01
 o6bf                                   8      0.0000       0.00000       A     3.05104e-01     6.09960e-01
 o7bf                                   8      0.0000       0.00000       A     3.05104e-01     6.09960e-01
 c8bf                                   6      0.0000       0.00000       A     3.31398e-01     4.12381e-01
 c9bf                                   6      0.0000       0.00000       A     3.31684e-01     4.14356e-01
 c10bf                                  6      0.0000       0.00000       A     3.31483e-01     4.11278e-01
 c11bf                                  6      0.0000       0.00000       A     3.31454e-01     4.12646e-01
 c12bf                                  6      0.0000       0.00000       A     3.31487e-01     4.13404e-01
 c13bf                                  6      0.0000       0.00000       A     3.31461e-01     4.11621e-01
 o14bf                                  8      0.0000       0.00000       A     3.15676e-01     3.03207e-01
 c15bf                                  6      0.0000       0.00000       A     3.39581e-01     4.49287e-01
 c16bf                                  6      0.0000       0.00000       A     3.31634e-01     4.10394e-01
 o17bf                                  8      0.0000       0.00000       A     3.04741e-01     6.09601e-01
 o18bf                                  8      0.0000       0.00000       A     3.04741e-01     6.09601e-01
 n19bf                                  7      0.0000       0.00000       A     3.28017e-01     6.43762e-01
 c20bf                                  6      0.0000       0.00000       A     3.39808e-01     4.52002e-01
 c21bf                                  6      0.0000       0.00000       A     3.39828e-01     4.49669e-01
 c22bf                                  6      0.0000       0.00000       A     3.39618e-01     4.49180e-01
 n23bf                                  7      0.0000       0.00000       A     3.36789e-01     3.55505e-01
 c24bf                                  6      0.0000       0.00000       A     3.39618e-01     4.49180e-01
 c25bf                                  6      0.0000       0.00000       A     3.39828e-01     4.49669e-01
 s26bf                                 16      0.0000       0.00000       A     4.05841e-01     2.57251e-01
 o27bf                                  8      0.0000       0.00000       A     3.04913e-01     6.10658e-01
 o28bf                                  8      0.0000       0.00000       A     3.04913e-01     6.10658e-01
 c29bf                                  6      0.0000       0.00000       A     3.39712e-01     4.50995e-01
 c30bf                                  6      0.0000       0.00000       A     3.31403e-01     4.12335e-01
 c31bf                                  6      0.0000       0.00000       A     3.31460e-01     4.12646e-01
 c32bf                                  6      0.0000       0.00000       A     3.31501e-01     4.13198e-01
 c33bf                                  6      0.0000       0.00000       A     3.31497e-01     4.12822e-01
 c34bf                                  6      0.0000       0.00000       A     3.31501e-01     4.13198e-01
 c35bf                                  6      0.0000       0.00000       A     3.31460e-01     4.12646e-01
 h36bf                                  1      0.0000       0.00000       A     2.62345e-01     6.78010e-02
 h37bf                                  1      0.0000       0.00000       A     2.62464e-01     6.74084e-02
 h38bf                                  1      0.0000       0.00000       A     2.62530e-01     6.75680e-02
 h39bf                                  1      0.0000       0.00000       A     2.62513e-01     6.75409e-02
 h40bf                                  1      0.0000       0.00000       A     2.41481e-01     8.75971e-02
 h41bf                                  1      0.0000       0.00000       A     2.41481e-01     8.75971e-02
 h42bf                                  1      0.0000       0.00000       A     1.10452e-01     4.15441e-02
 h43bf                                  1      0.0000       0.00000       A     2.42273e-01     8.59675e-02
 h44bf                                  1      0.0000       0.00000       A     2.59836e-01     8.73353e-02
 h45bf                                  1      0.0000       0.00000       A     2.59836e-01     8.73353e-02
 h46bf                                  1      0.0000       0.00000       A     2.42102e-01     8.73816e-02
 h47bf                                  1      0.0000       0.00000       A     2.42102e-01     8.73816e-02
 h48bf                                  1      0.0000       0.00000       A     2.42102e-01     8.73816e-02
 h49bf                                  1      0.0000       0.00000       A     2.42102e-01     8.73816e-02
 h50bf                                  1      0.0000       0.00000       A     2.59836e-01     8.73353e-02
 h51bf                                  1      0.0000       0.00000       A     2.59836e-01     8.73353e-02
 h52bf                                  1      0.0000       0.00000       A     2.42389e-01     8.85036e-02
 h53bf                                  1      0.0000       0.00000       A     2.42389e-01     8.85036e-02
 h54bf                                  1      0.0000       0.00000       A     2.62521e-01     6.76542e-02
 h55bf                                  1      0.0000       0.00000       A     2.62458e-01     6.72983e-02
 h56bf                                  1      0.0000       0.00000       A     2.62457e-01     6.73477e-02
 h57bf                                  1      0.0000       0.00000       A     2.62458e-01     6.72983e-02
 h58bf                                  1      0.0000       0.00000       A     2.62521e-01     6.76542e-02
 h59bf                                  1      0.0000       0.00000       A     2.63023e-01     6.78601e-02

[ moleculetype ]
;name             nrexcl
 23484                 3

[ atoms ]
;       nr            type      resi   res      atom      cgnr      charge          mass ; qtot
         1            s0bf         1   UNL        s0         1     0.16958       32.0670 ; qtot    0.170
         2            c1bf         1   UNL        c1         2    -0.27035       12.0110 ; qtot   -0.101
         3            c2bf         1   UNL        c2         3     0.09509       12.0110 ; qtot   -0.006
         4            c3bf         1   UNL        c3         4    -0.17356       12.0110 ; qtot   -0.179
         5            c4bf         1   UNL        c4         5    -0.18427       12.0110 ; qtot   -0.364
         6            c5bf         1   UNL        c5         6     0.72532       12.0110 ; qtot    0.362
         7            o6bf         1   UNL        o6         7    -0.72706       15.9990 ; qtot   -0.365
         8            o7bf         1   UNL        o7         8    -0.72706       15.9990 ; qtot   -1.092
         9            c8bf         1   UNL        c8         9     0.02169       12.0110 ; qtot   -1.071
        10            c9bf         1   UNL        c9        10    -0.16640       12.0110 ; qtot   -1.237
        11           c10bf         1   UNL       c10        11     0.29996       12.0110 ; qtot   -0.937
        12           c11bf         1   UNL       c11        12    -0.17262       12.0110 ; qtot   -1.110
        13           c12bf         1   UNL       c12        13    -0.07723       12.0110 ; qtot   -1.187
        14           c13bf         1   UNL       c13        14    -0.12806       12.0110 ; qtot   -1.315
        15           o14bf         1   UNL       o14        15    -0.36047       15.9990 ; qtot   -1.675
        16           c15bf         1   UNL       c15        16    -0.01327       12.0110 ; qtot   -1.689
        17           c16bf         1   UNL       c16        17     0.70857       12.0110 ; qtot   -0.980
        18           o17bf         1   UNL       o17        18    -0.73348       15.9990 ; qtot   -1.714
        19           o18bf         1   UNL       o18        19    -0.73348       15.9990 ; qtot   -2.447
        20           n19bf         1   UNL       n19        20    -0.93549       14.0070 ; qtot   -3.383
        21           c20bf         1   UNL       c20        21     0.20483       12.0110 ; qtot   -3.178
        22           c21bf         1   UNL       c21        22    -0.10255       12.0110 ; qtot   -3.280
        23           c22bf         1   UNL       c22        23     0.20464       12.0110 ; qtot   -3.076
        24           n23bf         1   UNL       n23        24    -0.73264       14.0070 ; qtot   -3.808
        25           c24bf         1   UNL       c24        25     0.20464       12.0110 ; qtot   -3.604
        26           c25bf         1   UNL       c25        26    -0.10255       12.0110 ; qtot   -3.706
        27           s26bf         1   UNL       s26        27     1.11013       32.0670 ; qtot   -2.596
        28           o27bf         1   UNL       o27        28    -0.51620       15.9990 ; qtot   -3.112
        29           o28bf         1   UNL       o28        29    -0.51620       15.9990 ; qtot   -3.628
        30           c29bf         1   UNL       c29        30    -0.21226       12.0110 ; qtot   -3.841
        31           c30bf         1   UNL       c30        31    -0.08508       12.0110 ; qtot   -3.926
        32           c31bf         1   UNL       c31        32    -0.09243       12.0110 ; qtot   -4.018
        33           c32bf         1   UNL       c32        33    -0.11257       12.0110 ; qtot   -4.131
        34           c33bf         1   UNL       c33        34    -0.10173       12.0110 ; qtot   -4.233
        35           c34bf         1   UNL       c34        35    -0.11257       12.0110 ; qtot   -4.345
        36           c35bf         1   UNL       c35        36    -0.09243       12.0110 ; qtot   -4.438
        37           h36bf         1   UNL       h36        37     0.11623        1.0080 ; qtot   -4.321
        38           h37bf         1   UNL       h37        38     0.11684        1.0080 ; qtot   -4.204
        39           h38bf         1   UNL       h38        39     0.11521        1.0080 ; qtot   -4.089
        40           h39bf         1   UNL       h39        40     0.11820        1.0080 ; qtot   -3.971
        41           h40bf         1   UNL       h40        41     0.02299        1.0080 ; qtot   -3.948
        42           h41bf         1   UNL       h41        42     0.02299        1.0080 ; qtot   -3.925
        43           h42bf         1   UNL       h42        43     0.44904        1.0080 ; qtot   -3.476
        44           h43bf         1   UNL       h43        44     0.05842        1.0080 ; qtot   -3.418
        45           h44bf         1   UNL       h44        45     0.05820        1.0080 ; qtot   -3.359
        46           h45bf         1   UNL       h45        46     0.05820        1.0080 ; qtot   -3.301
        47           h46bf         1   UNL       h46        47     0.06313        1.0080 ; qtot   -3.238
        48           h47bf         1   UNL       h47        48     0.06313        1.0080 ; qtot   -3.175
        49           h48bf         1   UNL       h48        49     0.06313        1.0080 ; qtot   -3.112
        50           h49bf         1   UNL       h49        50     0.06313        1.0080 ; qtot   -3.049
        51           h50bf         1   UNL       h50        51     0.05820        1.0080 ; qtot   -2.991
        52           h51bf         1   UNL       h51        52     0.05820        1.0080 ; qtot   -2.932
        53           h52bf         1   UNL       h52        53     0.10108        1.0080 ; qtot   -2.831
        54           h53bf         1   UNL       h53        54     0.10108        1.0080 ; qtot   -2.730
        55           h54bf         1   UNL       h54        55     0.12105        1.0080 ; qtot   -2.609
        56           h55bf         1   UNL       h55        56     0.11650        1.0080 ; qtot   -2.493
        57           h56bf         1   UNL       h56        57     0.11320        1.0080 ; qtot   -2.379
        58           h57bf         1   UNL       h57        58     0.11650        1.0080 ; qtot   -2.263
        59           h58bf         1   UNL       h58        59     0.12105        1.0080 ; qtot   -2.142
        60           h59bf         1   UNL       h59        60     0.14186        1.0080 ; qtot   -2.000

[ bonds ]
;       ai        aj funct               r               k
         1         2     1        0.174679   142714.761401
         1         5     1        0.174896   146431.508911
         2         3     1        0.138552   329874.767627
         2         6     1        0.153665   118236.982397
         3         4     1        0.143318   240384.692188
         3        15     1        0.134839   300377.925146
         4         5     1        0.137950   354647.653467
         4        60     1        0.108241   328445.838672
         5         9     1        0.146634   229100.762891
         6         7     1        0.126124   479090.370508
         6         8     1        0.126124   479090.370508
         9        10     1        0.140518   288021.973535
         9        14     1        0.140758   283907.843066
        10        11     1        0.140736   280273.810254
        10        37     1        0.108467   319774.457812
        11        12     1        0.140989   276427.972656
        11        20     1        0.139545   278571.915137
        12        13     1        0.139570   317260.431543
        12        38     1        0.108555   319413.260938
        13        14     1        0.139560   316047.572070
        13        39     1        0.108655   318238.579443
        14        40     1        0.108532   320169.619043
        15        16     1        0.145476   155968.342407
        16        17     1        0.156559   116471.768018
        16        41     1        0.109605   291761.014941
        16        42     1        0.109605   291761.014941
        17        18     1        0.126057   487285.382129
        17        19     1        0.126057   487285.382129
        20        21     1        0.146504   195224.867969
        20        43     1        0.101297   410037.235107
        21        22     1        0.154186   170495.165381
        21        26     1        0.154186   170495.165381
        21        44     1        0.109537   296979.574316
        22        23     1        0.153128   185387.935132
        22        45     1        0.109428   299143.512354
        22        46     1        0.109428   299143.537891
        23        24     1        0.148137   169512.076050
        23        47     1        0.109356   298413.202100
        23        48     1        0.109356   298413.202100
        24        25     1        0.148137   169512.076050
        24        27     1        0.168053   153113.485107
        25        26     1        0.153128   185387.935132
        25        49     1        0.109356   298413.202100
        25        50     1        0.109356   298413.202100
        26        51     1        0.109428   299143.537891
        26        52     1        0.109428   299143.537891
        27        28     1        0.146778   513414.901367
        27        29     1        0.146778   513414.901367
        27        30     1        0.183539   116975.934399
        30        31     1        0.150078   202090.123999
        30        53     1        0.109170   310174.266748
        30        54     1        0.109170   310174.266748
        31        32     1        0.140258   290287.038525
        31        36     1        0.140258   290287.038525
        32        33     1        0.139774   313710.058301
        32        55     1        0.108643   318215.928027
        33        34     1        0.139934   306464.567480
        33        56     1        0.108626   319775.658057
        34        35     1        0.139934   306464.567480
        34        57     1        0.108629   319751.295654
        35        36     1        0.139774   313710.058301
        35        58     1        0.108626   319775.658057
        36        59     1        0.108643   318215.928027

[ angles ]
;       ai        aj        ak funct           theta             cth
         1         2         3     1      110.024803      167.360000
         1         2         6     1      115.818924      586.159464
         1         5         4     1      110.310974      167.360000
         1         5         9     1      121.447861      436.708479
         2         1         5     1       92.872826      167.360000
         2         3         4     1      113.262985      401.907720
         2         3        15     1      124.471031      463.343780
         2         6         7     1      114.946861      343.229603
         2         6         8     1      114.946861      343.229603
         3         2         6     1      133.862305      468.509491
         3         4         5     1      113.301193      430.105285
         3         4        60     1      122.363548      414.263435
         3        15        16     1      118.304054      483.648655
         4         3        15     1      121.464478      503.598341
         4         5         9     1      128.098419      426.615831
         5         4        60     1      123.830185      392.307714
         5         9        10     1      120.393227      410.623886
         5         9        14     1      120.910339      485.659703
         7         6         8     1      129.867722      707.349839
         9        10        11     1      121.534630      757.905016
         9        10        37     1      119.119644      432.573032
         9        14        13     1      119.867310      688.132526
         9        14        40     1      119.958473      443.475494
        10         9        14     1      118.818161      606.528437
        10        11        12     1      118.422195      638.540481
        10        11        20     1      120.479637      513.912013
        11        10        37     1      119.399940      430.752459
        11        12        13     1      120.154808      764.362840
        11        12        38     1      120.110031      429.854926
        11        20        21     1      122.706627      477.364483
        11        20        43     1      112.770615      497.342707
        12        11        20     1      121.205200      577.235585
        12        13        14     1      121.081223      686.444970
        12        13        39     1      119.224258      431.436279
        13        12        38     1      119.858887      427.872161
        13        14        40     1      120.045944      434.247117
        14        13        39     1      119.614464      439.947862
        15        16        17     1      114.062721      532.827286
        15        16        41     1      107.793503      454.326627
        15        16        42     1      107.793503      454.326627
        16        17        18     1      115.085220      325.076709
        16        17        19     1      115.085220      325.076709
        17        16        41     1      108.977768      478.053060
        17        16        42     1      108.977768      478.053060
        18        17        19     1      130.064850      720.626454
        20        21        22     1      111.568802      599.457212
        20        21        26     1      111.568802      599.457212
        20        21        44     1      107.355751      493.417302
        21        20        43     1      112.659531      472.392855
        21        22        23     1      111.592873      644.336447
        21        22        45     1      109.720291      495.415261
        21        22        46     1      109.720291      495.415261
        21        26        25     1      111.592873      644.336447
        21        26        51     1      109.720291      495.415261
        21        26        52     1      109.720291      495.415261
        22        21        26     1      110.012161      550.496699
        22        21        44     1      108.048447      480.145730
        22        23        24     1      109.876770      652.582635
        22        23        47     1      110.673294      495.473709
        22        23        48     1      110.673294      495.473709
        23        22        45     1      109.145676      512.611344
        23        22        46     1      109.145676      512.611344
        23        24        25     1      115.503883      498.548792
        23        24        27     1      116.852966      579.735924
        24        23        47     1      108.981468      427.477134
        24        23        48     1      108.981468      427.477134
        24        25        26     1      109.876770      652.582635
        24        25        49     1      108.981468      427.477134
        24        25        50     1      108.981468      427.477134
        24        27        28     1      108.098839      633.117931
        24        27        29     1      108.098839      633.117931
        24        27        30     1      103.072411      476.993972
        25        24        27     1      116.852966      579.735924
        25        26        51     1      109.145676      512.611344
        25        26        52     1      109.145676      512.611344
        26        21        44     1      108.048447      480.145730
        26        25        49     1      110.673294      495.473709
        26        25        50     1      110.673294      495.473709
        27        30        31     1      111.069435      630.145603
        27        30        53     1      105.103867      561.429902
        27        30        54     1      105.103867      561.429902
        28        27        29     1      120.934853      729.467912
        28        27        30     1      107.298401      608.481707
        29        27        30     1      107.298401      608.481707
        30        31        32     1      120.332436      480.212158
        30        31        36     1      120.332436      480.212158
        31        30        53     1      112.676392      471.542565
        31        30        54     1      112.676392      471.542565
        31        32        33     1      120.460205      684.857966
        31        32        55     1      119.583359      408.547336
        31        36        35     1      120.460205      684.857966
        31        36        59     1      119.583359      408.547336
        32        31        36     1      119.052284      688.213734
        32        33        34     1      120.083267      708.083648
        32        33        56     1      119.855690      428.550809
        33        32        55     1      119.984535      428.586306
        33        34        35     1      119.688011      698.088168
        33        34        57     1      120.174377      430.249666
        34        33        56     1      120.083885      428.643190
        34        35        36     1      120.083275      708.083648
        34        35        58     1      120.083885      428.643190
        35        34        57     1      120.174377      430.249666
        35        36        59     1      119.984535      428.586306
        36        35        58     1      119.855690      428.550809
        41        16        42     1      108.306885      344.525101
        45        22        46     1      107.221519      355.872324
        47        23        48     1      107.587914      345.987483
        49        25        50     1      107.587914      345.987483
        51        26        52     1      107.221519      355.872324
        53        30        54     1      109.555618      335.104557

[ dihedrals ] ; propers for gromacs 4.5 or higher, use funct 9
;       ai        aj        ak        al funct           phase               k        pn
         1         2         3         4     9        0.000000       -0.335490         1
         1         2         3         4     9      180.000000       23.658260         2
         1         2         3         4     9        0.000000       -4.649826         3
         1         2         3         4     9      180.000000       -0.629566         4
         1         2         3        15     9        0.000000        0.826491         1
         1         2         3        15     9      180.000000       21.266471         2
         1         2         3        15     9        0.000000        0.632978         3
         1         2         3        15     9      180.000000       -1.189084         4
         1         2         6         7     9        0.000000        0.740369         1
         1         2         6         7     9      180.000000        4.295554         2
         1         2         6         7     9        0.000000        0.142944         3
         1         2         6         7     9      180.000000        0.173909         4
         1         2         6         8     9        0.000000        0.740369         1
         1         2         6         8     9      180.000000        4.295554         2
         1         2         6         8     9        0.000000        0.142944         3
         1         2         6         8     9      180.000000        0.173909         4
         1         5         4         3     9        0.000000       -0.423574         1
         1         5         4         3     9      180.000000       25.429263         2
         1         5         4         3     9        0.000000       -5.522204         3
         1         5         4         3     9      180.000000       -0.649115         4
         1         5         4        60     9        0.000000        0.107318         1
         1         5         4        60     9      180.000000       14.578614         2
         1         5         4        60     9        0.000000       -0.440100         3
         1         5         4        60     9      180.000000       -0.207566         4
         1         5         9        10     9        0.000000       -0.521787         1
         1         5         9        10     9      180.000000        3.328302         2
         1         5         9        10     9        0.000000        0.020795         3
         1         5         9        10     9      180.000000        0.030541         4
         1         5         9        14     9        0.000000       -0.245649         1
         1         5         9        14     9      180.000000        3.179304         2
         1         5         9        14     9        0.000000        0.159713         3
         1         5         9        14     9      180.000000       -0.030756         4
         2         1         5         4     9        0.000000       -0.336608         1
         2         1         5         4     9      180.000000       25.276375         2
         2         1         5         4     9        0.000000       -5.104722         3
         2         1         5         4     9      180.000000       -0.384995         4
         2         1         5         9     9        0.000000       -0.198860         1
         2         1         5         9     9      180.000000       14.567028         2
         2         1         5         9     9        0.000000       -0.108418         3
         2         1         5         9     9      180.000000       -0.691649         4
         2         3         4         5     9        0.000000       -0.055827         1
         2         3         4         5     9      180.000000       16.872492         2
         2         3         4         5     9        0.000000       -3.882360         3
         2         3         4         5     9      180.000000       -0.353049         4
         2         3         4        60     9        0.000000        0.441284         1
         2         3         4        60     9      180.000000       10.027315         2
         2         3         4        60     9        0.000000       -0.244715         3
         2         3         4        60     9      180.000000       -0.087553         4
         2         3        15        16     9        0.000000       -2.259765         1
         2         3        15        16     9      180.000000        4.197359         2
         2         3        15        16     9        0.000000        0.785982         3
         2         3        15        16     9      180.000000       -0.226332         4
         3         2         1         5     9        0.000000       -0.334961         1
         3         2         1         5     9      180.000000       21.798317         2
         3         2         1         5     9        0.000000       -3.944249         3
         3         2         1         5     9      180.000000       -0.438192         4
         3         2         6         7     9        0.000000       -3.872031         1
         3         2         6         7     9      180.000000        2.633652         2
         3         2         6         7     9        0.000000        0.177989         3
         3         2         6         7     9      180.000000       -0.103905         4
         3         2         6         8     9        0.000000       -3.872031         1
         3         2         6         8     9      180.000000        2.633652         2
         3         2         6         8     9        0.000000        0.177989         3
         3         2         6         8     9      180.000000       -0.103905         4
         3         4         5         9     9        0.000000        0.213244         1
         3         4         5         9     9      180.000000       19.477692         2
         3         4         5         9     9        0.000000       -0.128165         3
         3         4         5         9     9      180.000000       -1.455919         4
         3        15        16        17     9        0.000000       -3.094259         1
         3        15        16        17     9      180.000000       -2.578386         2
         3        15        16        17     9        0.000000        0.514697         3
         3        15        16        17     9      180.000000       -0.018277         4
         3        15        16        41     9        0.000000       -0.555873         1
         3        15        16        41     9      180.000000       -0.039476         2
         3        15        16        41     9        0.000000        0.532715         3
         3        15        16        41     9      180.000000       -0.059313         4
         3        15        16        42     9        0.000000       -0.555873         1
         3        15        16        42     9      180.000000       -0.039476         2
         3        15        16        42     9        0.000000        0.532715         3
         3        15        16        42     9      180.000000       -0.059313         4
         4         3         2         6     9        0.000000       -0.348814         1
         4         3         2         6     9      180.000000       12.497952         2
         4         3         2         6     9        0.000000       -0.728414         3
         4         3         2         6     9      180.000000       -0.499098         4
         4         3        15        16     9        0.000000        1.309852         1
         4         3        15        16     9      180.000000        4.173467         2
         4         3        15        16     9        0.000000        0.709580         3
         4         3        15        16     9      180.000000       -0.138080         4
         4         5         9        10     9        0.000000       -0.216215         1
         4         5         9        10     9      180.000000        2.930120         2
         4         5         9        10     9        0.000000       -0.055143         3
         4         5         9        10     9      180.000000       -0.156902         4
         4         5         9        14     9        0.000000        0.076345         1
         4         5         9        14     9      180.000000        2.793795         2
         4         5         9        14     9        0.000000       -0.030204         3
         4         5         9        14     9      180.000000       -0.175783         4
         5         1         2         6     9        0.000000        0.307183         1
         5         1         2         6     9      180.000000        9.505984         2
         5         1         2         6     9        0.000000       -0.006867         3
         5         1         2         6     9      180.000000       -0.104093         4
         5         4         3        15     9        0.000000        0.726395         1
         5         4         3        15     9      180.000000       16.409606         2
         5         4         3        15     9        0.000000        0.656862         3
         5         4         3        15     9      180.000000       -0.612718         4
         5         9        10        11     9        0.000000        0.251974         1
         5         9        10        11     9      180.000000       15.516140         2
         5         9        10        11     9        0.000000       -0.023958         3
         5         9        10        11     9      180.000000       -0.359921         4
         5         9        10        37     9        0.000000        0.005206         1
         5         9        10        37     9      180.000000       12.776992         2
         5         9        10        37     9        0.000000       -0.230493         3
         5         9        10        37     9      180.000000        0.180906         4
         5         9        14        13     9        0.000000        0.208390         1
         5         9        14        13     9      180.000000       15.977720         2
         5         9        14        13     9        0.000000       -0.117035         3
         5         9        14        13     9      180.000000       -0.313461         4
         5         9        14        40     9        0.000000        0.012510         1
         5         9        14        40     9      180.000000       12.680761         2
         5         9        14        40     9        0.000000       -0.257043         3
         5         9        14        40     9      180.000000        0.205545         4
         6         2         3        15     9        0.000000        0.001622         1
         6         2         3        15     9      180.000000       14.683857         2
         6         2         3        15     9        0.000000        0.481645         3
         6         2         3        15     9      180.000000       -0.715375         4
         9         5         4        60     9        0.000000       -0.034570         1
         9         5         4        60     9      180.000000       13.346806         2
         9         5         4        60     9        0.000000       -0.287506         3
         9         5         4        60     9      180.000000       -0.007456         4
         9        10        11        12     9        0.000000        0.020418         1
         9        10        11        12     9      180.000000       15.577464         2
         9        10        11        12     9        0.000000       -0.823684         3
         9        10        11        12     9      180.000000       -0.195643         4
         9        10        11        20     9        0.000000        0.199571         1
         9        10        11        20     9      180.000000       17.170255         2
         9        10        11        20     9        0.000000        0.299413         3
         9        10        11        20     9      180.000000       -0.430888         4
         9        14        13        12     9        0.000000        0.022188         1
         9        14        13        12     9      180.000000       18.726255         2
         9        14        13        12     9        0.000000       -1.566955         3
         9        14        13        12     9      180.000000       -0.374617         4
         9        14        13        39     9        0.000000       -0.032020         1
         9        14        13        39     9      180.000000       14.890427         2
         9        14        13        39     9        0.000000       -0.531048         3
         9        14        13        39     9      180.000000        0.087884         4
        10         9        14        13     9        0.000000       -0.105670         1
        10         9        14        13     9      180.000000       17.561268         2
        10         9        14        13     9        0.000000       -1.273825         3
        10         9        14        13     9      180.000000       -0.235001         4
        10         9        14        40     9        0.000000       -0.125849         1
        10         9        14        40     9      180.000000       13.421392         2
        10         9        14        40     9        0.000000       -0.547505         3
        10         9        14        40     9      180.000000        0.127245         4
        10        11        12        13     9        0.000000        0.085110         1
        10        11        12        13     9      180.000000       15.430516         2
        10        11        12        13     9        0.000000       -0.759972         3
        10        11        12        13     9      180.000000       -0.156494         4
        10        11        12        38     9        0.000000        0.117805         1
        10        11        12        38     9      180.000000       12.232736         2
        10        11        12        38     9        0.000000       -0.296326         3
        10        11        12        38     9      180.000000        0.142814         4
        10        11        20        21     9        0.000000        0.183241         1
        10        11        20        21     9      180.000000        4.209813         2
        10        11        20        21     9        0.000000        0.407912         3
        10        11        20        21     9      180.000000       -0.120182         4
        10        11        20        43     9        0.000000        0.549549         1
        10        11        20        43     9      180.000000        5.433756         2
        10        11        20        43     9        0.000000        0.019982         3
        10        11        20        43     9      180.000000       -0.447963         4
        11        10         9        14     9        0.000000       -0.248484         1
        11        10         9        14     9      180.000000       17.400970         2
        11        10         9        14     9        0.000000       -1.462138         3
        11        10         9        14     9      180.000000       -0.377394         4
        11        12        13        14     9        0.000000       -0.049386         1
        11        12        13        14     9      180.000000       17.973157         2
        11        12        13        14     9        0.000000       -1.578979         3
        11        12        13        14     9      180.000000       -0.419984         4
        11        12        13        39     9        0.000000        0.016942         1
        11        12        13        39     9      180.000000       14.276363         2
        11        12        13        39     9        0.000000       -0.581911         3
        11        12        13        39     9      180.000000        0.067359         4
        11        20        21        22     9        0.000000        1.181867         1
        11        20        21        22     9      180.000000        0.125592         2
        11        20        21        22     9        0.000000        1.128134         3
        11        20        21        22     9      180.000000        0.035376         4
        11        20        21        26     9        0.000000        1.181867         1
        11        20        21        26     9      180.000000        0.125592         2
        11        20        21        26     9        0.000000        1.128134         3
        11        20        21        26     9      180.000000        0.035376         4
        11        20        21        44     9        0.000000       -1.384429         1
        11        20        21        44     9      180.000000        0.027975         2
        11        20        21        44     9        0.000000        1.384360         3
        11        20        21        44     9      180.000000       -0.052368         4
        12        11        10        37     9        0.000000        0.094111         1
        12        11        10        37     9      180.000000       12.280250         2
        12        11        10        37     9        0.000000       -0.330058         3
        12        11        10        37     9      180.000000        0.182077         4
        12        11        20        21     9        0.000000        0.341931         1
        12        11        20        21     9      180.000000        4.177048         2
        12        11        20        21     9        0.000000        0.573814         3
        12        11        20        21     9      180.000000       -0.174617         4
        12        11        20        43     9        0.000000       -0.037696         1
        12        11        20        43     9      180.000000        5.473717         2
        12        11        20        43     9        0.000000        0.053881         3
        12        11        20        43     9      180.000000       -0.452250         4
        12        13        14        40     9        0.000000        0.046477         1
        12        13        14        40     9      180.000000       14.458056         2
        12        13        14        40     9        0.000000       -0.730610         3
        12        13        14        40     9      180.000000        0.174533         4
        13        12        11        20     9        0.000000        0.254356         1
        13        12        11        20     9      180.000000       16.909080         2
        13        12        11        20     9        0.000000        0.151268         3
        13        12        11        20     9      180.000000       -0.177572         4
        14         9        10        37     9        0.000000       -0.008782         1
        14         9        10        37     9      180.000000       13.439938         2
        14         9        10        37     9        0.000000       -0.486908         3
        14         9        10        37     9      180.000000        0.126114         4
        14        13        12        38     9        0.000000        0.095864         1
        14        13        12        38     9      180.000000       14.085831         2
        14        13        12        38     9        0.000000       -0.646506         3
        14        13        12        38     9      180.000000        0.140969         4
        15         3         4        60     9        0.000000        0.203178         1
        15         3         4        60     9      180.000000       12.080551         2
        15         3         4        60     9        0.000000        0.217024         3
        15         3         4        60     9      180.000000        0.059093         4
        15        16        17        18     9        0.000000       -1.526920         1
        15        16        17        18     9      180.000000        3.960794         2
        15        16        17        18     9        0.000000        0.241060         3
        15        16        17        18     9      180.000000        0.138515         4
        15        16        17        19     9        0.000000       -1.526920         1
        15        16        17        19     9      180.000000        3.960794         2
        15        16        17        19     9        0.000000        0.241060         3
        15        16        17        19     9      180.000000        0.138515         4
        18        17        16        41     9        0.000000        0.045273         1
        18        17        16        41     9      180.000000       -0.331340         2
        18        17        16        41     9        0.000000        0.139004         3
        18        17        16        41     9      180.000000        0.063391         4
        18        17        16        42     9        0.000000        0.045273         1
        18        17        16        42     9      180.000000       -0.331340         2
        18        17        16        42     9        0.000000        0.139004         3
        18        17        16        42     9      180.000000        0.063391         4
        19        17        16        41     9        0.000000        0.045273         1
        19        17        16        41     9      180.000000       -0.331340         2
        19        17        16        41     9        0.000000        0.139004         3
        19        17        16        41     9      180.000000        0.063391         4
        19        17        16        42     9        0.000000        0.045273         1
        19        17        16        42     9      180.000000       -0.331340         2
        19        17        16        42     9        0.000000        0.139004         3
        19        17        16        42     9      180.000000        0.063391         4
        20        11        10        37     9        0.000000       -0.221742         1
        20        11        10        37     9      180.000000       14.120292         2
        20        11        10        37     9        0.000000       -0.030499         3
        20        11        10        37     9      180.000000        0.252669         4
        20        11        12        38     9        0.000000       -0.293365         1
        20        11        12        38     9      180.000000       13.806795         2
        20        11        12        38     9        0.000000       -0.098357         3
        20        11        12        38     9      180.000000        0.262289         4
        20        21        22        23     9        0.000000       -1.875284         1
        20        21        22        23     9      180.000000       -0.960374         2
        20        21        22        23     9        0.000000        0.142634         3
        20        21        22        23     9      180.000000        0.337243         4
        20        21        22        45     9        0.000000        0.026269         1
        20        21        22        45     9      180.000000        0.064111         2
        20        21        22        45     9        0.000000        0.295934         3
        20        21        22        45     9      180.000000       -0.023857         4
        20        21        22        46     9        0.000000        0.026269         1
        20        21        22        46     9      180.000000        0.064111         2
        20        21        22        46     9        0.000000        0.295934         3
        20        21        22        46     9      180.000000       -0.023857         4
        20        21        26        25     9        0.000000       -1.875284         1
        20        21        26        25     9      180.000000       -0.960374         2
        20        21        26        25     9        0.000000        0.142634         3
        20        21        26        25     9      180.000000        0.337243         4
        20        21        26        51     9        0.000000        0.026269         1
        20        21        26        51     9      180.000000        0.064111         2
        20        21        26        51     9        0.000000        0.295934         3
        20        21        26        51     9      180.000000       -0.023857         4
        20        21        26        52     9        0.000000        0.026269         1
        20        21        26        52     9      180.000000        0.064111         2
        20        21        26        52     9        0.000000        0.295934         3
        20        21        26        52     9      180.000000       -0.023857         4
        21        22        23        24     9        0.000000        0.005650         1
        21        22        23        24     9      180.000000       -1.873272         2
        21        22        23        24     9        0.000000        0.265195         3
        21        22        23        24     9      180.000000        0.036648         4
        21        22        23        47     9        0.000000       -0.002388         1
        21        22        23        47     9      180.000000        0.062581         2
        21        22        23        47     9        0.000000        0.158267         3
        21        22        23        47     9      180.000000        0.019930         4
        21        22        23        48     9        0.000000       -0.002388         1
        21        22        23        48     9      180.000000        0.062581         2
        21        22        23        48     9        0.000000        0.158267         3
        21        22        23        48     9      180.000000        0.019930         4
        21        26        25        24     9        0.000000        0.005650         1
        21        26        25        24     9      180.000000       -1.873272         2
        21        26        25        24     9        0.000000        0.265195         3
        21        26        25        24     9      180.000000        0.036648         4
        21        26        25        49     9        0.000000       -0.002388         1
        21        26        25        49     9      180.000000        0.062581         2
        21        26        25        49     9        0.000000        0.158267         3
        21        26        25        49     9      180.000000        0.019930         4
        21        26        25        50     9        0.000000       -0.002388         1
        21        26        25        50     9      180.000000        0.062581         2
        21        26        25        50     9        0.000000        0.158267         3
        21        26        25        50     9      180.000000        0.019930         4
        22        21        20        43     9        0.000000       -0.201558         1
        22        21        20        43     9      180.000000       -0.067461         2
        22        21        20        43     9        0.000000       -0.036021         3
        22        21        20        43     9      180.000000        0.082091         4
        22        21        26        25     9        0.000000        2.449754         1
        22        21        26        25     9      180.000000       -2.834778         2
        22        21        26        25     9        0.000000        0.040636         3
        22        21        26        25     9      180.000000        0.193934         4
        22        21        26        51     9        0.000000       -0.049302         1
        22        21        26        51     9      180.000000        0.073596         2
        22        21        26        51     9        0.000000        0.268365         3
        22        21        26        51     9      180.000000        0.021051         4
        22        21        26        52     9        0.000000       -0.049302         1
        22        21        26        52     9      180.000000        0.073596         2
        22        21        26        52     9        0.000000        0.268365         3
        22        21        26        52     9      180.000000        0.021051         4
        22        23        24        25     9        0.000000        3.570595         1
        22        23        24        25     9      180.000000       -1.802065         2
        22        23        24        25     9        0.000000        0.359639         3
        22        23        24        25     9      180.000000        0.253193         4
        22        23        24        27     9        0.000000       -5.499896         1
        22        23        24        27     9      180.000000        0.628786         2
        22        23        24        27     9        0.000000        0.210263         3
        22        23        24        27     9      180.000000       -0.450847         4
        23        22        21        26     9        0.000000        2.449754         1
        23        22        21        26     9      180.000000       -2.834778         2
        23        22        21        26     9        0.000000        0.040636         3
        23        22        21        26     9      180.000000        0.193934         4
        23        22        21        44     9        0.000000       -0.262713         1
        23        22        21        44     9      180.000000       -0.028615         2
        23        22        21        44     9        0.000000        0.189212         3
        23        22        21        44     9      180.000000        0.052117         4
        23        24        25        26     9        0.000000        3.570595         1
        23        24        25        26     9      180.000000       -1.802065         2
        23        24        25        26     9        0.000000        0.359639         3
        23        24        25        26     9      180.000000        0.253193         4
        23        24        25        49     9        0.000000       -0.045242         1
        23        24        25        49     9      180.000000        0.259789         2
        23        24        25        49     9        0.000000        0.754464         3
        23        24        25        49     9      180.000000        0.050508         4
        23        24        25        50     9        0.000000       -0.045242         1
        23        24        25        50     9      180.000000        0.259789         2
        23        24        25        50     9        0.000000        0.754464         3
        23        24        25        50     9      180.000000        0.050508         4
        23        24        27        28     9        0.000000        0.124416         1
        23        24        27        28     9      180.000000        1.256065         2
        23        24        27        28     9        0.000000        0.617960         3
        23        24        27        28     9      180.000000        0.014254         4
        23        24        27        29     9        0.000000        0.124416         1
        23        24        27        29     9      180.000000        1.256065         2
        23        24        27        29     9        0.000000        0.617960         3
        23        24        27        29     9      180.000000        0.014254         4
        23        24        27        30     9        0.000000       -1.228542         1
        23        24        27        30     9      180.000000       -4.275192         2
        23        24        27        30     9        0.000000        0.724940         3
        23        24        27        30     9      180.000000       -1.276505         4
        24        23        22        45     9        0.000000        0.008529         1
        24        23        22        45     9      180.000000        0.045373         2
        24        23        22        45     9        0.000000        0.198974         3
        24        23        22        45     9      180.000000       -0.046745         4
        24        23        22        46     9        0.000000        0.008529         1
        24        23        22        46     9      180.000000        0.045374         2
        24        23        22        46     9        0.000000        0.198974         3
        24        23        22        46     9      180.000000       -0.046745         4
        24        25        26        51     9        0.000000        0.008529         1
        24        25        26        51     9      180.000000        0.045374         2
        24        25        26        51     9        0.000000        0.198974         3
        24        25        26        51     9      180.000000       -0.046745         4
        24        25        26        52     9        0.000000        0.008529         1
        24        25        26        52     9      180.000000        0.045374         2
        24        25        26        52     9        0.000000        0.198974         3
        24        25        26        52     9      180.000000       -0.046745         4
        24        27        30        31     9        0.000000       -1.293513         1
        24        27        30        31     9      180.000000       -0.035629         2
        24        27        30        31     9        0.000000        0.601590         3
        24        27        30        31     9      180.000000       -0.013748         4
        24        27        30        53     9        0.000000        0.293495         1
        24        27        30        53     9      180.000000        0.083644         2
        24        27        30        53     9        0.000000        0.510514         3
        24        27        30        53     9      180.000000        0.050765         4
        24        27        30        54     9        0.000000        0.293495         1
        24        27        30        54     9      180.000000        0.083644         2
        24        27        30        54     9        0.000000        0.510514         3
        24        27        30        54     9      180.000000        0.050765         4
        25        24        23        47     9        0.000000       -0.045242         1
        25        24        23        47     9      180.000000        0.259789         2
        25        24        23        47     9        0.000000        0.754464         3
        25        24        23        47     9      180.000000        0.050508         4
        25        24        23        48     9        0.000000       -0.045242         1
        25        24        23        48     9      180.000000        0.259789         2
        25        24        23        48     9        0.000000        0.754464         3
        25        24        23        48     9      180.000000        0.050508         4
        25        24        27        28     9        0.000000        0.124416         1
        25        24        27        28     9      180.000000        1.256065         2
        25        24        27        28     9        0.000000        0.617960         3
        25        24        27        28     9      180.000000        0.014254         4
        25        24        27        29     9        0.000000        0.124416         1
        25        24        27        29     9      180.000000        1.256065         2
        25        24        27        29     9        0.000000        0.617960         3
        25        24        27        29     9      180.000000        0.014254         4
        25        24        27        30     9        0.000000       -1.228542         1
        25        24        27        30     9      180.000000       -4.275192         2
        25        24        27        30     9        0.000000        0.724940         3
        25        24        27        30     9      180.000000       -1.276505         4
        25        26        21        44     9        0.000000       -0.262713         1
        25        26        21        44     9      180.000000       -0.028615         2
        25        26        21        44     9        0.000000        0.189212         3
        25        26        21        44     9      180.000000        0.052117         4
        26        21        20        43     9        0.000000       -0.201558         1
        26        21        20        43     9      180.000000       -0.067461         2
        26        21        20        43     9        0.000000       -0.036021         3
        26        21        20        43     9      180.000000        0.082091         4
        26        21        22        45     9        0.000000       -0.049302         1
        26        21        22        45     9      180.000000        0.073596         2
        26        21        22        45     9        0.000000        0.268366         3
        26        21        22        45     9      180.000000        0.021050         4
        26        21        22        46     9        0.000000       -0.049302         1
        26        21        22        46     9      180.000000        0.073596         2
        26        21        22        46     9        0.000000        0.268365         3
        26        21        22        46     9      180.000000        0.021051         4
        26        25        24        27     9        0.000000       -5.499896         1
        26        25        24        27     9      180.000000        0.628786         2
        26        25        24        27     9        0.000000        0.210263         3
        26        25        24        27     9      180.000000       -0.450847         4
        27        24        23        47     9        0.000000        0.093038         1
        27        24        23        47     9      180.000000        0.061678         2
        27        24        23        47     9        0.000000        0.212638         3
        27        24        23        47     9      180.000000        0.038559         4
        27        24        23        48     9        0.000000        0.093038         1
        27        24        23        48     9      180.000000        0.061678         2
        27        24        23        48     9        0.000000        0.212638         3
        27        24        23        48     9      180.000000        0.038559         4
        27        24        25        49     9        0.000000        0.093038         1
        27        24        25        49     9      180.000000        0.061678         2
        27        24        25        49     9        0.000000        0.212638         3
        27        24        25        49     9      180.000000        0.038559         4
        27        24        25        50     9        0.000000        0.093038         1
        27        24        25        50     9      180.000000        0.061678         2
        27        24        25        50     9        0.000000        0.212638         3
        27        24        25        50     9      180.000000        0.038559         4
        27        30        31        32     9        0.000000       -0.683863         1
        27        30        31        32     9      180.000000       -0.710244         2
        27        30        31        32     9        0.000000        0.148329         3
        27        30        31        32     9      180.000000        0.066425         4
        27        30        31        36     9        0.000000       -0.683863         1
        27        30        31        36     9      180.000000       -0.710244         2
        27        30        31        36     9        0.000000        0.148329         3
        27        30        31        36     9      180.000000        0.066425         4
        28        27        30        31     9        0.000000        0.034861         1
        28        27        30        31     9      180.000000        0.137576         2
        28        27        30        31     9        0.000000        0.545522         3
        28        27        30        31     9      180.000000       -0.065435         4
        28        27        30        53     9        0.000000       -0.009452         1
        28        27        30        53     9      180.000000        0.063614         2
        28        27        30        53     9        0.000000        0.502239         3
        28        27        30        53     9      180.000000        0.016510         4
        28        27        30        54     9        0.000000       -0.009452         1
        28        27        30        54     9      180.000000        0.063614         2
        28        27        30        54     9        0.000000        0.502239         3
        28        27        30        54     9      180.000000        0.016510         4
        29        27        30        31     9        0.000000        0.034861         1
        29        27        30        31     9      180.000000        0.137576         2
        29        27        30        31     9        0.000000        0.545522         3
        29        27        30        31     9      180.000000       -0.065435         4
        29        27        30        53     9        0.000000       -0.009452         1
        29        27        30        53     9      180.000000        0.063614         2
        29        27        30        53     9        0.000000        0.502239         3
        29        27        30        53     9      180.000000        0.016510         4
        29        27        30        54     9        0.000000       -0.009452         1
        29        27        30        54     9      180.000000        0.063614         2
        29        27        30        54     9        0.000000        0.502239         3
        29        27        30        54     9      180.000000        0.016510         4
        30        31        32        33     9        0.000000        0.002642         1
        30        31        32        33     9      180.000000       15.329175         2
        30        31        32        33     9        0.000000       -0.223718         3
        30        31        32        33     9      180.000000       -0.133890         4
        30        31        32        55     9        0.000000       -0.142436         1
        30        31        32        55     9      180.000000       12.806420         2
        30        31        32        55     9        0.000000       -0.467082         3
        30        31        32        55     9      180.000000        0.205934         4
        30        31        36        35     9        0.000000        0.002642         1
        30        31        36        35     9      180.000000       15.329175         2
        30        31        36        35     9        0.000000       -0.223718         3
        30        31        36        35     9      180.000000       -0.133890         4
        30        31        36        59     9        0.000000       -0.142436         1
        30        31        36        59     9      180.000000       12.806420         2
        30        31        36        59     9        0.000000       -0.467082         3
        30        31        36        59     9      180.000000        0.205934         4
        31        32        33        34     9        0.000000        0.072919         1
        31        32        33        34     9      180.000000       18.629533         2
        31        32        33        34     9        0.000000       -1.505709         3
        31        32        33        34     9      180.000000       -0.387820         4
        31        32        33        56     9        0.000000        0.065519         1
        31        32        33        56     9      180.000000       14.561451         2
        31        32        33        56     9        0.000000       -0.662113         3
        31        32        33        56     9      180.000000        0.121013         4
        31        36        35        34     9        0.000000        0.072919         1
        31        36        35        34     9      180.000000       18.629533         2
        31        36        35        34     9        0.000000       -1.505709         3
        31        36        35        34     9      180.000000       -0.387820         4
        31        36        35        58     9        0.000000        0.065519         1
        31        36        35        58     9      180.000000       14.561451         2
        31        36        35        58     9        0.000000       -0.662113         3
        31        36        35        58     9      180.000000        0.121013         4
        32        31        30        53     9        0.000000        0.073471         1
        32        31        30        53     9      180.000000        0.468190         2
        32        31        30        53     9        0.000000        0.210416         3
        32        31        30        53     9      180.000000        0.006334         4
        32        31        30        54     9        0.000000        0.073471         1
        32        31        30        54     9      180.000000        0.468190         2
        32        31        30        54     9        0.000000        0.210416         3
        32        31        30        54     9      180.000000        0.006334         4
        32        31        36        35     9        0.000000       -0.016429         1
        32        31        36        35     9      180.000000       18.992794         2
        32        31        36        35     9        0.000000       -1.466578         3
        32        31        36        35     9      180.000000       -0.435906         4
        32        31        36        59     9        0.000000        0.057233         1
        32        31        36        59     9      180.000000       14.146108         2
        32        31        36        59     9        0.000000       -0.615035         3
        32        31        36        59     9      180.000000        0.054584         4
        32        33        34        35     9        0.000000       -0.042239         1
        32        33        34        35     9      180.000000       18.545190         2
        32        33        34        35     9        0.000000       -1.655935         3
        32        33        34        35     9      180.000000       -0.377441         4
        32        33        34        57     9        0.000000        0.044272         1
        32        33        34        57     9      180.000000       14.491251         2
        32        33        34        57     9        0.000000       -0.797966         3
        32        33        34        57     9      180.000000        0.110451         4
        33        32        31        36     9        0.000000       -0.016429         1
        33        32        31        36     9      180.000000       18.992794         2
        33        32        31        36     9        0.000000       -1.466578         3
        33        32        31        36     9      180.000000       -0.435906         4
        33        34        35        36     9        0.000000       -0.042239         1
        33        34        35        36     9      180.000000       18.545190         2
        33        34        35        36     9        0.000000       -1.655935         3
        33        34        35        36     9      180.000000       -0.377441         4
        33        34        35        58     9        0.000000        0.010067         1
        33        34        35        58     9      180.000000       14.248561         2
        33        34        35        58     9        0.000000       -0.800275         3
        33        34        35        58     9      180.000000        0.153151         4
        34        33        32        55     9        0.000000        0.099180         1
        34        33        32        55     9      180.000000       14.691068         2
        34        33        32        55     9        0.000000       -0.681452         3
        34        33        32        55     9      180.000000        0.131803         4
        34        35        36        59     9        0.000000        0.099180         1
        34        35        36        59     9      180.000000       14.691068         2
        34        35        36        59     9        0.000000       -0.681452         3
        34        35        36        59     9      180.000000        0.131803         4
        35        34        33        56     9        0.000000        0.010067         1
        35        34        33        56     9      180.000000       14.248561         2
        35        34        33        56     9        0.000000       -0.800275         3
        35        34        33        56     9      180.000000        0.153151         4
        36        31        30        53     9        0.000000        0.073471         1
        36        31        30        53     9      180.000000        0.468190         2
        36        31        30        53     9        0.000000        0.210416         3
        36        31        30        53     9      180.000000        0.006334         4
        36        31        30        54     9        0.000000        0.073471         1
        36        31        30        54     9      180.000000        0.468190         2
        36        31        30        54     9        0.000000        0.210416         3
        36        31        30        54     9      180.000000        0.006334         4
        36        31        32        55     9        0.000000        0.057233         1
        36        31        32        55     9      180.000000       14.146108         2
        36        31        32        55     9        0.000000       -0.615035         3
        36        31        32        55     9      180.000000        0.054584         4
        36        35        34        57     9        0.000000        0.044272         1
        36        35        34        57     9      180.000000       14.491251         2
        36        35        34        57     9        0.000000       -0.797966         3
        36        35        34        57     9      180.000000        0.110451         4
        38        12        13        39     9        0.000000       -0.139149         1
        38        12        13        39     9      180.000000       11.679764         2
        38        12        13        39     9        0.000000       -0.530097         3
        38        12        13        39     9      180.000000        0.235346         4
        39        13        14        40     9        0.000000       -0.211566         1
        39        13        14        40     9      180.000000       11.902594         2
        39        13        14        40     9        0.000000       -0.654688         3
        39        13        14        40     9      180.000000        0.307387         4
        43        20        21        44     9        0.000000       -0.449362         1
        43        20        21        44     9      180.000000       -0.598442         2
        43        20        21        44     9        0.000000        0.007449         3
        43        20        21        44     9      180.000000        0.011988         4
        44        21        22        45     9        0.000000       -0.021624         1
        44        21        22        45     9      180.000000        0.010471         2
        44        21        22        45     9        0.000000        0.289293         3
        44        21        22        45     9      180.000000        0.061297         4
        44        21        22        46     9        0.000000       -0.021624         1
        44        21        22        46     9      180.000000        0.010472         2
        44        21        22        46     9        0.000000        0.289292         3
        44        21        22        46     9      180.000000        0.061297         4
        44        21        26        51     9        0.000000       -0.021624         1
        44        21        26        51     9      180.000000        0.010472         2
        44        21        26        51     9        0.000000        0.289292         3
        44        21        26        51     9      180.000000        0.061297         4
        44        21        26        52     9        0.000000       -0.021624         1
        44        21        26        52     9      180.000000        0.010472         2
        44        21        26        52     9        0.000000        0.289292         3
        44        21        26        52     9      180.000000        0.061297         4
        45        22        23        47     9        0.000000        0.027766         1
        45        22        23        47     9      180.000000       -0.007818         2
        45        22        23        47     9        0.000000        0.228742         3
        45        22        23        47     9      180.000000        0.021319         4
        45        22        23        48     9        0.000000        0.027766         1
        45        22        23        48     9      180.000000       -0.007818         2
        45        22        23        48     9        0.000000        0.228742         3
        45        22        23        48     9      180.000000        0.021319         4
        46        22        23        47     9        0.000000        0.027766         1
        46        22        23        47     9      180.000000       -0.007817         2
        46        22        23        47     9        0.000000        0.228742         3
        46        22        23        47     9      180.000000        0.021320         4
        46        22        23        48     9        0.000000        0.027766         1
        46        22        23        48     9      180.000000       -0.007817         2
        46        22        23        48     9        0.000000        0.228742         3
        46        22        23        48     9      180.000000        0.021320         4
        49        25        26        51     9        0.000000        0.027766         1
        49        25        26        51     9      180.000000       -0.007817         2
        49        25        26        51     9        0.000000        0.228742         3
        49        25        26        51     9      180.000000        0.021320         4
        49        25        26        52     9        0.000000        0.027766         1
        49        25        26        52     9      180.000000       -0.007817         2
        49        25        26        52     9        0.000000        0.228742         3
        49        25        26        52     9      180.000000        0.021320         4
        50        25        26        51     9        0.000000        0.027766         1
        50        25        26        51     9      180.000000       -0.007817         2
        50        25        26        51     9        0.000000        0.228742         3
        50        25        26        51     9      180.000000        0.021320         4
        50        25        26        52     9        0.000000        0.027766         1
        50        25        26        52     9      180.000000       -0.007817         2
        50        25        26        52     9        0.000000        0.228742         3
        50        25        26        52     9      180.000000        0.021320         4
        55        32        33        56     9        0.000000       -0.075054         1
        55        32        33        56     9      180.000000       11.882012         2
        55        32        33        56     9        0.000000       -0.701535         3
        55        32        33        56     9      180.000000        0.311132         4
        56        33        34        57     9        0.000000       -0.075951         1
        56        33        34        57     9      180.000000       11.581401         2
        56        33        34        57     9        0.000000       -0.597888         3
        56        33        34        57     9      180.000000        0.262465         4
        57        34        35        58     9        0.000000       -0.075951         1
        57        34        35        58     9      180.000000       11.581402         2
        57        34        35        58     9        0.000000       -0.597888         3
        57        34        35        58     9      180.000000        0.262465         4
        58        35        36        59     9        0.000000       -0.075054         1
        58        35        36        59     9      180.000000       11.882012         2
        58        35        36        59     9        0.000000       -0.701535         3
        58        35        36        59     9      180.000000        0.311132         4

[ dihedrals ] ; impropers
;       ai        aj        ak        al funct           phase               k        pn
         6         2         7         8     4      180.000000       27.893333         2
         6         7         8         2     4      180.000000       27.893333         2
         6         8         2         7     4      180.000000       27.893333         2
        17        16        18        19     4      180.000000       27.893333         2
        17        18        19        16     4      180.000000       27.893333         2
        17        19        16        18     4      180.000000       27.893333         2
        33        32        34        56     4      180.000000        0.240374         2
        33        34        56        32     4      180.000000        0.240374         2
        33        56        32        34     4      180.000000        0.240374         2
        34        33        35        57     4      180.000000        0.857013         2
        34        35        57        33     4      180.000000        0.857013         2
        34        57        33        35     4      180.000000        0.857013         2
        35        34        36        58     4      180.000000        0.240374         2
        35        36        58        34     4      180.000000        0.240374         2
        35        58        34        36     4      180.000000        0.240374         2

[ pairs ]
;       ai        aj funct
         1         7     1
         1         8     1
         1        10     1
         1        14     1
         1        15     1
         1        60     1
         2         9     1
         2        16     1
         2        60     1
         3         7     1
         3         8     1
         3         9     1
         3        17     1
         3        41     1
         3        42     1
         4         6     1
         4        10     1
         4        14     1
         4        16     1
         5         6     1
         5        11     1
         5        13     1
         5        15     1
         5        37     1
         5        40     1
         6        15     1
         9        12     1
         9        20     1
         9        39     1
         9        60     1
        10        13     1
        10        21     1
        10        38     1
        10        40     1
        10        43     1
        11        14     1
        11        22     1
        11        26     1
        11        39     1
        11        44     1
        12        21     1
        12        37     1
        12        40     1
        12        43     1
        13        20     1
        14        37     1
        14        38     1
        15        18     1
        15        19     1
        15        60     1
        18        41     1
        18        42     1
        19        41     1
        19        42     1
        20        23     1
        20        25     1
        20        37     1
        20        38     1
        20        45     1
        20        46     1
        20        51     1
        20        52     1
        21        24     1
        21        47     1
        21        48     1
        21        49     1
        21        50     1
        22        25     1
        22        27     1
        22        43     1
        22        51     1
        22        52     1
        23        26     1
        23        28     1
        23        29     1
        23        30     1
        23        44     1
        23        49     1
        23        50     1
        24        31     1
        24        45     1
        24        46     1
        24        51     1
        24        52     1
        24        53     1
        24        54     1
        25        28     1
        25        29     1
        25        30     1
        25        44     1
        25        47     1
        25        48     1
        26        27     1
        26        43     1
        26        45     1
        26        46     1
        27        32     1
        27        36     1
        27        47     1
        27        48     1
        27        49     1
        27        50     1
        28        31     1
        28        53     1
        28        54     1
        29        31     1
        29        53     1
        29        54     1
        30        33     1
        30        35     1
        30        55     1
        30        59     1
        31        34     1
        31        56     1
        31        58     1
        32        35     1
        32        53     1
        32        54     1
        32        57     1
        32        59     1
        33        36     1
        33        58     1
        34        55     1
        34        59     1
        35        56     1
        36        53     1
        36        54     1
        36        55     1
        36        57     1
        38        39     1
        39        40     1
        43        44     1
        44        45     1
        44        46     1
        44        51     1
        44        52     1
        45        47     1
        45        48     1
        46        47     1
        46        48     1
        49        51     1
        49        52     1
        50        51     1
        50        52     1
        55        56     1
        56        57     1
        57        58     1
        58        59     1
