; ITP file created by ByteFF-ML, 2026-02-21 08:24:28.642696

[ atomtypes ]
;name           bonded.type        at.num        mass        charge   ptype           sigma         epsilon
 s0bf                                  16      0.0000       0.00000       A     3.53064e-01     1.17901e+00
 c1bf                                   6      0.0000       0.00000       A     3.31755e-01     4.09816e-01
 c2bf                                   6      0.0000       0.00000       A     3.31349e-01     4.08441e-01
 c3bf                                   6      0.0000       0.00000       A     3.31198e-01     4.12218e-01
 c4bf                                   6      0.0000       0.00000       A     3.31630e-01     4.13561e-01
 c5bf                                   6      0.0000       0.00000       A     3.31455e-01     4.10610e-01
 o6bf                                   8      0.0000       0.00000       A     3.05104e-01     6.09960e-01
 o7bf                                   8      0.0000       0.00000       A     3.05104e-01     6.09960e-01
 c8bf                                   6      0.0000       0.00000       A     3.31407e-01     4.09944e-01
 c9bf                                   6      0.0000       0.00000       A     3.31733e-01     4.14065e-01
 c10bf                                  6      0.0000       0.00000       A     3.31483e-01     4.11278e-01
 c11bf                                  6      0.0000       0.00000       A     3.31454e-01     4.12646e-01
 c12bf                                  6      0.0000       0.00000       A     3.31487e-01     4.13404e-01
 c13bf                                  6      0.0000       0.00000       A     3.31465e-01     4.11762e-01
 br14bf                                35      0.0000       0.00000       A     3.61379e-01     1.65034e+00
 o15bf                                  8      0.0000       0.00000       A     3.15911e-01     3.03161e-01
 c16bf                                  6      0.0000       0.00000       A     3.39643e-01     4.49664e-01
 c17bf                                  6      0.0000       0.00000       A     3.31634e-01     4.10394e-01
 o18bf                                  8      0.0000       0.00000       A     3.04741e-01     6.09601e-01
 o19bf                                  8      0.0000       0.00000       A     3.04741e-01     6.09601e-01
 n20bf                                  7      0.0000       0.00000       A     3.28017e-01     6.43762e-01
 c21bf                                  6      0.0000       0.00000       A     3.39808e-01     4.52002e-01
 c22bf                                  6      0.0000       0.00000       A     3.39828e-01     4.49669e-01
 c23bf                                  6      0.0000       0.00000       A     3.39618e-01     4.48700e-01
 n24bf                                  7      0.0000       0.00000       A     3.36663e-01     3.58107e-01
 c25bf                                  6      0.0000       0.00000       A     3.39618e-01     4.48700e-01
 c26bf                                  6      0.0000       0.00000       A     3.39828e-01     4.49669e-01
 s27bf                                 16      0.0000       0.00000       A     4.06252e-01     2.57717e-01
 o28bf                                  8      0.0000       0.00000       A     3.04855e-01     6.11006e-01
 o29bf                                  8      0.0000       0.00000       A     3.04855e-01     6.11006e-01
 c30bf                                  6      0.0000       0.00000       A     3.39672e-01     4.49809e-01
 h31bf                                  1      0.0000       0.00000       A     2.62345e-01     6.78010e-02
 h32bf                                  1      0.0000       0.00000       A     2.62464e-01     6.74084e-02
 h33bf                                  1      0.0000       0.00000       A     2.62530e-01     6.75680e-02
 h34bf                                  1      0.0000       0.00000       A     2.62513e-01     6.75409e-02
 h35bf                                  1      0.0000       0.00000       A     2.41481e-01     8.75971e-02
 h36bf                                  1      0.0000       0.00000       A     2.41481e-01     8.75971e-02
 h37bf                                  1      0.0000       0.00000       A     1.10452e-01     4.15441e-02
 h38bf                                  1      0.0000       0.00000       A     2.42273e-01     8.59675e-02
 h39bf                                  1      0.0000       0.00000       A     2.59836e-01     8.73353e-02
 h40bf                                  1      0.0000       0.00000       A     2.59836e-01     8.73353e-02
 h41bf                                  1      0.0000       0.00000       A     2.42102e-01     8.73816e-02
 h42bf                                  1      0.0000       0.00000       A     2.42102e-01     8.73816e-02
 h43bf                                  1      0.0000       0.00000       A     2.42102e-01     8.73816e-02
 h44bf                                  1      0.0000       0.00000       A     2.42102e-01     8.73816e-02
 h45bf                                  1      0.0000       0.00000       A     2.59836e-01     8.73353e-02
 h46bf                                  1      0.0000       0.00000       A     2.59836e-01     8.73353e-02
 h47bf                                  1      0.0000       0.00000       A     2.42019e-01     8.73609e-02
 h48bf                                  1      0.0000       0.00000       A     2.42019e-01     8.73609e-02
 h49bf                                  1      0.0000       0.00000       A     2.42019e-01     8.73609e-02

[ moleculetype ]
;name             nrexcl
 23482                 3

[ atoms ]
;       nr            type      resi   res      atom      cgnr      charge          mass ; qtot
         1            s0bf         1   UNL        s0         1     0.19677       32.0670 ; qtot    0.197
         2            c1bf         1   UNL        c1         2    -0.26026       12.0110 ; qtot   -0.063
         3            c2bf         1   UNL        c2         3     0.11437       12.0110 ; qtot    0.051
         4            c3bf         1   UNL        c3         4    -0.05837       12.0110 ; qtot   -0.007
         5            c4bf         1   UNL        c4         5    -0.16790       12.0110 ; qtot   -0.175
         6            c5bf         1   UNL        c5         6     0.72713       12.0110 ; qtot    0.552
         7            o6bf         1   UNL        o6         7    -0.72308       15.9990 ; qtot   -0.171
         8            o7bf         1   UNL        o7         8    -0.72308       15.9990 ; qtot   -0.894
         9            c8bf         1   UNL        c8         9     0.01360       12.0110 ; qtot   -0.881
        10            c9bf         1   UNL        c9        10    -0.15550       12.0110 ; qtot   -1.036
        11           c10bf         1   UNL       c10        11     0.30004       12.0110 ; qtot   -0.736
        12           c11bf         1   UNL       c11        12    -0.17262       12.0110 ; qtot   -0.909
        13           c12bf         1   UNL       c12        13    -0.07788       12.0110 ; qtot   -0.987
        14           c13bf         1   UNL       c13        14    -0.11595       12.0110 ; qtot   -1.103
        15          br14bf         1   UNL      br14        15    -0.08621       79.9040 ; qtot   -1.189
        16           o15bf         1   UNL       o15        16    -0.35606       15.9990 ; qtot   -1.545
        17           c16bf         1   UNL       c16        17    -0.01490       12.0110 ; qtot   -1.560
        18           c17bf         1   UNL       c17        18     0.70991       12.0110 ; qtot   -0.850
        19           o18bf         1   UNL       o18        19    -0.73348       15.9990 ; qtot   -1.583
        20           o19bf         1   UNL       o19        20    -0.73348       15.9990 ; qtot   -2.317
        21           n20bf         1   UNL       n20        21    -0.93549       14.0070 ; qtot   -3.252
        22           c21bf         1   UNL       c21        22     0.20483       12.0110 ; qtot   -3.048
        23           c22bf         1   UNL       c22        23    -0.10221       12.0110 ; qtot   -3.150
        24           c23bf         1   UNL       c23        24     0.19987       12.0110 ; qtot   -2.950
        25           n24bf         1   UNL       n24        25    -0.72274       14.0070 ; qtot   -3.673
        26           c25bf         1   UNL       c25        26     0.19987       12.0110 ; qtot   -3.473
        27           c26bf         1   UNL       c26        27    -0.10221       12.0110 ; qtot   -3.575
        28           s27bf         1   UNL       s27        28     1.12184       32.0670 ; qtot   -2.453
        29           o28bf         1   UNL       o28        29    -0.52450       15.9990 ; qtot   -2.978
        30           o29bf         1   UNL       o29        30    -0.52450       15.9990 ; qtot   -3.502
        31           c30bf         1   UNL       c30        31    -0.32172       12.0110 ; qtot   -3.824
        32           h31bf         1   UNL       h31        32     0.11944        1.0080 ; qtot   -3.704
        33           h32bf         1   UNL       h32        33     0.11684        1.0080 ; qtot   -3.588
        34           h33bf         1   UNL       h33        34     0.11521        1.0080 ; qtot   -3.472
        35           h34bf         1   UNL       h34        35     0.12297        1.0080 ; qtot   -3.349
        36           h35bf         1   UNL       h35        36     0.02487        1.0080 ; qtot   -3.325
        37           h36bf         1   UNL       h36        37     0.02487        1.0080 ; qtot   -3.300
        38           h37bf         1   UNL       h37        38     0.44904        1.0080 ; qtot   -2.851
        39           h38bf         1   UNL       h38        39     0.05842        1.0080 ; qtot   -2.792
        40           h39bf         1   UNL       h39        40     0.05820        1.0080 ; qtot   -2.734
        41           h40bf         1   UNL       h40        41     0.05820        1.0080 ; qtot   -2.676
        42           h41bf         1   UNL       h41        42     0.06287        1.0080 ; qtot   -2.613
        43           h42bf         1   UNL       h42        43     0.06287        1.0080 ; qtot   -2.550
        44           h43bf         1   UNL       h43        44     0.06287        1.0080 ; qtot   -2.487
        45           h44bf         1   UNL       h44        45     0.06287        1.0080 ; qtot   -2.424
        46           h45bf         1   UNL       h45        46     0.05820        1.0080 ; qtot   -2.366
        47           h46bf         1   UNL       h46        47     0.05820        1.0080 ; qtot   -2.308
        48           h47bf         1   UNL       h47        48     0.10267        1.0080 ; qtot   -2.205
        49           h48bf         1   UNL       h48        49     0.10267        1.0080 ; qtot   -2.103
        50           h49bf         1   UNL       h49        50     0.10263        1.0080 ; qtot   -2.000

[ bonds ]
;       ai        aj funct               r               k
         1         2     1        0.174464   145572.874683
         1         5     1        0.175012   149020.499365
         2         3     1        0.138277   335024.121436
         2         6     1        0.154034   112597.124561
         3         4     1        0.143994   223875.334033
         3        16     1        0.134833   300010.369531
         4         5     1        0.138169   338414.734521
         4        15     1        0.190996   130541.361816
         5         9     1        0.147084   228751.721680
         6         7     1        0.125984   484107.493164
         6         8     1        0.125984   484107.493164
         9        10     1        0.140377   291227.953320
         9        14     1        0.140541   288006.012842
        10        11     1        0.140742   280197.786279
        10        32     1        0.108446   320758.019580
        11        12     1        0.140989   276427.972656
        11        21     1        0.139545   278571.915137
        12        13     1        0.139570   317260.431543
        12        33     1        0.108555   319413.260938
        13        14     1        0.139561   315911.765723
        13        34     1        0.108655   318238.579443
        14        35     1        0.108491   321875.217041
        16        17     1        0.145852   151865.231201
        17        18     1        0.156538   116742.448608
        17        36     1        0.109566   293138.384473
        17        37     1        0.109566   293138.384473
        18        19     1        0.126057   487285.433203
        18        20     1        0.126057   487285.433203
        21        22     1        0.146504   195224.867969
        21        38     1        0.101297   410037.235107
        22        23     1        0.154186   170495.165381
        22        27     1        0.154186   170495.165381
        22        39     1        0.109537   296979.574316
        23        24     1        0.153128   185329.135938
        23        40     1        0.109428   299143.537891
        23        41     1        0.109428   299143.537891
        24        25     1        0.148123   169813.069189
        24        42     1        0.109368   298075.856885
        24        43     1        0.109368   298075.856885
        25        26     1        0.148123   169813.069189
        25        28     1        0.168869   147270.364648
        26        27     1        0.153128   185329.161475
        26        44     1        0.109368   298075.831348
        26        45     1        0.109368   298075.831348
        27        46     1        0.109428   299143.512354
        27        47     1        0.109428   299143.512354
        28        29     1        0.146766   512369.361035
        28        30     1        0.146766   512369.361035
        28        31     1        0.180691   144305.748853
        31        48     1        0.109010   319838.070752
        31        49     1        0.109010   319838.070752
        31        50     1        0.109010   319838.070752

[ angles ]
;       ai        aj        ak funct           theta             cth
         1         2         3     1      110.160385      167.360000
         1         2         6     1      115.033363      592.691984
         1         5         4     1      108.982101      167.360000
         1         5         9     1      120.225929      422.231428
         2         1         5     1       93.195396      186.526063
         2         3         4     1      112.155884      382.616764
         2         3        16     1      126.134293      420.691381
         2         6         7     1      114.627625      339.029323
         2         6         8     1      114.627625      339.029323
         3         2         6     1      134.051437      467.327122
         3         4         5     1      114.634010      370.337213
         3         4        15     1      121.312027      306.426064
         3        16        17     1      117.821022      473.127047
         4         3        16     1      120.298485      422.691671
         4         5         9     1      130.788895      405.060084
         5         4        15     1      123.746353      284.291870
         5         9        10     1      120.007790      401.373068
         5         9        14     1      120.687035      464.389365
         7         6         8     1      130.398407      705.552920
         9        10        11     1      121.282242      752.470464
         9        10        32     1      119.060143      432.006938
         9        14        13     1      119.572464      680.278779
         9        14        35     1      119.945923      442.999546
        10         9        14     1      119.370499      624.161364
        10        11        12     1      118.375778      643.555331
        10        11        21     1      120.515274      518.245405
        11        10        32     1      119.620193      426.272516
        11        12        13     1      120.154808      764.362840
        11        12        33     1      120.110031      429.854926
        11        21        22     1      122.706627      477.364483
        11        21        38     1      112.770615      497.342707
        12        11        21     1      121.205200      577.235585
        12        13        14     1      121.024757      692.684898
        12        13        34     1      119.224258      431.436279
        13        12        33     1      119.858887      427.872161
        13        14        35     1      120.310341      426.702306
        14        13        34     1      119.644348      436.855158
        16        17        18     1      113.930588      533.838045
        16        17        36     1      107.778183      447.857886
        16        17        37     1      107.778183      447.857886
        17        18        19     1      114.982224      326.587708
        17        18        20     1      114.982224      326.587708
        18        17        36     1      109.132095      476.479910
        18        17        37     1      109.132095      476.479910
        19        18        20     1      130.064850      720.626454
        21        22        23     1      111.568802      599.457212
        21        22        27     1      111.568802      599.457212
        21        22        39     1      107.355751      493.417302
        22        21        38     1      112.659531      472.392855
        22        23        24     1      111.572227      644.498735
        22        23        40     1      109.720291      495.415261
        22        23        41     1      109.720291      495.415261
        22        27        26     1      111.572227      644.498735
        22        27        46     1      109.720291      495.415261
        22        27        47     1      109.720291      495.415261
        23        22        27     1      110.012161      550.496699
        23        22        39     1      108.048447      480.145730
        23        24        25     1      109.946022      650.951260
        23        24        42     1      110.655128      495.983590
        23        24        43     1      110.655128      495.983590
        24        23        40     1      109.146805      513.488512
        24        23        41     1      109.146805      513.488512
        24        25        26     1      115.036377      507.583247
        24        25        28     1      115.913734      589.725019
        25        24        42     1      108.995140      428.531433
        25        24        43     1      108.995140      428.531433
        25        26        27     1      109.946022      650.951324
        25        26        44     1      108.995140      428.531433
        25        26        45     1      108.995140      428.531433
        25        28        29     1      107.961563      634.006367
        25        28        30     1      107.961563      634.006367
        25        28        31     1      103.390663      574.066047
        26        25        28     1      115.913734      589.725019
        26        27        46     1      109.146805      513.488512
        26        27        47     1      109.146805      513.488512
        27        22        39     1      108.048447      480.145730
        27        26        44     1      110.655128      495.983590
        27        26        45     1      110.655128      495.983590
        28        31        48     1      108.047714      570.999806
        28        31        49     1      108.047714      570.999806
        28        31        50     1      108.047714      570.999806
        29        28        30     1      121.016212      718.684357
        29        28        31     1      107.143959      686.168339
        30        28        31     1      107.143959      686.168339
        36        17        37     1      108.416725      344.620386
        40        23        41     1      107.221519      355.872324
        42        24        43     1      107.573746      346.012574
        44        26        45     1      107.573746      346.012574
        46        27        47     1      107.221519      355.872292
        48        31        49     1      111.013893      345.584316
        48        31        50     1      111.013893      345.584316
        49        31        50     1      111.013893      345.584348

[ dihedrals ] ; propers for gromacs 4.5 or higher, use funct 9
;       ai        aj        ak        al funct           phase               k        pn
         1         2         3         4     9        0.000000       -0.157449         1
         1         2         3         4     9      180.000000       23.193074         2
         1         2         3         4     9        0.000000       -4.968979         3
         1         2         3         4     9      180.000000       -0.609654         4
         1         2         3        16     9        0.000000        0.970784         1
         1         2         3        16     9      180.000000       21.885524         2
         1         2         3        16     9        0.000000        0.406670         3
         1         2         3        16     9      180.000000       -1.347848         4
         1         2         6         7     9        0.000000        1.117411         1
         1         2         6         7     9      180.000000        4.117929         2
         1         2         6         7     9        0.000000        0.067199         3
         1         2         6         7     9      180.000000        0.180393         4
         1         2         6         8     9        0.000000        1.117411         1
         1         2         6         8     9      180.000000        4.117929         2
         1         2         6         8     9        0.000000        0.067199         3
         1         2         6         8     9      180.000000        0.180393         4
         1         5         4         3     9        0.000000       -0.306829         1
         1         5         4         3     9      180.000000       24.522085         2
         1         5         4         3     9        0.000000       -5.964297         3
         1         5         4         3     9      180.000000       -0.599844         4
         1         5         4        15     9        0.000000        0.499553         1
         1         5         4        15     9      180.000000       17.380840         2
         1         5         4        15     9        0.000000        0.197540         3
         1         5         4        15     9      180.000000       -1.066303         4
         1         5         9        10     9        0.000000       -0.425147         1
         1         5         9        10     9      180.000000        3.268779         2
         1         5         9        10     9        0.000000       -0.033326         3
         1         5         9        10     9      180.000000        0.312058         4
         1         5         9        14     9        0.000000       -0.234776         1
         1         5         9        14     9      180.000000        3.130943         2
         1         5         9        14     9        0.000000        0.163278         3
         1         5         9        14     9      180.000000        0.213167         4
         2         1         5         4     9        0.000000       -0.388546         1
         2         1         5         4     9      180.000000       24.242164         2
         2         1         5         4     9        0.000000       -5.021316         3
         2         1         5         4     9      180.000000       -0.471890         4
         2         1         5         9     9        0.000000       -0.206097         1
         2         1         5         9     9      180.000000       15.224347         2
         2         1         5         9     9        0.000000        0.250585         3
         2         1         5         9     9      180.000000       -0.604674         4
         2         3         4         5     9        0.000000       -0.251748         1
         2         3         4         5     9      180.000000       14.214229         2
         2         3         4         5     9        0.000000       -2.698729         3
         2         3         4         5     9      180.000000       -0.310431         4
         2         3         4        15     9        0.000000        0.248323         1
         2         3         4        15     9      180.000000       11.562275         2
         2         3         4        15     9        0.000000        0.148422         3
         2         3         4        15     9      180.000000       -0.630060         4
         2         3        16        17     9        0.000000        0.701674         1
         2         3        16        17     9      180.000000        2.973538         2
         2         3        16        17     9        0.000000        0.307642         3
         2         3        16        17     9      180.000000       -0.218272         4
         3         2         1         5     9        0.000000       -0.083281         1
         3         2         1         5     9      180.000000       22.870917         2
         3         2         1         5     9        0.000000       -3.551991         3
         3         2         1         5     9      180.000000       -0.695859         4
         3         2         6         7     9        0.000000       -5.137617         1
         3         2         6         7     9      180.000000        2.933940         2
         3         2         6         7     9        0.000000        0.193554         3
         3         2         6         7     9      180.000000       -0.187922         4
         3         2         6         8     9        0.000000       -5.137617         1
         3         2         6         8     9      180.000000        2.933940         2
         3         2         6         8     9        0.000000        0.193554         3
         3         2         6         8     9      180.000000       -0.187922         4
         3         4         5         9     9        0.000000        0.188116         1
         3         4         5         9     9      180.000000       16.319500         2
         3         4         5         9     9        0.000000       -0.399596         3
         3         4         5         9     9      180.000000       -1.039713         4
         3        16        17        18     9        0.000000       -4.760844         1
         3        16        17        18     9      180.000000       -1.857167         2
         3        16        17        18     9        0.000000        0.352751         3
         3        16        17        18     9      180.000000        0.004621         4
         3        16        17        36     9        0.000000       -0.294822         1
         3        16        17        36     9      180.000000       -0.281191         2
         3        16        17        36     9        0.000000        0.570610         3
         3        16        17        36     9      180.000000        0.007077         4
         3        16        17        37     9        0.000000       -0.294822         1
         3        16        17        37     9      180.000000       -0.281191         2
         3        16        17        37     9        0.000000        0.570610         3
         3        16        17        37     9      180.000000        0.007077         4
         4         3         2         6     9        0.000000       -0.190053         1
         4         3         2         6     9      180.000000       11.755029         2
         4         3         2         6     9        0.000000       -0.719247         3
         4         3         2         6     9      180.000000       -0.502059         4
         4         3        16        17     9        0.000000        2.857399         1
         4         3        16        17     9      180.000000        2.426502         2
         4         3        16        17     9        0.000000        0.581872         3
         4         3        16        17     9      180.000000       -0.192707         4
         4         5         9        10     9        0.000000       -0.333835         1
         4         5         9        10     9      180.000000        2.272960         2
         4         5         9        10     9        0.000000       -0.067112         3
         4         5         9        10     9      180.000000        0.026737         4
         4         5         9        14     9        0.000000        0.327177         1
         4         5         9        14     9      180.000000        2.100762         2
         4         5         9        14     9        0.000000       -0.053534         3
         4         5         9        14     9      180.000000        0.035750         4
         5         1         2         6     9        0.000000        0.985272         1
         5         1         2         6     9      180.000000       10.250466         2
         5         1         2         6     9        0.000000       -0.288305         3
         5         1         2         6     9      180.000000        0.044596         4
         5         4         3        16     9        0.000000        0.518482         1
         5         4         3        16     9      180.000000       12.721722         2
         5         4         3        16     9        0.000000        0.352406         3
         5         4         3        16     9      180.000000       -0.184802         4
         5         9        10        11     9        0.000000        0.371647         1
         5         9        10        11     9      180.000000       15.800528         2
         5         9        10        11     9        0.000000        0.005688         3
         5         9        10        11     9      180.000000       -0.389350         4
         5         9        10        32     9        0.000000        0.048615         1
         5         9        10        32     9      180.000000       13.061744         2
         5         9        10        32     9        0.000000       -0.174551         3
         5         9        10        32     9      180.000000        0.168319         4
         5         9        14        13     9        0.000000        0.323235         1
         5         9        14        13     9      180.000000       16.538936         2
         5         9        14        13     9        0.000000       -0.195176         3
         5         9        14        13     9      180.000000       -0.362011         4
         5         9        14        35     9        0.000000        0.092667         1
         5         9        14        35     9      180.000000       12.926460         2
         5         9        14        35     9        0.000000       -0.242138         3
         5         9        14        35     9      180.000000        0.176107         4
         6         2         3        16     9        0.000000        0.216703         1
         6         2         3        16     9      180.000000       15.170354         2
         6         2         3        16     9        0.000000        0.500829         3
         6         2         3        16     9      180.000000       -0.921398         4
         9         5         4        15     9        0.000000        0.444437         1
         9         5         4        15     9      180.000000       13.006978         2
         9         5         4        15     9        0.000000        0.562767         3
         9         5         4        15     9      180.000000       -0.482422         4
         9        10        11        12     9        0.000000        0.059642         1
         9        10        11        12     9      180.000000       15.493287         2
         9        10        11        12     9        0.000000       -0.815862         3
         9        10        11        12     9      180.000000       -0.189726         4
         9        10        11        21     9        0.000000        0.256507         1
         9        10        11        21     9      180.000000       17.209378         2
         9        10        11        21     9        0.000000        0.244722         3
         9        10        11        21     9      180.000000       -0.431440         4
         9        14        13        12     9        0.000000        0.008362         1
         9        14        13        12     9      180.000000       19.169942         2
         9        14        13        12     9        0.000000       -1.601727         3
         9        14        13        12     9      180.000000       -0.448224         4
         9        14        13        34     9        0.000000       -0.030494         1
         9        14        13        34     9      180.000000       15.022380         2
         9        14        13        34     9        0.000000       -0.524511         3
         9        14        13        34     9      180.000000        0.059106         4
        10         9        14        13     9        0.000000       -0.118252         1
        10         9        14        13     9      180.000000       17.939734         2
        10         9        14        13     9        0.000000       -1.432276         3
        10         9        14        13     9      180.000000       -0.289354         4
        10         9        14        35     9        0.000000       -0.041016         1
        10         9        14        35     9      180.000000       13.590058         2
        10         9        14        35     9        0.000000       -0.500060         3
        10         9        14        35     9      180.000000        0.135491         4
        10        11        12        13     9        0.000000        0.084500         1
        10        11        12        13     9      180.000000       15.445870         2
        10        11        12        13     9        0.000000       -0.749013         3
        10        11        12        13     9      180.000000       -0.158771         4
        10        11        12        33     9        0.000000        0.100986         1
        10        11        12        33     9      180.000000       12.283458         2
        10        11        12        33     9        0.000000       -0.302961         3
        10        11        12        33     9      180.000000        0.152739         4
        10        11        21        22     9        0.000000        0.109428         1
        10        11        21        22     9      180.000000        4.254972         2
        10        11        21        22     9        0.000000        0.392809         3
        10        11        21        22     9      180.000000       -0.111897         4
        10        11        21        38     9        0.000000        0.418303         1
        10        11        21        38     9      180.000000        5.465324         2
        10        11        21        38     9        0.000000        0.012857         3
        10        11        21        38     9      180.000000       -0.449760         4
        11        10         9        14     9        0.000000       -0.200068         1
        11        10         9        14     9      180.000000       17.806994         2
        11        10         9        14     9        0.000000       -1.588766         3
        11        10         9        14     9      180.000000       -0.402748         4
        11        12        13        14     9        0.000000       -0.024912         1
        11        12        13        14     9      180.000000       18.028415         2
        11        12        13        14     9        0.000000       -1.593670         3
        11        12        13        14     9      180.000000       -0.416432         4
        11        12        13        34     9        0.000000        0.016942         1
        11        12        13        34     9      180.000000       14.276363         2
        11        12        13        34     9        0.000000       -0.581911         3
        11        12        13        34     9      180.000000        0.067359         4
        11        21        22        23     9        0.000000        1.181867         1
        11        21        22        23     9      180.000000        0.125592         2
        11        21        22        23     9        0.000000        1.128134         3
        11        21        22        23     9      180.000000        0.035376         4
        11        21        22        27     9        0.000000        1.181867         1
        11        21        22        27     9      180.000000        0.125591         2
        11        21        22        27     9        0.000000        1.128134         3
        11        21        22        27     9      180.000000        0.035376         4
        11        21        22        39     9        0.000000       -1.384429         1
        11        21        22        39     9      180.000000        0.027978         2
        11        21        22        39     9        0.000000        1.384361         3
        11        21        22        39     9      180.000000       -0.052369         4
        12        11        10        32     9        0.000000        0.094542         1
        12        11        10        32     9      180.000000       12.302434         2
        12        11        10        32     9        0.000000       -0.330069         3
        12        11        10        32     9      180.000000        0.189144         4
        12        11        21        22     9        0.000000        0.341931         1
        12        11        21        22     9      180.000000        4.177048         2
        12        11        21        22     9        0.000000        0.573814         3
        12        11        21        22     9      180.000000       -0.174617         4
        12        11        21        38     9        0.000000       -0.037696         1
        12        11        21        38     9      180.000000        5.473717         2
        12        11        21        38     9        0.000000        0.053881         3
        12        11        21        38     9      180.000000       -0.452250         4
        12        13        14        35     9        0.000000        0.059409         1
        12        13        14        35     9      180.000000       14.509544         2
        12        13        14        35     9        0.000000       -0.716558         3
        12        13        14        35     9      180.000000        0.159687         4
        13        12        11        21     9        0.000000        0.254356         1
        13        12        11        21     9      180.000000       16.909080         2
        13        12        11        21     9        0.000000        0.151268         3
        13        12        11        21     9      180.000000       -0.177572         4
        14         9        10        32     9        0.000000        0.077332         1
        14         9        10        32     9      180.000000       13.475288         2
        14         9        10        32     9        0.000000       -0.459271         3
        14         9        10        32     9      180.000000        0.143299         4
        14        13        12        33     9        0.000000        0.105666         1
        14        13        12        33     9      180.000000       14.164092         2
        14        13        12        33     9        0.000000       -0.635373         3
        14        13        12        33     9      180.000000        0.151673         4
        15         4         3        16     9        0.000000       -0.153280         1
        15         4         3        16     9      180.000000       12.598060         2
        15         4         3        16     9        0.000000        0.466981         3
        15         4         3        16     9      180.000000       -0.523506         4
        16        17        18        19     9        0.000000       -1.573021         1
        16        17        18        19     9      180.000000        4.124889         2
        16        17        18        19     9        0.000000        0.247417         3
        16        17        18        19     9      180.000000        0.125480         4
        16        17        18        20     9        0.000000       -1.573021         1
        16        17        18        20     9      180.000000        4.124889         2
        16        17        18        20     9        0.000000        0.247417         3
        16        17        18        20     9      180.000000        0.125480         4
        19        18        17        36     9        0.000000        0.050675         1
        19        18        17        36     9      180.000000       -0.380925         2
        19        18        17        36     9        0.000000        0.149856         3
        19        18        17        36     9      180.000000        0.058403         4
        19        18        17        37     9        0.000000        0.050675         1
        19        18        17        37     9      180.000000       -0.380925         2
        19        18        17        37     9        0.000000        0.149856         3
        19        18        17        37     9      180.000000        0.058403         4
        20        18        17        36     9        0.000000        0.050675         1
        20        18        17        36     9      180.000000       -0.380925         2
        20        18        17        36     9        0.000000        0.149856         3
        20        18        17        36     9      180.000000        0.058403         4
        20        18        17        37     9        0.000000        0.050675         1
        20        18        17        37     9      180.000000       -0.380925         2
        20        18        17        37     9        0.000000        0.149856         3
        20        18        17        37     9      180.000000        0.058403         4
        21        11        10        32     9        0.000000       -0.228593         1
        21        11        10        32     9      180.000000       14.159200         2
        21        11        10        32     9        0.000000       -0.030143         3
        21        11        10        32     9      180.000000        0.257752         4
        21        11        12        33     9        0.000000       -0.293365         1
        21        11        12        33     9      180.000000       13.806795         2
        21        11        12        33     9        0.000000       -0.098357         3
        21        11        12        33     9      180.000000        0.262289         4
        21        22        23        24     9        0.000000       -1.899039         1
        21        22        23        24     9      180.000000       -0.982046         2
        21        22        23        24     9        0.000000        0.136613         3
        21        22        23        24     9      180.000000        0.344508         4
        21        22        23        40     9        0.000000        0.026269         1
        21        22        23        40     9      180.000000        0.064111         2
        21        22        23        40     9        0.000000        0.295934         3
        21        22        23        40     9      180.000000       -0.023857         4
        21        22        23        41     9        0.000000        0.026269         1
        21        22        23        41     9      180.000000        0.064111         2
        21        22        23        41     9        0.000000        0.295934         3
        21        22        23        41     9      180.000000       -0.023857         4
        21        22        27        26     9        0.000000       -1.899039         1
        21        22        27        26     9      180.000000       -0.982045         2
        21        22        27        26     9        0.000000        0.136613         3
        21        22        27        26     9      180.000000        0.344508         4
        21        22        27        46     9        0.000000        0.026270         1
        21        22        27        46     9      180.000000        0.064111         2
        21        22        27        46     9        0.000000        0.295934         3
        21        22        27        46     9      180.000000       -0.023857         4
        21        22        27        47     9        0.000000        0.026270         1
        21        22        27        47     9      180.000000        0.064111         2
        21        22        27        47     9        0.000000        0.295934         3
        21        22        27        47     9      180.000000       -0.023857         4
        22        23        24        25     9        0.000000        0.184934         1
        22        23        24        25     9      180.000000       -1.923742         2
        22        23        24        25     9        0.000000        0.256726         3
        22        23        24        25     9      180.000000        0.019072         4
        22        23        24        42     9        0.000000       -0.005405         1
        22        23        24        42     9      180.000000        0.063336         2
        22        23        24        42     9        0.000000        0.156624         3
        22        23        24        42     9      180.000000        0.021224         4
        22        23        24        43     9        0.000000       -0.005405         1
        22        23        24        43     9      180.000000        0.063336         2
        22        23        24        43     9        0.000000        0.156624         3
        22        23        24        43     9      180.000000        0.021224         4
        22        27        26        25     9        0.000000        0.184934         1
        22        27        26        25     9      180.000000       -1.923743         2
        22        27        26        25     9        0.000000        0.256726         3
        22        27        26        25     9      180.000000        0.019071         4
        22        27        26        44     9        0.000000       -0.005405         1
        22        27        26        44     9      180.000000        0.063335         2
        22        27        26        44     9        0.000000        0.156625         3
        22        27        26        44     9      180.000000        0.021224         4
        22        27        26        45     9        0.000000       -0.005405         1
        22        27        26        45     9      180.000000        0.063335         2
        22        27        26        45     9        0.000000        0.156625         3
        22        27        26        45     9      180.000000        0.021224         4
        23        22        21        38     9        0.000000       -0.201558         1
        23        22        21        38     9      180.000000       -0.067461         2
        23        22        21        38     9        0.000000       -0.036021         3
        23        22        21        38     9      180.000000        0.082091         4
        23        22        27        26     9        0.000000        2.428045         1
        23        22        27        26     9      180.000000       -2.839968         2
        23        22        27        26     9        0.000000        0.037484         3
        23        22        27        26     9      180.000000        0.196138         4
        23        22        27        46     9        0.000000       -0.049302         1
        23        22        27        46     9      180.000000        0.073596         2
        23        22        27        46     9        0.000000        0.268366         3
        23        22        27        46     9      180.000000        0.021051         4
        23        22        27        47     9        0.000000       -0.049302         1
        23        22        27        47     9      180.000000        0.073596         2
        23        22        27        47     9        0.000000        0.268366         3
        23        22        27        47     9      180.000000        0.021051         4
        23        24        25        26     9        0.000000        3.917401         1
        23        24        25        26     9      180.000000       -1.914160         2
        23        24        25        26     9        0.000000        0.250653         3
        23        24        25        26     9      180.000000        0.266534         4
        23        24        25        28     9        0.000000       -5.283815         1
        23        24        25        28     9      180.000000        0.555721         2
        23        24        25        28     9        0.000000        0.170611         3
        23        24        25        28     9      180.000000       -0.390372         4
        24        23        22        27     9        0.000000        2.428044         1
        24        23        22        27     9      180.000000       -2.839969         2
        24        23        22        27     9        0.000000        0.037483         3
        24        23        22        27     9      180.000000        0.196139         4
        24        23        22        39     9        0.000000       -0.268040         1
        24        23        22        39     9      180.000000       -0.024565         2
        24        23        22        39     9        0.000000        0.187560         3
        24        23        22        39     9      180.000000        0.052320         4
        24        25        26        27     9        0.000000        3.917401         1
        24        25        26        27     9      180.000000       -1.914159         2
        24        25        26        27     9        0.000000        0.250653         3
        24        25        26        27     9      180.000000        0.266534         4
        24        25        26        44     9        0.000000       -0.061719         1
        24        25        26        44     9      180.000000        0.258205         2
        24        25        26        44     9        0.000000        0.693821         3
        24        25        26        44     9      180.000000        0.047608         4
        24        25        26        45     9        0.000000       -0.061719         1
        24        25        26        45     9      180.000000        0.258205         2
        24        25        26        45     9        0.000000        0.693821         3
        24        25        26        45     9      180.000000        0.047608         4
        24        25        28        29     9        0.000000        0.174571         1
        24        25        28        29     9      180.000000        1.138756         2
        24        25        28        29     9        0.000000        0.630040         3
        24        25        28        29     9      180.000000        0.042603         4
        24        25        28        30     9        0.000000        0.174571         1
        24        25        28        30     9      180.000000        1.138756         2
        24        25        28        30     9        0.000000        0.630040         3
        24        25        28        30     9      180.000000        0.042603         4
        24        25        28        31     9        0.000000       -1.565730         1
        24        25        28        31     9      180.000000       -4.305053         2
        24        25        28        31     9        0.000000        0.786648         3
        24        25        28        31     9      180.000000       -1.235527         4
        25        24        23        40     9        0.000000        0.014005         1
        25        24        23        40     9      180.000000        0.038761         2
        25        24        23        40     9        0.000000        0.200347         3
        25        24        23        40     9      180.000000       -0.048320         4
        25        24        23        41     9        0.000000        0.014005         1
        25        24        23        41     9      180.000000        0.038761         2
        25        24        23        41     9        0.000000        0.200347         3
        25        24        23        41     9      180.000000       -0.048320         4
        25        26        27        46     9        0.000000        0.014005         1
        25        26        27        46     9      180.000000        0.038762         2
        25        26        27        46     9        0.000000        0.200347         3
        25        26        27        46     9      180.000000       -0.048320         4
        25        26        27        47     9        0.000000        0.014005         1
        25        26        27        47     9      180.000000        0.038762         2
        25        26        27        47     9        0.000000        0.200347         3
        25        26        27        47     9      180.000000       -0.048320         4
        25        28        31        48     9        0.000000        0.153804         1
        25        28        31        48     9      180.000000       -0.003511         2
        25        28        31        48     9        0.000000        0.325081         3
        25        28        31        48     9      180.000000        0.018484         4
        25        28        31        49     9        0.000000        0.153804         1
        25        28        31        49     9      180.000000       -0.003511         2
        25        28        31        49     9        0.000000        0.325081         3
        25        28        31        49     9      180.000000        0.018484         4
        25        28        31        50     9        0.000000        0.153804         1
        25        28        31        50     9      180.000000       -0.003511         2
        25        28        31        50     9        0.000000        0.325081         3
        25        28        31        50     9      180.000000        0.018484         4
        26        25        24        42     9        0.000000       -0.061719         1
        26        25        24        42     9      180.000000        0.258205         2
        26        25        24        42     9        0.000000        0.693821         3
        26        25        24        42     9      180.000000        0.047608         4
        26        25        24        43     9        0.000000       -0.061719         1
        26        25        24        43     9      180.000000        0.258205         2
        26        25        24        43     9        0.000000        0.693821         3
        26        25        24        43     9      180.000000        0.047608         4
        26        25        28        29     9        0.000000        0.174571         1
        26        25        28        29     9      180.000000        1.138756         2
        26        25        28        29     9        0.000000        0.630040         3
        26        25        28        29     9      180.000000        0.042603         4
        26        25        28        30     9        0.000000        0.174571         1
        26        25        28        30     9      180.000000        1.138756         2
        26        25        28        30     9        0.000000        0.630040         3
        26        25        28        30     9      180.000000        0.042603         4
        26        25        28        31     9        0.000000       -1.565730         1
        26        25        28        31     9      180.000000       -4.305053         2
        26        25        28        31     9        0.000000        0.786648         3
        26        25        28        31     9      180.000000       -1.235527         4
        26        27        22        39     9        0.000000       -0.268040         1
        26        27        22        39     9      180.000000       -0.024565         2
        26        27        22        39     9        0.000000        0.187559         3
        26        27        22        39     9      180.000000        0.052321         4
        27        22        21        38     9        0.000000       -0.201558         1
        27        22        21        38     9      180.000000       -0.067461         2
        27        22        21        38     9        0.000000       -0.036021         3
        27        22        21        38     9      180.000000        0.082090         4
        27        22        23        40     9        0.000000       -0.049302         1
        27        22        23        40     9      180.000000        0.073596         2
        27        22        23        40     9        0.000000        0.268366         3
        27        22        23        40     9      180.000000        0.021051         4
        27        22        23        41     9        0.000000       -0.049302         1
        27        22        23        41     9      180.000000        0.073596         2
        27        22        23        41     9        0.000000        0.268366         3
        27        22        23        41     9      180.000000        0.021051         4
        27        26        25        28     9        0.000000       -5.283816         1
        27        26        25        28     9      180.000000        0.555722         2
        27        26        25        28     9        0.000000        0.170611         3
        27        26        25        28     9      180.000000       -0.390372         4
        28        25        24        42     9        0.000000        0.125822         1
        28        25        24        42     9      180.000000        0.080373         2
        28        25        24        42     9        0.000000        0.202496         3
        28        25        24        42     9      180.000000        0.025349         4
        28        25        24        43     9        0.000000        0.125822         1
        28        25        24        43     9      180.000000        0.080373         2
        28        25        24        43     9        0.000000        0.202496         3
        28        25        24        43     9      180.000000        0.025349         4
        28        25        26        44     9        0.000000        0.125822         1
        28        25        26        44     9      180.000000        0.080373         2
        28        25        26        44     9        0.000000        0.202496         3
        28        25        26        44     9      180.000000        0.025349         4
        28        25        26        45     9        0.000000        0.125822         1
        28        25        26        45     9      180.000000        0.080373         2
        28        25        26        45     9        0.000000        0.202496         3
        28        25        26        45     9      180.000000        0.025349         4
        29        28        31        48     9        0.000000       -0.002844         1
        29        28        31        48     9      180.000000       -0.045947         2
        29        28        31        48     9        0.000000        0.384502         3
        29        28        31        48     9      180.000000        0.023802         4
        29        28        31        49     9        0.000000       -0.002844         1
        29        28        31        49     9      180.000000       -0.045947         2
        29        28        31        49     9        0.000000        0.384502         3
        29        28        31        49     9      180.000000        0.023802         4
        29        28        31        50     9        0.000000       -0.002844         1
        29        28        31        50     9      180.000000       -0.045947         2
        29        28        31        50     9        0.000000        0.384502         3
        29        28        31        50     9      180.000000        0.023802         4
        30        28        31        48     9        0.000000       -0.002844         1
        30        28        31        48     9      180.000000       -0.045947         2
        30        28        31        48     9        0.000000        0.384502         3
        30        28        31        48     9      180.000000        0.023802         4
        30        28        31        49     9        0.000000       -0.002844         1
        30        28        31        49     9      180.000000       -0.045947         2
        30        28        31        49     9        0.000000        0.384502         3
        30        28        31        49     9      180.000000        0.023802         4
        30        28        31        50     9        0.000000       -0.002844         1
        30        28        31        50     9      180.000000       -0.045947         2
        30        28        31        50     9        0.000000        0.384502         3
        30        28        31        50     9      180.000000        0.023802         4
        33        12        13        34     9        0.000000       -0.139149         1
        33        12        13        34     9      180.000000       11.679764         2
        33        12        13        34     9        0.000000       -0.530097         3
        33        12        13        34     9      180.000000        0.235346         4
        34        13        14        35     9        0.000000       -0.191662         1
        34        13        14        35     9      180.000000       11.920421         2
        34        13        14        35     9        0.000000       -0.632898         3
        34        13        14        35     9      180.000000        0.289657         4
        38        21        22        39     9        0.000000       -0.449361         1
        38        21        22        39     9      180.000000       -0.598442         2
        38        21        22        39     9        0.000000        0.007448         3
        38        21        22        39     9      180.000000        0.011988         4
        39        22        23        40     9        0.000000       -0.021624         1
        39        22        23        40     9      180.000000        0.010472         2
        39        22        23        40     9        0.000000        0.289293         3
        39        22        23        40     9      180.000000        0.061297         4
        39        22        23        41     9        0.000000       -0.021624         1
        39        22        23        41     9      180.000000        0.010472         2
        39        22        23        41     9        0.000000        0.289293         3
        39        22        23        41     9      180.000000        0.061297         4
        39        22        27        46     9        0.000000       -0.021623         1
        39        22        27        46     9      180.000000        0.010473         2
        39        22        27        46     9        0.000000        0.289293         3
        39        22        27        46     9      180.000000        0.061296         4
        39        22        27        47     9        0.000000       -0.021623         1
        39        22        27        47     9      180.000000        0.010473         2
        39        22        27        47     9        0.000000        0.289293         3
        39        22        27        47     9      180.000000        0.061296         4
        40        23        24        42     9        0.000000        0.022909         1
        40        23        24        42     9      180.000000       -0.006296         2
        40        23        24        42     9        0.000000        0.230998         3
        40        23        24        42     9      180.000000        0.020831         4
        40        23        24        43     9        0.000000        0.022909         1
        40        23        24        43     9      180.000000       -0.006296         2
        40        23        24        43     9        0.000000        0.230998         3
        40        23        24        43     9      180.000000        0.020831         4
        41        23        24        42     9        0.000000        0.022909         1
        41        23        24        42     9      180.000000       -0.006296         2
        41        23        24        42     9        0.000000        0.230998         3
        41        23        24        42     9      180.000000        0.020831         4
        41        23        24        43     9        0.000000        0.022909         1
        41        23        24        43     9      180.000000       -0.006296         2
        41        23        24        43     9        0.000000        0.230998         3
        41        23        24        43     9      180.000000        0.020831         4
        44        26        27        46     9        0.000000        0.022909         1
        44        26        27        46     9      180.000000       -0.006296         2
        44        26        27        46     9        0.000000        0.230998         3
        44        26        27        46     9      180.000000        0.020831         4
        44        26        27        47     9        0.000000        0.022909         1
        44        26        27        47     9      180.000000       -0.006296         2
        44        26        27        47     9        0.000000        0.230998         3
        44        26        27        47     9      180.000000        0.020831         4
        45        26        27        46     9        0.000000        0.022909         1
        45        26        27        46     9      180.000000       -0.006296         2
        45        26        27        46     9        0.000000        0.230998         3
        45        26        27        46     9      180.000000        0.020831         4
        45        26        27        47     9        0.000000        0.022909         1
        45        26        27        47     9      180.000000       -0.006296         2
        45        26        27        47     9        0.000000        0.230998         3
        45        26        27        47     9      180.000000        0.020831         4

[ dihedrals ] ; impropers
;       ai        aj        ak        al funct           phase               k        pn
         6         2         7         8     4      180.000000       27.893333         2
         6         7         8         2     4      180.000000       27.893333         2
         6         8         2         7     4      180.000000       27.893333         2
        18        17        19        20     4      180.000000       27.893333         2
        18        19        20        17     4      180.000000       27.893333         2
        18        20        17        19     4      180.000000       27.893333         2

[ pairs ]
;       ai        aj funct
         1         7     1
         1         8     1
         1        10     1
         1        14     1
         1        15     1
         1        16     1
         2         9     1
         2        15     1
         2        17     1
         3         7     1
         3         8     1
         3         9     1
         3        18     1
         3        36     1
         3        37     1
         4         6     1
         4        10     1
         4        14     1
         4        17     1
         5         6     1
         5        11     1
         5        13     1
         5        16     1
         5        32     1
         5        35     1
         6        16     1
         9        12     1
         9        15     1
         9        21     1
         9        34     1
        10        13     1
        10        22     1
        10        33     1
        10        35     1
        10        38     1
        11        14     1
        11        23     1
        11        27     1
        11        34     1
        11        39     1
        12        22     1
        12        32     1
        12        35     1
        12        38     1
        13        21     1
        14        32     1
        14        33     1
        15        16     1
        16        19     1
        16        20     1
        19        36     1
        19        37     1
        20        36     1
        20        37     1
        21        24     1
        21        26     1
        21        32     1
        21        33     1
        21        40     1
        21        41     1
        21        46     1
        21        47     1
        22        25     1
        22        42     1
        22        43     1
        22        44     1
        22        45     1
        23        26     1
        23        28     1
        23        38     1
        23        46     1
        23        47     1
        24        27     1
        24        29     1
        24        30     1
        24        31     1
        24        39     1
        24        44     1
        24        45     1
        25        40     1
        25        41     1
        25        46     1
        25        47     1
        25        48     1
        25        49     1
        25        50     1
        26        29     1
        26        30     1
        26        31     1
        26        39     1
        26        42     1
        26        43     1
        27        28     1
        27        38     1
        27        40     1
        27        41     1
        28        42     1
        28        43     1
        28        44     1
        28        45     1
        29        48     1
        29        49     1
        29        50     1
        30        48     1
        30        49     1
        30        50     1
        33        34     1
        34        35     1
        38        39     1
        39        40     1
        39        41     1
        39        46     1
        39        47     1
        40        42     1
        40        43     1
        41        42     1
        41        43     1
        44        46     1
        44        47     1
        45        46     1
        45        47     1
