Generated by PDBParser (exclude clash < 1.000 A)
150
    1SOL     OW    1   0.961  -0.121   2.133
    1SOL    HW1    2   1.026  -0.059   2.069
    1SOL    HW2    3   0.896  -0.055   2.193
    2SOL     OW    4   0.765   1.283   1.334
    2SOL    HW1    5   0.830   1.344   1.270
    2SOL    HW2    6   0.700   1.348   1.394
    3SOL     OW    7  -1.523   1.203   2.730
    3SOL    HW1    8  -1.458   1.265   2.666
    3SOL    HW2    9  -1.588   1.269   2.790
    4SOL     OW   10   0.316  -1.119   2.122
    4SOL    HW1   11   0.381  -1.058   2.058
    4SOL    HW2   12   0.251  -1.054   2.182
    5SOL     OW   13   1.110   1.727   2.229
    5SOL    HW1   14   1.174   1.789   2.165
    5SOL    HW2   15   1.045   1.793   2.289
    6SOL     OW   16  -0.406   1.159   1.700
    6SOL    HW1   17  -0.342   1.220   1.635
    6SOL    HW2   18  -0.471   1.225   1.759
    7SOL     OW   19   0.855  -0.792   1.916
    7SOL    HW1   20   0.920  -0.731   1.852
    7SOL    HW2   21   0.790  -0.727   1.976
    8SOL     OW   22   0.569   1.211   1.156
    8SOL    HW1   23   0.634   1.272   1.092
    8SOL    HW2   24   0.504   1.276   1.216
    9SOL     OW   25   1.235  -1.897   1.137
    9SOL    HW1   26   1.300  -1.836   1.073
    9SOL    HW2   27   1.170  -1.832   1.197
   10SOL     OW   28   1.781  -2.443   2.220
   10SOL    HW1   29   1.846  -2.381   2.155
   10SOL    HW2   30   1.716  -2.377   2.279
   11SOL     OW   31   0.477   1.773   1.822
   11SOL    HW1   32   0.542   1.834   1.757
   11SOL    HW2   33   0.412   1.839   1.881
   12SOL     OW   34   0.123  -1.168   1.763
   12SOL    HW1   35   0.187  -1.107   1.699
   12SOL    HW2   36   0.057  -1.103   1.823
   13SOL     OW   37   1.906  -1.231   1.291
   13SOL    HW1   38   1.971  -1.170   1.227
   13SOL    HW2   39   1.841  -1.166   1.351
   14SOL     OW   40   0.281  -0.532   2.195
   14SOL    HW1   41   0.346  -0.471   2.131
   14SOL    HW2   42   0.216  -0.467   2.255
   15SOL     OW   43  -1.883   1.037   2.138
   15SOL    HW1   44  -1.818   1.099   2.073
   15SOL    HW2   45  -1.948   1.103   2.197
   16SOL     OW   46   1.210  -0.883   2.315
   16SOL    HW1   47   1.275  -0.822   2.250
   16SOL    HW2   48   1.145  -0.818   2.375
   17SOL     OW   49  -0.372   2.311   1.898
   17SOL    HW1   50  -0.307   2.372   1.834
   17SOL    HW2   51  -0.437   2.377   1.958
   18SOL     OW   52  -0.724   2.388   2.322
   18SOL    HW1   53  -0.659   2.450   2.257
   18SOL    HW2   54  -0.788   2.454   2.381
   19SOL     OW   55   0.692  -0.361   2.207
   19SOL    HW1   56   0.757  -0.300   2.143
   19SOL    HW2   57   0.627  -0.296   2.267
   20SOL     OW   58   1.415   0.364   1.982
   20SOL    HW1   59   1.480   0.425   1.918
   20SOL    HW2   60   1.350   0.430   2.042
   21SOL     OW   61   1.162   2.912   2.634
   21SOL    HW1   62   1.227   2.973   2.570
   21SOL    HW2   63   1.097   2.978   2.694
   22SOL     OW   64   0.847   0.524   1.391
   22SOL    HW1   65   0.912   0.586   1.326
   22SOL    HW2   66   0.782   0.590   1.450
   23SOL     OW   67   0.609   2.038   1.755
   23SOL    HW1   68   0.674   2.100   1.691
   23SOL    HW2   69   0.544   2.104   1.815
   24SOL     OW   70   0.349  -1.266   1.655
   24SOL    HW1   71   0.414  -1.205   1.591
   24SOL    HW2   72   0.284  -1.201   1.715
   25SOL     OW   73   0.607   0.399   1.340
   25SOL    HW1   74   0.672   0.460   1.275
   25SOL    HW2   75   0.542   0.465   1.399
   26SOL     OW   76  -0.308   2.449   1.662
   26SOL    HW1   77  -0.244   2.511   1.597
   26SOL    HW2   78  -0.373   2.515   1.721
   27SOL     OW   79   2.144   1.992   2.030
   27SOL    HW1   80   2.209   2.053   1.966
   27SOL    HW2   81   2.079   2.057   2.090
   28SOL     OW   82  -0.418   3.259   2.372
   28SOL    HW1   83  -0.354   3.320   2.308
   28SOL    HW2   84  -0.483   3.324   2.432
   29SOL     OW   85  -0.540   1.158   1.456
   29SOL    HW1   86  -0.475   1.219   1.392
   29SOL    HW2   87  -0.605   1.224   1.516
   30SOL     OW   88   1.607   0.171   2.734
   30SOL    HW1   89   1.671   0.232   2.670
   30SOL    HW2   90   1.542   0.237   2.794
   31SOL     OW   91   0.992   2.405   0.417
   31SOL    HW1   92   1.057   2.467   0.353
   31SOL    HW2   93   0.927   2.471   0.477
   32SOL     OW   94   0.147   0.558   1.437
   32SOL    HW1   95   0.212   0.619   1.373
   32SOL    HW2   96   0.082   0.624   1.497
   33SOL     OW   97   0.552  -0.743   2.081
   33SOL    HW1   98   0.617  -0.681   2.017
   33SOL    HW2   99   0.487  -0.677   2.141
   34SOL     OW  100  -0.639   3.664   2.350
   34SOL    HW1  101  -0.574   3.725   2.285
   34SOL    HW2  102  -0.704   3.730   2.409
   36SOL     OW  106  -0.784   1.133   1.794
   36SOL    HW1  107  -0.719   1.194   1.729
   36SOL    HW2  108  -0.849   1.198   1.853
   37SOL     OW  109  -1.337   1.163   2.922
   37SOL    HW1  110  -1.272   1.224   2.857
   37SOL    HW2  111  -1.402   1.228   2.981
   38SOL     OW  112   1.393   2.288   2.229
   38SOL    HW1  113   1.458   2.349   2.164
   38SOL    HW2  114   1.328   2.354   2.288
   39SOL     OW  115  -1.729   1.799   3.041
   39SOL    HW1  116  -1.664   1.860   2.977
   39SOL    HW2  117  -1.794   1.865   3.101
   40SOL     OW  118  -1.629   1.856   2.621
   40SOL    HW1  119  -1.564   1.917   2.557
   40SOL    HW2  120  -1.694   1.921   2.681
   41SOL     OW  121   0.184   3.631   1.568
   41SOL    HW1  122   0.248   3.692   1.504
   41SOL    HW2  123   0.119   3.697   1.628
   42SOL     OW  124   0.768   2.525   0.321
   42SOL    HW1  125   0.833   2.587   0.257
   42SOL    HW2  126   0.703   2.591   0.381
   43SOL     OW  127   0.983   3.423   1.736
   43SOL    HW1  128   1.047   3.484   1.672
   43SOL    HW2  129   0.918   3.488   1.796
   44SOL     OW  130   1.239   2.785   2.238
   44SOL    HW1  131   1.304   2.846   2.173
   44SOL    HW2  132   1.174   2.851   2.297
   45SOL     OW  133  -1.482   2.253   2.352
   45SOL    HW1  134  -1.417   2.315   2.288
   45SOL    HW2  135  -1.547   2.319   2.412
   46SOL     OW  136   1.113  -1.460   0.942
   46SOL    HW1  137   1.178  -1.399   0.877
   46SOL    HW2  138   1.048  -1.395   1.002
   47SOL     OW  139   0.106   1.113   1.122
   47SOL    HW1  140   0.171   1.174   1.058
   47SOL    HW2  141   0.041   1.178   1.182
   48SOL     OW  142  -0.944   3.504   2.658
   48SOL    HW1  143  -0.879   3.566   2.594
   48SOL    HW2  144  -1.009   3.570   2.718
   49SOL     OW  145  -0.031   2.953   3.120
   49SOL    HW1  146   0.034   3.014   3.056
   49SOL    HW2  147  -0.096   3.018   3.180
   50SOL     OW  148  -0.205   3.122   2.713
   50SOL    HW1  149  -0.141   3.183   2.649
   50SOL    HW2  150  -0.270   3.188   2.773
   51SOL     OW  151  -0.681   3.578   2.597
   51SOL    HW1  152  -0.616   3.640   2.533
   51SOL    HW2  153  -0.746   3.644   2.657
    4.7301    4.7301    4.7301
