; ITP file created by ByteFF-joint-25, 2026-02-17 09:32:26.354789

[ atomtypes ]
;name           bonded.type        at.num        mass        charge   ptype           sigma         epsilon
 c0bf                                   6      0.0000       0.00000       A     3.39627e-01     4.50026e-01    ;  uncertainty sigma = 0.000041, epsilon = 0.002078
 c1bf                                   6      0.0000       0.00000       A     3.31554e-01     4.14514e-01    ;  uncertainty sigma = 0.000048, epsilon = 0.002344
 o2bf                                   8      0.0000       0.00000       A     3.04775e-01     6.11583e-01    ;  uncertainty sigma = 0.000025, epsilon = 0.001074
 o3bf                                   8      0.0000       0.00000       A     3.04775e-01     6.11583e-01    ;  uncertainty sigma = 0.000025, epsilon = 0.001074
 c4bf                                   6      0.0000       0.00000       A     3.39782e-01     4.52205e-01    ;  uncertainty sigma = 0.000036, epsilon = 0.004409
 c5bf                                   6      0.0000       0.00000       A     3.31421e-01     4.12937e-01    ;  uncertainty sigma = 0.000049, epsilon = 0.002428
 o6bf                                   8      0.0000       0.00000       A     3.04811e-01     6.12690e-01    ;  uncertainty sigma = 0.000046, epsilon = 0.001694
 o7bf                                   8      0.0000       0.00000       A     3.04811e-01     6.12690e-01    ;  uncertainty sigma = 0.000046, epsilon = 0.001694
 c8bf                                   6      0.0000       0.00000       A     3.39627e-01     4.50026e-01    ;  uncertainty sigma = 0.000041, epsilon = 0.002078
 c9bf                                   6      0.0000       0.00000       A     3.31554e-01     4.14514e-01    ;  uncertainty sigma = 0.000048, epsilon = 0.002344
 o10bf                                  8      0.0000       0.00000       A     3.04775e-01     6.11582e-01    ;  uncertainty sigma = 0.000025, epsilon = 0.001074
 o11bf                                  8      0.0000       0.00000       A     3.04775e-01     6.11582e-01    ;  uncertainty sigma = 0.000025, epsilon = 0.001074
 o12bf                                  8      0.0000       0.00000       A     3.23909e-01     3.89205e-01    ;  uncertainty sigma = 0.000076, epsilon = 0.004905
 h13bf                                  1      0.0000       0.00000       A     2.60181e-01     8.62892e-02    ;  uncertainty sigma = 0.000098, epsilon = 0.002388
 h14bf                                  1      0.0000       0.00000       A     2.60181e-01     8.62893e-02    ;  uncertainty sigma = 0.000098, epsilon = 0.002388
 h15bf                                  1      0.0000       0.00000       A     2.60181e-01     8.62893e-02    ;  uncertainty sigma = 0.000098, epsilon = 0.002388
 h16bf                                  1      0.0000       0.00000       A     2.60181e-01     8.62892e-02    ;  uncertainty sigma = 0.000098, epsilon = 0.002387
 h17bf                                  1      0.0000       0.00000       A     5.37715e-02     1.98600e-02    ;  uncertainty sigma = 0.000124, epsilon = 0.001357

[ moleculetype ]
;name             nrexcl
 MOL                   3

[ atoms ]
;       nr            type      resi   res      atom      cgnr      charge          mass ; qtot
         1            c0bf         1   UNL        c0         1    -0.20270       12.0110 ; qtot   -0.203
         2            c1bf         1   UNL        c1         2     0.92447       12.0110 ; qtot    0.722
         3            o2bf         1   UNL        o2         3    -0.87073       15.9990 ; qtot   -0.149
         4            o3bf         1   UNL        o3         4    -0.87073       15.9990 ; qtot   -1.020
         5            c4bf         1   UNL        c4         5     0.01874       12.0110 ; qtot   -1.001
         6            c5bf         1   UNL        c5         6     0.90217       12.0110 ; qtot   -0.099
         7            o6bf         1   UNL        o6         7    -0.85686       15.9990 ; qtot   -0.956
         8            o7bf         1   UNL        o7         8    -0.85686       15.9990 ; qtot   -1.812
         9            c8bf         1   UNL        c8         9    -0.20270       12.0110 ; qtot   -2.015
        10            c9bf         1   UNL        c9        10     0.92447       12.0110 ; qtot   -1.091
        11           o10bf         1   UNL       o10        11    -0.87073       15.9990 ; qtot   -1.961
        12           o11bf         1   UNL       o11        12    -0.87073       15.9990 ; qtot   -2.832
        13           o12bf         1   UNL       o12        13    -0.67937       15.9990 ; qtot   -3.512
        14           h13bf         1   UNL       h13        14     0.01962        1.0080 ; qtot   -3.492
        15           h14bf         1   UNL       h14        15     0.01962        1.0080 ; qtot   -3.472
        16           h15bf         1   UNL       h15        16     0.01962        1.0080 ; qtot   -3.453
        17           h16bf         1   UNL       h16        17     0.01962        1.0080 ; qtot   -3.433
        18           h17bf         1   UNL       h17        18     0.43308        1.0080 ; qtot   -3.000

[ bonds ]
;       ai        aj funct               r               k
         1         2     1        0.155474   183186.023413    ;  uncertainty r = 0.000174, k = 61.033299
         1         5     1        0.154859   193537.580078    ;  uncertainty r = 0.000359, k = 21.059602
         1        14     1        0.109805   306928.219238    ;  uncertainty r = 0.000093, k = 4.570834
         1        15     1        0.109805   306928.193701    ;  uncertainty r = 0.000093, k = 4.570848
         2         3     1        0.127586   558836.276660    ;  uncertainty r = 0.000102, k = 14.254204
         2         4     1        0.127586   558836.276660    ;  uncertainty r = 0.000102, k = 14.254204
         5         6     1        0.156117   223165.095947    ;  uncertainty r = 0.000471, k = 93.730094
         5         9     1        0.154859   193537.580078    ;  uncertainty r = 0.000359, k = 21.059602
         5        13     1        0.144247   235847.616113    ;  uncertainty r = 0.000657, k = 81.429587
         6         7     1        0.126667   510774.772852    ;  uncertainty r = 0.000113, k = 25.385263
         6         8     1        0.126667   510774.772852    ;  uncertainty r = 0.000113, k = 25.385263
         9        10     1        0.155474   183186.023413    ;  uncertainty r = 0.000174, k = 61.033280
         9        16     1        0.109805   306928.219238    ;  uncertainty r = 0.000093, k = 4.570837
         9        17     1        0.109805   306928.244775    ;  uncertainty r = 0.000093, k = 4.570833
        10        11     1        0.127586   558836.276660    ;  uncertainty r = 0.000102, k = 14.254216
        10        12     1        0.127586   558836.276660    ;  uncertainty r = 0.000102, k = 14.254216
        13        18     1        0.099644   251660.730518    ;  uncertainty r = 0.000658, k = 145.981514

[ angles ]
;       ai        aj        ak funct           theta             cth
         1         2         3     1      117.917358      543.196023    ;  uncertainty theta = 0.009522, k = 0.200114
         1         2         4     1      117.917358      543.196023    ;  uncertainty theta = 0.009522, k = 0.200114
         1         5         6     1      109.263634      449.060045    ;  uncertainty theta = 0.014339, k = 0.256120
         1         5         9     1      110.067978      511.126074    ;  uncertainty theta = 0.024618, k = 0.214392
         1         5        13     1      109.800095      700.478505    ;  uncertainty theta = 0.009200, k = 0.400572
         2         1         5     1      115.464478      459.919765    ;  uncertainty theta = 0.009329, k = 0.513590
         2         1        14     1      106.849792      353.458046    ;  uncertainty theta = 0.005319, k = 0.047787
         2         1        15     1      106.849808      353.458046    ;  uncertainty theta = 0.005319, k = 0.047787
         3         2         4     1      130.038589      821.881157    ;  uncertainty theta = 0.007327, k = 0.126506
         5         1        14     1      107.019630      356.564763    ;  uncertainty theta = 0.004592, k = 0.112209
         5         1        15     1      107.019630      356.564763    ;  uncertainty theta = 0.004592, k = 0.112208
         5         6         7     1      117.688889      420.171733    ;  uncertainty theta = 0.005215, k = 0.190026
         5         6         8     1      117.688889      420.171733    ;  uncertainty theta = 0.005215, k = 0.190026
         5         9        10     1      115.464478      459.919701    ;  uncertainty theta = 0.009329, k = 0.513590
         5         9        16     1      107.019630      356.564763    ;  uncertainty theta = 0.004592, k = 0.112208
         5         9        17     1      107.019630      356.564763    ;  uncertainty theta = 0.004592, k = 0.112208
         5        13        18     1      108.141129      452.995441    ;  uncertainty theta = 0.010503, k = 0.229456
         6         5         9     1      109.263626      449.060013    ;  uncertainty theta = 0.014339, k = 0.256120
         6         5        13     1      104.527588      528.647085    ;  uncertainty theta = 0.019192, k = 0.192553
         7         6         8     1      130.186600      835.077075    ;  uncertainty theta = 0.007095, k = 0.247560
         9         5        13     1      109.800095      700.478505    ;  uncertainty theta = 0.009200, k = 0.400572
         9        10        11     1      117.917358      543.195959    ;  uncertainty theta = 0.009522, k = 0.200114
         9        10        12     1      117.917358      543.195959    ;  uncertainty theta = 0.009522, k = 0.200114
        10         9        16     1      106.849792      353.458046    ;  uncertainty theta = 0.005319, k = 0.047787
        10         9        17     1      106.849808      353.458014    ;  uncertainty theta = 0.005319, k = 0.047787
        11        10        12     1      130.038574      821.881157    ;  uncertainty theta = 0.007327, k = 0.126506
        14         1        15     1      106.813644      316.960281    ;  uncertainty theta = 0.003556, k = 0.120768
        16         9        17     1      106.813644      316.960281    ;  uncertainty theta = 0.003556, k = 0.120768

[ dihedrals ] ; propers for gromacs 4.5 or higher, use funct 9
;       ai        aj        ak        al funct           phase               k        pn
         1         5         6         7     9        0.000000       -1.415763         1    ;  uncertainty k = 1.536481
         1         5         6         7     9      180.000000        3.292125         2    ;  uncertainty k = 0.432674
         1         5         6         7     9        0.000000        1.510474         3    ;  uncertainty k = 0.492380
         1         5         6         7     9      180.000000        0.143828         4    ;  uncertainty k = 0.377507
         1         5         6         8     9        0.000000       -1.415763         1    ;  uncertainty k = 1.536481
         1         5         6         8     9      180.000000        3.292125         2    ;  uncertainty k = 0.432674
         1         5         6         8     9        0.000000        1.510474         3    ;  uncertainty k = 0.492380
         1         5         6         8     9      180.000000        0.143828         4    ;  uncertainty k = 0.377507
         1         5         9        10     9        0.000000       -1.929547         1    ;  uncertainty k = 2.008683
         1         5         9        10     9      180.000000       -0.522262         2    ;  uncertainty k = 1.069214
         1         5         9        10     9        0.000000        0.875127         3    ;  uncertainty k = 0.259558
         1         5         9        10     9      180.000000        0.074643         4    ;  uncertainty k = 0.312616
         1         5         9        16     9        0.000000       -0.134255         1    ;  uncertainty k = 1.013567
         1         5         9        16     9      180.000000       -0.067113         2    ;  uncertainty k = 0.640500
         1         5         9        16     9        0.000000        0.210754         3    ;  uncertainty k = 0.305642
         1         5         9        16     9      180.000000       -0.169895         4    ;  uncertainty k = 0.098207
         1         5         9        17     9        0.000000       -0.134255         1    ;  uncertainty k = 1.013567
         1         5         9        17     9      180.000000       -0.067113         2    ;  uncertainty k = 0.640500
         1         5         9        17     9        0.000000        0.210754         3    ;  uncertainty k = 0.305642
         1         5         9        17     9      180.000000       -0.169895         4    ;  uncertainty k = 0.098207
         1         5        13        18     9        0.000000       17.506461         1    ;  uncertainty k = 1.000110
         1         5        13        18     9      180.000000       -3.042269         2    ;  uncertainty k = 1.944900
         1         5        13        18     9        0.000000        1.061978         3    ;  uncertainty k = 0.296758
         1         5        13        18     9      180.000000        0.181369         4    ;  uncertainty k = 0.315875
         2         1         5         6     9        0.000000        8.492364         1    ;  uncertainty k = 2.153018
         2         1         5         6     9      180.000000       -0.501141         2    ;  uncertainty k = 1.319404
         2         1         5         6     9        0.000000        0.494411         3    ;  uncertainty k = 1.009185
         2         1         5         6     9      180.000000        0.819756         4    ;  uncertainty k = 0.672138
         2         1         5         9     9        0.000000       -1.929547         1    ;  uncertainty k = 2.008683
         2         1         5         9     9      180.000000       -0.522262         2    ;  uncertainty k = 1.069214
         2         1         5         9     9        0.000000        0.875127         3    ;  uncertainty k = 0.259558
         2         1         5         9     9      180.000000        0.074643         4    ;  uncertainty k = 0.312616
         2         1         5        13     9        0.000000       -4.776143         1    ;  uncertainty k = 3.514285
         2         1         5        13     9      180.000000       -1.024612         2    ;  uncertainty k = 1.384176
         2         1         5        13     9        0.000000        1.715804         3    ;  uncertainty k = 0.972713
         2         1         5        13     9      180.000000       -0.109268         4    ;  uncertainty k = 0.379687
         3         2         1         5     9        0.000000       -1.112245         1    ;  uncertainty k = 0.746547
         3         2         1         5     9      180.000000        4.190528         2    ;  uncertainty k = 1.287640
         3         2         1         5     9        0.000000        1.193302         3    ;  uncertainty k = 0.215149
         3         2         1         5     9      180.000000       -0.042643         4    ;  uncertainty k = 0.679476
         3         2         1        14     9        0.000000       -4.407736         1    ;  uncertainty k = 2.392728
         3         2         1        14     9      180.000000        3.531731         2    ;  uncertainty k = 0.218284
         3         2         1        14     9        0.000000        0.976679         3    ;  uncertainty k = 0.423474
         3         2         1        14     9      180.000000        0.371027         4    ;  uncertainty k = 0.105698
         3         2         1        15     9        0.000000       -4.407739         1    ;  uncertainty k = 2.392730
         3         2         1        15     9      180.000000        3.531728         2    ;  uncertainty k = 0.218282
         3         2         1        15     9        0.000000        0.976679         3    ;  uncertainty k = 0.423472
         3         2         1        15     9      180.000000        0.371027         4    ;  uncertainty k = 0.105697
         4         2         1         5     9        0.000000       -1.112245         1    ;  uncertainty k = 0.746544
         4         2         1         5     9      180.000000        4.190527         2    ;  uncertainty k = 1.287639
         4         2         1         5     9        0.000000        1.193303         3    ;  uncertainty k = 0.215149
         4         2         1         5     9      180.000000       -0.042643         4    ;  uncertainty k = 0.679476
         4         2         1        14     9        0.000000       -4.407736         1    ;  uncertainty k = 2.392728
         4         2         1        14     9      180.000000        3.531731         2    ;  uncertainty k = 0.218284
         4         2         1        14     9        0.000000        0.976679         3    ;  uncertainty k = 0.423474
         4         2         1        14     9      180.000000        0.371027         4    ;  uncertainty k = 0.105698
         4         2         1        15     9        0.000000       -4.407739         1    ;  uncertainty k = 2.392730
         4         2         1        15     9      180.000000        3.531728         2    ;  uncertainty k = 0.218282
         4         2         1        15     9        0.000000        0.976679         3    ;  uncertainty k = 0.423472
         4         2         1        15     9      180.000000        0.371027         4    ;  uncertainty k = 0.105697
         5         9        10        11     9        0.000000       -1.112245         1    ;  uncertainty k = 0.746545
         5         9        10        11     9      180.000000        4.190526         2    ;  uncertainty k = 1.287641
         5         9        10        11     9        0.000000        1.193303         3    ;  uncertainty k = 0.215148
         5         9        10        11     9      180.000000       -0.042642         4    ;  uncertainty k = 0.679477
         5         9        10        12     9        0.000000       -1.112245         1    ;  uncertainty k = 0.746545
         5         9        10        12     9      180.000000        4.190526         2    ;  uncertainty k = 1.287641
         5         9        10        12     9        0.000000        1.193303         3    ;  uncertainty k = 0.215148
         5         9        10        12     9      180.000000       -0.042642         4    ;  uncertainty k = 0.679477
         6         5         1        14     9        0.000000       -0.763081         1    ;  uncertainty k = 2.798825
         6         5         1        14     9      180.000000        0.214975         2    ;  uncertainty k = 0.890160
         6         5         1        14     9        0.000000        0.413348         3    ;  uncertainty k = 0.191804
         6         5         1        14     9      180.000000       -0.057452         4    ;  uncertainty k = 0.280482
         6         5         1        15     9        0.000000       -0.763083         1    ;  uncertainty k = 2.798824
         6         5         1        15     9      180.000000        0.214976         2    ;  uncertainty k = 0.890162
         6         5         1        15     9        0.000000        0.413348         3    ;  uncertainty k = 0.191803
         6         5         1        15     9      180.000000       -0.057452         4    ;  uncertainty k = 0.280481
         6         5         9        10     9        0.000000        8.492363         1    ;  uncertainty k = 2.153018
         6         5         9        10     9      180.000000       -0.501140         2    ;  uncertainty k = 1.319404
         6         5         9        10     9        0.000000        0.494412         3    ;  uncertainty k = 1.009185
         6         5         9        10     9      180.000000        0.819755         4    ;  uncertainty k = 0.672136
         6         5         9        16     9        0.000000       -0.763081         1    ;  uncertainty k = 2.798821
         6         5         9        16     9      180.000000        0.214976         2    ;  uncertainty k = 0.890159
         6         5         9        16     9        0.000000        0.413348         3    ;  uncertainty k = 0.191804
         6         5         9        16     9      180.000000       -0.057452         4    ;  uncertainty k = 0.280482
         6         5         9        17     9        0.000000       -0.763081         1    ;  uncertainty k = 2.798821
         6         5         9        17     9      180.000000        0.214976         2    ;  uncertainty k = 0.890159
         6         5         9        17     9        0.000000        0.413348         3    ;  uncertainty k = 0.191804
         6         5         9        17     9      180.000000       -0.057452         4    ;  uncertainty k = 0.280482
         6         5        13        18     9        0.000000       13.671461         1    ;  uncertainty k = 0.861156
         6         5        13        18     9      180.000000       -1.387794         2    ;  uncertainty k = 1.244093
         6         5        13        18     9        0.000000        0.200487         3    ;  uncertainty k = 0.471150
         6         5        13        18     9      180.000000        0.215057         4    ;  uncertainty k = 0.274324
         7         6         5         9     9        0.000000       -1.415762         1    ;  uncertainty k = 1.536482
         7         6         5         9     9      180.000000        3.292125         2    ;  uncertainty k = 0.432675
         7         6         5         9     9        0.000000        1.510475         3    ;  uncertainty k = 0.492380
         7         6         5         9     9      180.000000        0.143829         4    ;  uncertainty k = 0.377507
         7         6         5        13     9        0.000000        1.175184         1    ;  uncertainty k = 1.865732
         7         6         5        13     9      180.000000        3.529682         2    ;  uncertainty k = 1.751029
         7         6         5        13     9        0.000000        1.736742         3    ;  uncertainty k = 0.266007
         7         6         5        13     9      180.000000        0.104977         4    ;  uncertainty k = 0.110932
         8         6         5         9     9        0.000000       -1.415763         1    ;  uncertainty k = 1.536481
         8         6         5         9     9      180.000000        3.292125         2    ;  uncertainty k = 0.432675
         8         6         5         9     9        0.000000        1.510475         3    ;  uncertainty k = 0.492380
         8         6         5         9     9      180.000000        0.143828         4    ;  uncertainty k = 0.377507
         8         6         5        13     9        0.000000        1.175184         1    ;  uncertainty k = 1.865734
         8         6         5        13     9      180.000000        3.529681         2    ;  uncertainty k = 1.751028
         8         6         5        13     9        0.000000        1.736743         3    ;  uncertainty k = 0.266007
         8         6         5        13     9      180.000000        0.104977         4    ;  uncertainty k = 0.110933
         9         5         1        14     9        0.000000       -0.134255         1    ;  uncertainty k = 1.013568
         9         5         1        14     9      180.000000       -0.067113         2    ;  uncertainty k = 0.640500
         9         5         1        14     9        0.000000        0.210754         3    ;  uncertainty k = 0.305642
         9         5         1        14     9      180.000000       -0.169895         4    ;  uncertainty k = 0.098206
         9         5         1        15     9        0.000000       -0.134254         1    ;  uncertainty k = 1.013568
         9         5         1        15     9      180.000000       -0.067115         2    ;  uncertainty k = 0.640502
         9         5         1        15     9        0.000000        0.210754         3    ;  uncertainty k = 0.305642
         9         5         1        15     9      180.000000       -0.169895         4    ;  uncertainty k = 0.098207
         9         5        13        18     9        0.000000       17.506459         1    ;  uncertainty k = 1.000110
         9         5        13        18     9      180.000000       -3.042269         2    ;  uncertainty k = 1.944903
         9         5        13        18     9        0.000000        1.061979         3    ;  uncertainty k = 0.296757
         9         5        13        18     9      180.000000        0.181368         4    ;  uncertainty k = 0.315875
        10         9         5        13     9        0.000000       -4.776145         1    ;  uncertainty k = 3.514281
        10         9         5        13     9      180.000000       -1.024611         2    ;  uncertainty k = 1.384176
        10         9         5        13     9        0.000000        1.715804         3    ;  uncertainty k = 0.972713
        10         9         5        13     9      180.000000       -0.109268         4    ;  uncertainty k = 0.379687
        11        10         9        16     9        0.000000       -4.407739         1    ;  uncertainty k = 2.392728
        11        10         9        16     9      180.000000        3.531728         2    ;  uncertainty k = 0.218284
        11        10         9        16     9        0.000000        0.976677         3    ;  uncertainty k = 0.423472
        11        10         9        16     9      180.000000        0.371027         4    ;  uncertainty k = 0.105697
        11        10         9        17     9        0.000000       -4.407739         1    ;  uncertainty k = 2.392728
        11        10         9        17     9      180.000000        3.531728         2    ;  uncertainty k = 0.218284
        11        10         9        17     9        0.000000        0.976677         3    ;  uncertainty k = 0.423472
        11        10         9        17     9      180.000000        0.371027         4    ;  uncertainty k = 0.105697
        12        10         9        16     9        0.000000       -4.407739         1    ;  uncertainty k = 2.392728
        12        10         9        16     9      180.000000        3.531728         2    ;  uncertainty k = 0.218284
        12        10         9        16     9        0.000000        0.976677         3    ;  uncertainty k = 0.423472
        12        10         9        16     9      180.000000        0.371027         4    ;  uncertainty k = 0.105697
        12        10         9        17     9        0.000000       -4.407739         1    ;  uncertainty k = 2.392728
        12        10         9        17     9      180.000000        3.531728         2    ;  uncertainty k = 0.218284
        12        10         9        17     9        0.000000        0.976677         3    ;  uncertainty k = 0.423472
        12        10         9        17     9      180.000000        0.371027         4    ;  uncertainty k = 0.105697
        13         5         1        14     9        0.000000       -1.220017         1    ;  uncertainty k = 0.970208
        13         5         1        14     9      180.000000       -0.473008         2    ;  uncertainty k = 0.595270
        13         5         1        14     9        0.000000        0.730621         3    ;  uncertainty k = 0.201295
        13         5         1        14     9      180.000000       -0.152989         4    ;  uncertainty k = 0.277390
        13         5         1        15     9        0.000000       -1.220017         1    ;  uncertainty k = 0.970210
        13         5         1        15     9      180.000000       -0.473009         2    ;  uncertainty k = 0.595271
        13         5         1        15     9        0.000000        0.730622         3    ;  uncertainty k = 0.201295
        13         5         1        15     9      180.000000       -0.152989         4    ;  uncertainty k = 0.277390
        13         5         9        16     9        0.000000       -1.220017         1    ;  uncertainty k = 0.970210
        13         5         9        16     9      180.000000       -0.473009         2    ;  uncertainty k = 0.595271
        13         5         9        16     9        0.000000        0.730622         3    ;  uncertainty k = 0.201295
        13         5         9        16     9      180.000000       -0.152989         4    ;  uncertainty k = 0.277390
        13         5         9        17     9        0.000000       -1.220017         1    ;  uncertainty k = 0.970210
        13         5         9        17     9      180.000000       -0.473009         2    ;  uncertainty k = 0.595271
        13         5         9        17     9        0.000000        0.730622         3    ;  uncertainty k = 0.201295
        13         5         9        17     9      180.000000       -0.152989         4    ;  uncertainty k = 0.277390

[ dihedrals ] ; impropers
;       ai        aj        ak        al funct           phase               k        pn
         2         1         3         4     4      180.000000       70.310871         2    ;  uncertainty k = 0.099586
         2         3         4         1     4      180.000000       70.310871         2    ;  uncertainty k = 0.099586
         2         4         1         3     4      180.000000       70.310871         2    ;  uncertainty k = 0.099586
         6         5         7         8     4      180.000000       64.243573         2    ;  uncertainty k = 0.076197
         6         7         8         5     4      180.000000       64.243573         2    ;  uncertainty k = 0.076197
         6         8         5         7     4      180.000000       64.243573         2    ;  uncertainty k = 0.076197
        10         9        11        12     4      180.000000       70.310866         2    ;  uncertainty k = 0.099586
        10        11        12         9     4      180.000000       70.310866         2    ;  uncertainty k = 0.099586
        10        12         9        11     4      180.000000       70.310866         2    ;  uncertainty k = 0.099586

[ pairs ]
;       ai        aj funct
         1         7     1
         1         8     1
         1        10     1
         1        16     1
         1        17     1
         1        18     1
         2         6     1
         2         9     1
         2        13     1
         3         5     1
         3        14     1
         3        15     1
         4         5     1
         4        14     1
         4        15     1
         5        11     1
         5        12     1
         6        10     1
         6        14     1
         6        15     1
         6        16     1
         6        17     1
         6        18     1
         7         9     1
         7        13     1
         8         9     1
         8        13     1
         9        14     1
         9        15     1
         9        18     1
        10        13     1
        11        16     1
        11        17     1
        12        16     1
        12        17     1
        13        14     1
        13        15     1
        13        16     1
        13        17     1
