clashed crystal waters from jacs/p38
18
  100SOL     OW  298   2.281   1.563   3.002
  100SOL    HW1  299   2.229   1.607   2.928
  100SOL    HW2  300   2.219   1.503   3.055
  243SOL     OW  727   2.742   1.567   3.613
  243SOL    HW1  728   2.704   1.514   3.535
  243SOL    HW2  729   2.836   1.594   3.591
  255SOL     OW  763   2.610   1.431   3.413
  255SOL    HW1  764   2.525   1.486   3.403
  255SOL    HW2  765   2.611   1.361   3.343
  277SOL     OW  829   3.163   0.615   3.171
  277SOL    HW1  830   3.082   0.574   3.130
  277SOL    HW2  831   3.166   0.712   3.148
  332SOL     OW  994   2.544   1.560   2.933
  332SOL    HW1  995   2.448   1.558   2.965
  332SOL    HW2  996   2.584   1.468   2.943
  333SOL     OW  997   2.720   1.280   2.946
  333SOL    HW1  998   2.699   1.322   2.857
  333SOL    HW2  999   2.818   1.258   2.949
     6.268     6.268     6.268
