Generated by PDBParser (exclude clash < 1.000 A)
1011
    1SOL     OW    1   3.236   2.554   1.605
    1SOL    HW1    2   3.143   2.590   1.621
    1SOL    HW2    3   3.265   2.498   1.684
    2SOL     OW    4   3.549   2.228   1.749
    2SOL    HW1    5   3.539   2.131   1.774
    2SOL    HW2    6   3.467   2.279   1.775
    3SOL     OW    7   3.596   1.931   1.763
    3SOL    HW1    8   3.614   1.875   1.844
    3SOL    HW2    9   3.549   1.875   1.694
    4SOL     OW   10   1.935   1.734   0.818
    4SOL    HW1   11   1.909   1.722   0.915
    4SOL    HW2   12   1.906   1.824   0.788
    5SOL     OW   13   2.415   2.150   1.743
    5SOL    HW1   14   2.514   2.148   1.724
    5SOL    HW2   15   2.368   2.186   1.662
    6SOL     OW   16   3.139   1.794   2.514
    6SOL    HW1   17   3.099   1.868   2.458
    6SOL    HW2   18   3.147   1.827   2.608
    7SOL     OW   19   1.388   0.707   2.112
    7SOL    HW1   20   1.324   0.779   2.142
    7SOL    HW2   21   1.482   0.736   2.133
    8SOL     OW   22   1.690   0.732   1.090
    8SOL    HW1   23   1.741   0.812   1.125
    8SOL    HW2   24   1.596   0.761   1.065
    9SOL     OW   25   4.006   1.805   1.484
    9SOL    HW1   26   4.022   1.793   1.583
    9SOL    HW2   27   3.908   1.817   1.468
   10SOL     OW   28   2.706   2.252   2.016
   10SOL    HW1   29   2.643   2.302   1.956
   10SOL    HW2   30   2.703   2.153   1.994
   11SOL     OW   31   1.793   1.523   0.684
   11SOL    HW1   32   1.707   1.496   0.730
   11SOL    HW2   33   1.784   1.618   0.653
   12SOL     OW   34   4.163   2.669   1.224
   12SOL    HW1   35   4.153   2.630   1.317
   12SOL    HW2   36   4.081   2.724   1.204
   13SOL     OW   37   1.194  -0.901   3.743
   13SOL    HW1   38   1.183  -0.803   3.722
   13SOL    HW2   39   1.271  -0.912   3.808
   14SOL     OW   40   0.146   2.133   2.037
   14SOL    HW1   41   0.048   2.155   2.046
   14SOL    HW2   42   0.162   2.094   1.946
   15SOL     OW   43   2.541   2.447   1.600
   15SOL    HW1   44   2.557   2.369   1.538
   15SOL    HW2   45   2.446   2.479   1.588
   16SOL     OW   46   0.482   1.458   2.216
   16SOL    HW1   47   0.418   1.403   2.272
   16SOL    HW2   48   0.575   1.450   2.255
   17SOL     OW   49   0.999   0.809   2.357
   17SOL    HW1   50   0.993   0.907   2.379
   17SOL    HW2   51   1.045   0.798   2.268
   18SOL     OW   52   0.637  -0.047   4.120
   18SOL    HW1   53   0.666  -0.144   4.120
   18SOL    HW2   54   0.567  -0.036   4.192
   19SOL     OW   55   0.229   1.565   1.783
   19SOL    HW1   56   0.288   1.505   1.838
   19SOL    HW2   57   0.181   1.511   1.712
   20SOL     OW   58   1.931   1.558   3.057
   20SOL    HW1   59   1.945   1.460   3.074
   20SOL    HW2   60   1.964   1.581   2.965
   21SOL     OW   61   1.555   1.440   0.804
   21SOL    HW1   62   1.550   1.391   0.892
   21SOL    HW2   63   1.514   1.382   0.732
   22SOL     OW   64   1.636   0.480   2.186
   22SOL    HW1   65   1.623   0.523   2.096
   22SOL    HW2   66   1.654   0.552   2.254
   23SOL     OW   67   4.078   3.719   1.866
   23SOL    HW1   68   3.988   3.675   1.874
   23SOL    HW2   69   4.083   3.794   1.933
   24SOL     OW   70   1.796   1.401   2.701
   24SOL    HW1   71   1.786   1.302   2.690
   24SOL    HW2   72   1.866   1.420   2.770
   25SOL     OW   73   1.921   0.921   0.247
   25SOL    HW1   74   1.927   0.869   0.161
   25SOL    HW2   75   1.997   0.986   0.253
   26SOL     OW   76   4.124   2.554   1.483
   26SOL    HW1   77   4.072   2.468   1.495
   26SOL    HW2   78   4.206   2.550   1.541
   27SOL     OW   79   1.127   0.190   3.298
   27SOL    HW1   80   1.144   0.095   3.327
   27SOL    HW2   81   1.088   0.241   3.375
   28SOL     OW   82   0.261   0.890   3.758
   28SOL    HW1   83   0.264   0.831   3.676
   28SOL    HW2   84   0.165   0.902   3.786
   29SOL     OW   85   2.772   2.080   0.137
   29SOL    HW1   86   2.710   2.159   0.129
   29SOL    HW2   87   2.808   2.077   0.231
   30SOL     OW   88   0.038   1.662   1.399
   30SOL    HW1   89   0.113   1.730   1.388
   30SOL    HW2   90   0.014   1.628   1.307
   31SOL     OW   91   0.480  -0.216   4.924
   31SOL    HW1   92   0.448  -0.305   4.960
   31SOL    HW2   93   0.556  -0.230   4.860
   32SOL     OW   94   4.206   1.961   1.378
   32SOL    HW1   95   4.281   1.917   1.327
   32SOL    HW2   96   4.149   1.890   1.421
   33SOL     OW   97   0.500  -0.065   3.880
   33SOL    HW1   98   0.505   0.011   3.813
   33SOL    HW2   99   0.550  -0.040   3.963
   34SOL     OW  100   1.204   2.173   3.358
   34SOL    HW1  101   1.252   2.180   3.447
   34SOL    HW2  102   1.105   2.171   3.373
   35SOL     OW  103   0.447  -0.091   4.332
   35SOL    HW1  104   0.493  -0.122   4.415
   35SOL    HW2  105   0.374  -0.156   4.309
   36SOL     OW  106   1.346   2.251   1.758
   36SOL    HW1  107   1.300   2.281   1.674
   36SOL    HW2  108   1.279   2.246   1.832
   37SOL     OW  109   0.593   0.387   3.697
   37SOL    HW1  110   0.671   0.413   3.639
   37SOL    HW2  111   0.509   0.430   3.660
   38SOL     OW  112   3.743   1.877   2.291
   38SOL    HW1  113   3.731   1.789   2.244
   38SOL    HW2  114   3.667   1.889   2.355
   39SOL     OW  115   2.671   1.865   0.008
   39SOL    HW1  116   2.710   1.948   0.050
   39SOL    HW2  117   2.668   1.792   0.076
   40SOL     OW  118   0.376   3.091   2.794
   40SOL    HW1  119   0.369   3.186   2.827
   40SOL    HW2  120   0.451   3.085   2.727
   41SOL     OW  121   0.734   1.990   1.416
   41SOL    HW1  122   0.654   1.949   1.462
   41SOL    HW2  123   0.809   1.923   1.413
   42SOL     OW  124   3.071   3.180   0.232
   42SOL    HW1  125   3.162   3.142   0.253
   42SOL    HW2  126   3.023   3.198   0.318
   43SOL     OW  127   0.288   0.765   2.534
   43SOL    HW1  128   0.218   0.835   2.515
   43SOL    HW2  129   0.376   0.793   2.491
   44SOL     OW  130  -0.174   2.675   1.876
   44SOL    HW1  131  -0.097   2.730   1.839
   44SOL    HW2  132  -0.258   2.729   1.870
   45SOL     OW  133   3.411   1.790   2.437
   45SOL    HW1  134   3.431   1.695   2.460
   45SOL    HW2  135   3.313   1.806   2.451
   46SOL     OW  136   0.544   0.836   2.457
   46SOL    HW1  137   0.600   0.874   2.382
   46SOL    HW2  138   0.598   0.834   2.541
   47SOL     OW  139  -0.142   1.827   1.488
   47SOL    HW1  140  -0.099   1.901   1.540
   47SOL    HW2  141  -0.071   1.762   1.457
   48SOL     OW  142  -0.361   2.225   1.424
   48SOL    HW1  143  -0.451   2.252   1.459
   48SOL    HW2  144  -0.362   2.126   1.404
   49SOL     OW  145  -0.480   1.815   3.377
   49SOL    HW1  146  -0.548   1.768   3.436
   49SOL    HW2  147  -0.474   1.766   3.289
   50SOL     OW  148   4.562   2.457   0.289
   50SOL    HW1  149   4.631   2.433   0.358
   50SOL    HW2  150   4.605   2.512   0.217
   51SOL     OW  151   0.426   1.576   4.299
   51SOL    HW1  152   0.352   1.531   4.350
   51SOL    HW2  153   0.508   1.577   4.358
   52SOL     OW  154   4.470   1.357   1.063
   52SOL    HW1  155   4.415   1.281   1.101
   52SOL    HW2  156   4.533   1.318   0.994
   53SOL     OW  157   1.250   0.502   1.448
   53SOL    HW1  158   1.174   0.518   1.385
   53SOL    HW2  159   1.224   0.535   1.540
   54SOL     OW  160   0.900   1.401   4.449
   54SOL    HW1  161   0.873   1.495   4.426
   54SOL    HW2  162   0.847   1.371   4.529
   55SOL     OW  163   1.936   0.007   2.941
   55SOL    HW1  164   1.932   0.037   3.038
   55SOL    HW2  165   1.849  -0.034   2.916
   56SOL     OW  166   1.655   1.010   0.219
   56SOL    HW1  167   1.748   0.978   0.241
   56SOL    HW2  168   1.602   0.934   0.181
   57SOL     OW  169   1.441   1.700   0.777
   57SOL    HW1  170   1.385   1.718   0.859
   57SOL    HW2  171   1.459   1.602   0.769
   58SOL     OW  172   1.800   2.151   0.590
   58SOL    HW1  173   1.721   2.208   0.566
   58SOL    HW2  174   1.854   2.135   0.507
   59SOL     OW  175   0.514   0.131   3.694
   59SOL    HW1  176   0.549   0.225   3.704
   59SOL    HW2  177   0.418   0.137   3.663
   60SOL     OW  178   4.110   2.153   2.383
   60SOL    HW1  179   4.073   2.104   2.463
   60SOL    HW2  180   4.108   2.252   2.402
   61SOL     OW  181   2.958   0.991  -0.182
   61SOL    HW1  182   2.946   0.942  -0.270
   61SOL    HW2  183   2.999   1.080  -0.200
   62SOL     OW  184   1.415   0.397   0.627
   62SOL    HW1  185   1.464   0.392   0.539
   62SOL    HW2  186   1.348   0.471   0.623
   63SOL     OW  187   3.827   4.350   1.285
   63SOL    HW1  188   3.889   4.425   1.257
   63SOL    HW2  189   3.880   4.282   1.338
   64SOL     OW  190   1.611  -0.383   4.699
   64SOL    HW1  191   1.690  -0.402   4.638
   64SOL    HW2  192   1.562  -0.302   4.664
   65SOL     OW  193   0.127   3.218   3.529
   65SOL    HW1  194   0.069   3.191   3.606
   65SOL    HW2  195   0.172   3.304   3.551
   66SOL     OW  196   3.702   3.323   0.126
   66SOL    HW1  197   3.788   3.322   0.177
   66SOL    HW2  198   3.630   3.362   0.185
   67SOL     OW  199   0.659   0.948   1.748
   67SOL    HW1  200   0.738   0.968   1.807
   67SOL    HW2  201   0.587   1.014   1.768
   68SOL     OW  202  -0.605   2.479   3.166
   68SOL    HW1  203  -0.530   2.432   3.118
   68SOL    HW2  204  -0.572   2.511   3.256
   69SOL     OW  205  -0.168   1.114   3.919
   69SOL    HW1  206  -0.221   1.197   3.893
   69SOL    HW2  207  -0.112   1.135   4.000
   70SOL     OW  208   4.276   3.542   1.875
   70SOL    HW1  209   4.202   3.611   1.873
   70SOL    HW2  210   4.241   3.457   1.915
   71SOL     OW  211   0.088   0.952   2.500
   71SOL    HW1  212   0.013   0.886   2.503
   71SOL    HW2  213   0.090   0.997   2.411
   72SOL     OW  214   1.410   2.436   2.675
   72SOL    HW1  215   1.474   2.422   2.751
   72SOL    HW2  216   1.462   2.462   2.593
   73SOL     OW  217   0.648   1.738   1.228
   73SOL    HW1  218   0.661   1.833   1.258
   73SOL    HW2  219   0.682   1.728   1.134
   74SOL     OW  220   2.998   2.888   0.249
   74SOL    HW1  221   3.016   2.983   0.226
   74SOL    HW2  222   3.072   2.830   0.213
   75SOL     OW  223   1.589   0.564   2.459
   75SOL    HW1  224   1.677   0.561   2.507
   75SOL    HW2  225   1.528   0.497   2.502
   76SOL     OW  226   3.453   2.411   0.390
   76SOL    HW1  227   3.399   2.420   0.474
   76SOL    HW2  228   3.412   2.340   0.332
   77SOL     OW  229   0.947   2.178   2.076
   77SOL    HW1  230   0.939   2.264   2.128
   77SOL    HW2  231   0.946   2.200   1.978
   78SOL     OW  232   3.239   2.791   0.366
   78SOL    HW1  233   3.320   2.742   0.328
   78SOL    HW2  234   3.257   2.890   0.361
   79SOL     OW  235   0.060   1.464   1.582
   79SOL    HW1  236   0.052   1.541   1.517
   79SOL    HW2  237   0.033   1.379   1.535
   80SOL     OW  238   1.034   1.743   3.966
   80SOL    HW1  239   1.126   1.783   3.954
   80SOL    HW2  240   1.004   1.760   4.060
   81SOL     OW  241   2.162   0.289   2.050
   81SOL    HW1  242   2.192   0.252   2.139
   81SOL    HW2  243   2.193   0.384   2.041
   82SOL     OW  244   3.581   3.664   0.188
   82SOL    HW1  245   3.481   3.669   0.200
   82SOL    HW2  246   3.609   3.734   0.122
   83SOL     OW  247   3.946   3.569   2.590
   83SOL    HW1  248   3.887   3.505   2.639
   83SOL    HW2  249   3.941   3.549   2.491
   84SOL     OW  250   2.300   3.127   0.550
   84SOL    HW1  251   2.257   3.155   0.637
   84SOL    HW2  252   2.228   3.124   0.480
   85SOL     OW  253   2.645   0.403   3.316
   85SOL    HW1  254   2.620   0.446   3.228
   85SOL    HW2  255   2.746   0.394   3.321
   86SOL     OW  256   1.826   0.775   0.456
   86SOL    HW1  257   1.863   0.826   0.378
   86SOL    HW2  258   1.892   0.705   0.484
   87SOL     OW  259   1.254   2.036   3.126
   87SOL    HW1  260   1.189   2.069   3.058
   87SOL    HW2  261   1.239   2.084   3.213
   88SOL     OW  262   2.543   2.402   1.865
   88SOL    HW1  263   2.546   2.412   1.765
   88SOL    HW2  264   2.447   2.401   1.895
   89SOL     OW  265  -0.081   3.260   2.244
   89SOL    HW1  266  -0.181   3.259   2.240
   89SOL    HW2  267  -0.046   3.330   2.182
   90SOL     OW  268   4.512   1.390   0.408
   90SOL    HW1  269   4.455   1.389   0.491
   90SOL    HW2  270   4.544   1.484   0.393
   91SOL     OW  271   0.714  -0.323   4.124
   91SOL    HW1  272   0.758  -0.399   4.172
   91SOL    HW2  273   0.693  -0.351   4.030
   92SOL     OW  274   3.828   2.706   3.048
   92SOL    HW1  275   3.801   2.681   2.954
   92SOL    HW2  276   3.901   2.643   3.079
   93SOL     OW  277  -0.030   2.723   1.516
   93SOL    HW1  278  -0.007   2.630   1.484
   93SOL    HW2  279   0.019   2.742   1.602
   94SOL     OW  280   0.541   3.149   2.585
   94SOL    HW1  281   0.467   3.207   2.553
   94SOL    HW2  282   0.623   3.168   2.530
   95SOL     OW  283   2.906   3.331   0.027
   95SOL    HW1  284   2.972   3.272   0.076
   95SOL    HW2  285   2.952   3.372  -0.052
   96SOL     OW  286   3.871   3.025  -0.155
   96SOL    HW1  287   3.900   3.118  -0.181
   96SOL    HW2  288   3.774   3.014  -0.176
   97SOL     OW  289   0.736  -0.037   3.142
   97SOL    HW1  290   0.735  -0.130   3.102
   97SOL    HW2  291   0.642  -0.004   3.150
   98SOL     OW  292   0.626   0.688   4.975
   98SOL    HW1  293   0.615   0.600   4.927
   98SOL    HW2  294   0.597   0.762   4.914
   99SOL     OW  295   1.019   0.574   1.290
   99SOL    HW1  296   1.017   0.657   1.233
   99SOL    HW2  297   0.959   0.588   1.370
  101SOL     OW  301   2.166   2.770   1.018
  101SOL    HW1  302   2.258   2.757   1.056
  101SOL    HW2  303   2.175   2.790   0.920
  102SOL     OW  304   1.768   1.646   0.260
  102SOL    HW1  305   1.714   1.570   0.223
  102SOL    HW2  306   1.711   1.730   0.258
  103SOL     OW  307   1.572   1.599   2.457
  103SOL    HW1  308   1.558   1.585   2.556
  103SOL    HW2  309   1.528   1.685   2.429
  104SOL     OW  310  -0.091   3.004   3.676
  104SOL    HW1  311  -0.057   2.982   3.769
  104SOL    HW2  312  -0.139   3.092   3.680
  105SOL     OW  313   1.921   2.121   2.293
  105SOL    HW1  314   1.935   2.028   2.331
  105SOL    HW2  315   1.946   2.122   2.196
  106SOL     OW  316  -0.696   3.077   2.923
  106SOL    HW1  317  -0.646   3.025   2.992
  106SOL    HW2  318  -0.709   3.172   2.955
  107SOL     OW  319  -0.521   2.036   3.042
  107SOL    HW1  320  -0.504   2.056   3.140
  107SOL    HW2  321  -0.497   1.940   3.024
  108SOL     OW  322   1.083   2.776   2.850
  108SOL    HW1  323   1.051   2.765   2.945
  108SOL    HW2  324   1.028   2.846   2.804
  109SOL     OW  325   2.109   0.104   0.974
  109SOL    HW1  326   2.192   0.046   0.974
  109SOL    HW2  327   2.132   0.193   0.932
  110SOL     OW  328  -0.541   2.041   2.624
  110SOL    HW1  329  -0.551   2.102   2.704
  110SOL    HW2  330  -0.481   1.963   2.648
  111SOL     OW  331   2.595   1.788   2.794
  111SOL    HW1  332   2.579   1.703   2.845
  111SOL    HW2  333   2.692   1.791   2.767
  112SOL     OW  334   4.243   2.427   1.100
  112SOL    HW1  335   4.223   2.518   1.139
  112SOL    HW2  336   4.227   2.357   1.170
  113SOL     OW  337   0.407   1.443   1.953
  113SOL    HW1  338   0.475   1.383   1.907
  113SOL    HW2  339   0.434   1.451   2.050
  114SOL     OW  340   0.410   2.196   1.455
  114SOL    HW1  341   0.414   2.283   1.405
  114SOL    HW2  342   0.462   2.127   1.404
  115SOL     OW  343  -0.404   2.390   3.002
  115SOL    HW1  344  -0.388   2.470   2.943
  115SOL    HW2  345  -0.317   2.341   3.014
  116SOL     OW  346   0.723   0.782   1.067
  116SOL    HW1  347   0.658   0.794   1.142
  116SOL    HW2  348   0.816   0.795   1.101
  117SOL     OW  349   0.796   0.880   1.529
  117SOL    HW1  350   0.736   0.901   1.609
  117SOL    HW2  351   0.803   0.780   1.520
  118SOL     OW  352   1.573   1.542   2.718
  118SOL    HW1  353   1.663   1.496   2.715
  118SOL    HW2  354   1.554   1.573   2.812
  119SOL     OW  355   0.214   1.232   1.498
  119SOL    HW1  356   0.271   1.315   1.495
  119SOL    HW2  357   0.236   1.182   1.582
  120SOL     OW  358   2.026   3.140   0.520
  120SOL    HW1  359   2.008   3.048   0.487
  120SOL    HW2  360   1.973   3.205   0.465
  121SOL     OW  361   3.561   2.283   2.842
  121SOL    HW1  362   3.477   2.311   2.892
  121SOL    HW2  363   3.639   2.336   2.878
  122SOL     OW  364   1.955   3.928   0.558
  122SOL    HW1  365   2.032   3.932   0.493
  122SOL    HW2  366   1.895   3.851   0.532
  123SOL     OW  367   1.625   1.684   0.514
  123SOL    HW1  368   1.558   1.686   0.589
  123SOL    HW2  369   1.591   1.625   0.441
  124SOL     OW  370   2.269   0.185   1.622
  124SOL    HW1  371   2.218   0.135   1.693
  124SOL    HW2  372   2.355   0.220   1.661
  125SOL     OW  373   4.139   3.372   1.104
  125SOL    HW1  374   4.094   3.290   1.139
  125SOL    HW2  375   4.176   3.353   1.013
  126SOL     OW  376   0.284   1.336   2.351
  126SOL    HW1  377   0.238   1.363   2.437
  126SOL    HW2  378   0.244   1.248   2.320
  127SOL     OW  379   2.870   4.583   1.675
  127SOL    HW1  380   2.965   4.551   1.689
  127SOL    HW2  381   2.874   4.676   1.635
  128SOL     OW  382   3.867   1.399  -0.062
  128SOL    HW1  383   3.803   1.469  -0.097
  128SOL    HW2  384   3.817   1.339   0.002
  129SOL     OW  385   0.270   0.513   4.724
  129SOL    HW1  386   0.294   0.611   4.736
  129SOL    HW2  387   0.228   0.480   4.809
  130SOL     OW  388   2.031  -0.239   3.084
  130SOL    HW1  389   2.034  -0.333   3.122
  130SOL    HW2  390   1.974  -0.238   3.001
  131SOL     OW  391  -0.429   1.274   2.976
  131SOL    HW1  392  -0.331   1.295   2.961
  131SOL    HW2  393  -0.441   1.243   3.071
  132SOL     OW  394   1.488   0.327   1.514
  132SOL    HW1  395   1.407   0.379   1.483
  132SOL    HW2  396   1.553   0.319   1.439
  133SOL     OW  397   3.844   0.569   0.076
  133SOL    HW1  398   3.777   0.494   0.076
  133SOL    HW2  399   3.833   0.623   0.161
  134SOL     OW  400   2.603   0.398   0.009
  134SOL    HW1  401   2.582   0.304   0.040
  134SOL    HW2  402   2.606   0.459   0.090
  135SOL     OW  403   0.603   0.524   2.458
  135SOL    HW1  404   0.563   0.560   2.373
  135SOL    HW2  405   0.529   0.507   2.524
  136SOL     OW  406   3.413   3.292  -0.015
  136SOL    HW1  407   3.507   3.295   0.021
  136SOL    HW2  408   3.389   3.382  -0.052
  137SOL     OW  409   0.859   3.310   3.349
  137SOL    HW1  410   0.906   3.395   3.324
  137SOL    HW2  411   0.791   3.331   3.421
  138SOL     OW  412   2.736   3.108  -0.005
  138SOL    HW1  413   2.791   3.191   0.007
  138SOL    HW2  414   2.664   3.105   0.066
  139SOL     OW  415  -0.077   0.344   4.502
  139SOL    HW1  416  -0.028   0.296   4.429
  139SOL    HW2  417  -0.091   0.282   4.579
  140SOL     OW  418   1.169  -0.077   2.607
  140SOL    HW1  419   1.110  -0.068   2.689
  140SOL    HW2  420   1.122  -0.132   2.538
  141SOL     OW  421   3.519   3.862   0.617
  141SOL    HW1  422   3.502   3.941   0.678
  141SOL    HW2  423   3.494   3.778   0.665
  142SOL     OW  424   1.429   1.299   0.618
  142SOL    HW1  425   1.381   1.357   0.551
  142SOL    HW2  426   1.414   1.203   0.595
  143SOL     OW  427   3.334   3.070   0.377
  143SOL    HW1  428   3.380   3.154   0.349
  143SOL    HW2  429   3.387   3.027   0.451
  144SOL     OW  430   2.703   2.390   2.516
  144SOL    HW1  431   2.761   2.444   2.454
  144SOL    HW2  432   2.626   2.353   2.464
  145SOL     OW  433   3.509   2.973   0.136
  145SOL    HW1  434   3.517   2.936   0.229
  145SOL    HW2  435   3.470   3.065   0.139
  146SOL     OW  436   1.161   1.993   4.234
  146SOL    HW1  437   1.095   1.917   4.229
  146SOL    HW2  438   1.154   2.035   4.325
  147SOL     OW  439   0.936   0.545   5.179
  147SOL    HW1  440   0.982   0.543   5.268
  147SOL    HW2  441   0.837   0.543   5.193
  148SOL     OW  442  -0.384   3.204   2.905
  148SOL    HW1  443  -0.384   3.112   2.945
  148SOL    HW2  444  -0.477   3.242   2.911
  149SOL     OW  445  -0.385   1.814   2.694
  149SOL    HW1  446  -0.405   1.803   2.792
  149SOL    HW2  447  -0.407   1.729   2.646
  150SOL     OW  448   0.867  -0.817   3.455
  150SOL    HW1  449   0.920  -0.863   3.527
  150SOL    HW2  450   0.920  -0.738   3.422
  151SOL     OW  451   0.218   1.856   1.324
  151SOL    HW1  452   0.309   1.894   1.344
  151SOL    HW2  453   0.169   1.919   1.262
  152SOL     OW  454   2.512   1.225  -0.046
  152SOL    HW1  455   2.471   1.217   0.045
  152SOL    HW2  456   2.525   1.134  -0.085
  153SOL     OW  457   2.587   0.323   3.744
  153SOL    HW1  458   2.583   0.389   3.669
  153SOL    HW2  459   2.679   0.323   3.783
  154SOL     OW  460   1.946   2.966  -0.045
  154SOL    HW1  461   1.986   3.006  -0.130
  154SOL    HW2  462   1.991   3.007   0.034
  155SOL     OW  463   2.920   0.387   3.315
  155SOL    HW1  464   2.938   0.429   3.225
  155SOL    HW2  465   2.998   0.402   3.375
  156SOL     OW  466   3.984   4.560   1.204
  156SOL    HW1  467   3.970   4.620   1.284
  156SOL    HW2  468   4.042   4.607   1.138
  157SOL     OW  469   1.829   3.541   0.252
  157SOL    HW1  470   1.886   3.595   0.188
  157SOL    HW2  471   1.733   3.546   0.222
  158SOL     OW  472   4.069   2.013   0.035
  158SOL    HW1  473   3.970   2.013   0.024
  158SOL    HW2  474   4.111   1.958  -0.038
  159SOL     OW  475  -0.568   2.204   2.843
  159SOL    HW1  476  -0.559   2.136   2.918
  159SOL    HW2  477  -0.530   2.291   2.875
  160SOL     OW  478   2.481   3.038   0.760
  160SOL    HW1  479   2.391   3.013   0.795
  160SOL    HW2  480   2.470   3.100   0.682
  161SOL     OW  481   2.705   3.316   2.351
  161SOL    HW1  482   2.658   3.358   2.429
  161SOL    HW2  483   2.639   3.302   2.277
  162SOL     OW  484   4.340   3.242   1.640
  162SOL    HW1  485   4.278   3.243   1.720
  162SOL    HW2  486   4.432   3.216   1.670
  163SOL     OW  487   1.973   3.704   0.068
  163SOL    HW1  488   2.003   3.792   0.106
  163SOL    HW2  489   1.925   3.722  -0.018
  164SOL     OW  490   0.664   3.333   3.562
  164SOL    HW1  491   0.693   3.322   3.658
  164SOL    HW2  492   0.614   3.419   3.554
  165SOL     OW  493   4.096   1.533  -0.056
  165SOL    HW1  494   4.006   1.488  -0.065
  165SOL    HW2  495   4.159   1.467  -0.013
  166SOL     OW  496  -0.132   2.285   1.542
  166SOL    HW1  497  -0.105   2.202   1.592
  166SOL    HW2  498  -0.220   2.267   1.495
  167SOL     OW  499   3.964   2.389  -0.150
  167SOL    HW1  500   3.898   2.329  -0.198
  167SOL    HW2  501   4.056   2.355  -0.168
  168SOL     OW  502  -0.567   2.354   3.592
  168SOL    HW1  503  -0.473   2.335   3.623
  168SOL    HW2  504  -0.630   2.329   3.666
  169SOL     OW  505   0.293   0.758   3.518
  169SOL    HW1  506   0.384   0.790   3.487
  169SOL    HW2  507   0.224   0.795   3.455
  170SOL     OW  508   4.334   1.230   0.273
  170SOL    HW1  509   4.305   1.158   0.338
  170SOL    HW2  510   4.408   1.284   0.316
  171SOL     OW  511   0.998  -0.046   2.831
  171SOL    HW1  512   0.995   0.008   2.916
  171SOL    HW2  513   0.904  -0.053   2.795
  172SOL     OW  514   3.616   2.774   3.200
  172SOL    HW1  515   3.697   2.747   3.145
  172SOL    HW2  516   3.574   2.691   3.237
  173SOL     OW  517  -0.527   2.564   3.416
  173SOL    HW1  518  -0.445   2.614   3.445
  173SOL    HW2  519  -0.551   2.497   3.487
  174SOL     OW  520   2.814   0.435  -0.157
  174SOL    HW1  521   2.727   0.423  -0.108
  174SOL    HW2  522   2.886   0.459  -0.092
  175SOL     OW  523   2.229   2.088   2.582
  175SOL    HW1  524   2.300   2.140   2.533
  175SOL    HW2  525   2.271   2.003   2.619
  176SOL     OW  526   1.904   0.754   0.032
  176SOL    HW1  527   1.961   0.672   0.041
  176SOL    HW2  528   1.875   0.762  -0.063
  177SOL     OW  529   3.995   1.561   2.220
  177SOL    HW1  530   3.916   1.608   2.179
  177SOL    HW2  531   4.067   1.551   2.151
  178SOL     OW  532   3.411   4.115   0.264
  178SOL    HW1  533   3.469   4.190   0.227
  178SOL    HW2  534   3.431   4.031   0.215
  179SOL     OW  535   4.379   1.848   1.190
  179SOL    HW1  536   4.397   1.834   1.092
  179SOL    HW2  537   4.385   1.760   1.238
  180SOL     OW  538   2.260   0.213   4.044
  180SOL    HW1  539   2.187   0.205   4.112
  180SOL    HW2  540   2.256   0.304   4.003
  181SOL     OW  541   2.224   0.147   2.279
  181SOL    HW1  542   2.250   0.058   2.241
  181SOL    HW2  543   2.147   0.135   2.342
  182SOL     OW  544   1.024   0.584   0.862
  182SOL    HW1  545   0.939   0.624   0.828
  182SOL    HW2  546   1.001   0.516   0.933
  183SOL     OW  547   4.267   2.873   2.041
  183SOL    HW1  548   4.193   2.811   2.069
  183SOL    HW2  549   4.228   2.962   2.017
  184SOL     OW  550   3.585   0.401   0.315
  184SOL    HW1  551   3.484   0.395   0.304
  184SOL    HW2  552   3.627   0.383   0.225
  185SOL     OW  553   2.358   1.859   2.679
  185SOL    HW1  554   2.287   1.803   2.723
  185SOL    HW2  555   2.448   1.837   2.722
  186SOL     OW  556   0.479   0.341   3.227
  186SOL    HW1  557   0.545   0.397   3.278
  186SOL    HW2  558   0.500   0.346   3.130
  187SOL     OW  559   0.041   2.820   1.786
  187SOL    HW1  560   0.107   2.770   1.844
  187SOL    HW2  561   0.077   2.912   1.769
  188SOL     OW  562   1.288   0.670   4.630
  188SOL    HW1  563   1.201   0.627   4.656
  188SOL    HW2  564   1.283   0.768   4.649
  189SOL     OW  565   1.256   1.949   0.856
  189SOL    HW1  566   1.197   2.018   0.899
  189SOL    HW2  567   1.330   1.925   0.920
  190SOL     OW  568   0.790   2.355   4.070
  190SOL    HW1  569   0.763   2.263   4.100
  190SOL    HW2  570   0.767   2.420   4.143
  191SOL     OW  571   0.407   0.504   3.534
  191SOL    HW1  572   0.484   0.513   3.470
  191SOL    HW2  573   0.348   0.585   3.526
  192SOL     OW  574   1.564   0.644   0.321
  192SOL    HW1  575   1.556   0.548   0.350
  192SOL    HW2  576   1.580   0.647   0.222
  193SOL     OW  577  -0.301   2.326   3.672
  193SOL    HW1  578  -0.259   2.372   3.593
  193SOL    HW2  579  -0.255   2.354   3.756
  194SOL     OW  580   2.060   3.334   1.617
  194SOL    HW1  581   2.051   3.324   1.517
  194SOL    HW2  582   1.972   3.314   1.660
  195SOL     OW  583   3.706   1.600  -0.149
  195SOL    HW1  584   3.612   1.593  -0.183
  195SOL    HW2  585   3.719   1.690  -0.106
  196SOL     OW  586   3.110   0.239   2.935
  196SOL    HW1  587   3.073   0.317   2.985
  196SOL    HW2  588   3.083   0.154   2.981
  197SOL     OW  589   0.589   0.313   2.175
  197SOL    HW1  590   0.516   0.292   2.241
  197SOL    HW2  591   0.648   0.233   2.164
  198SOL     OW  592   1.596  -0.672   2.993
  198SOL    HW1  593   1.565  -0.759   2.955
  198SOL    HW2  594   1.524  -0.634   3.052
  199SOL     OW  595   3.445   1.806  -0.099
  199SOL    HW1  596   3.529   1.835  -0.052
  199SOL    HW2  597   3.435   1.707  -0.088
  200SOL     OW  598   1.243   2.356   1.504
  200SOL    HW1  599   1.197   2.271   1.476
  200SOL    HW2  600   1.285   2.397   1.422
  201SOL     OW  601   3.577   0.184   0.504
  201SOL    HW1  602   3.588   0.258   0.436
  201SOL    HW2  603   3.540   0.103   0.458
  202SOL     OW  604   2.177  -0.330   0.332
  202SOL    HW1  605   2.157  -0.322   0.234
  202SOL    HW2  606   2.092  -0.318   0.384
  203SOL     OW  607   1.936   3.750   1.361
  203SOL    HW1  608   1.859   3.711   1.411
  203SOL    HW2  609   2.019   3.741   1.416
  204SOL     OW  610   2.940   3.501  -0.240
  204SOL    HW1  611   2.901   3.435  -0.305
  204SOL    HW2  612   3.036   3.516  -0.263
  205SOL     OW  613   3.040   1.976   2.715
  205SOL    HW1  614   3.098   1.921   2.777
  205SOL    HW2  615   3.012   2.059   2.763
  206SOL     OW  616   2.745   3.876   1.696
  206SOL    HW1  617   2.692   3.960   1.715
  206SOL    HW2  618   2.682   3.803   1.668
  207SOL     OW  619   3.313   0.374   0.275
  207SOL    HW1  620   3.249   0.436   0.228
  207SOL    HW2  621   3.293   0.377   0.374
  208SOL     OW  622   3.958   0.160   1.024
  208SOL    HW1  623   3.892   0.090   0.992
  208SOL    HW2  624   4.046   0.115   1.042
  209SOL     OW  625   2.536   3.458   3.184
  209SOL    HW1  626   2.500   3.436   3.275
  209SOL    HW2  627   2.536   3.557   3.172
  210SOL     OW  628   2.149   0.094   2.790
  210SOL    HW1  629   2.075   0.056   2.848
  210SOL    HW2  630   2.168   0.188   2.821
  211SOL     OW  631   1.507   2.735   3.052
  211SOL    HW1  632   1.557   2.821   3.060
  211SOL    HW2  633   1.467   2.729   2.960
  212SOL     OW  634   3.115   2.619   3.035
  212SOL    HW1  635   3.083   2.682   2.962
  212SOL    HW2  636   3.199   2.656   3.074
  213SOL     OW  637   0.983   2.934   2.547
  213SOL    HW1  638   0.982   2.920   2.447
  213SOL    HW2  639   1.010   3.029   2.566
  214SOL     OW  640   3.792   2.225  -0.278
  214SOL    HW1  641   3.747   2.250  -0.364
  214SOL    HW2  642   3.795   2.125  -0.270
  215SOL     OW  643   2.045   2.231   3.321
  215SOL    HW1  644   2.144   2.222   3.331
  215SOL    HW2  645   2.021   2.328   3.322
  216SOL     OW  646   4.126   4.130   0.271
  216SOL    HW1  647   4.202   4.071   0.242
  216SOL    HW2  648   4.131   4.217   0.223
  217SOL     OW  649   1.339   2.288   1.180
  217SOL    HW1  650   1.263   2.252   1.126
  217SOL    HW2  651   1.418   2.304   1.119
  218SOL     OW  652   3.001   1.991  -0.298
  218SOL    HW1  653   3.094   1.984  -0.258
  218SOL    HW2  654   2.934   1.994  -0.223
  219SOL     OW  655   3.806   1.958  -0.243
  219SOL    HW1  656   3.785   1.940  -0.146
  219SOL    HW2  657   3.877   1.894  -0.273
  220SOL     OW  658   4.160   4.033   0.981
  220SOL    HW1  659   4.251   4.059   0.949
  220SOL    HW2  660   4.125   4.107   1.040
  221SOL     OW  661  -0.657   1.699   3.552
  221SOL    HW1  662  -0.747   1.743   3.558
  221SOL    HW2  663  -0.626   1.674   3.644
  222SOL     OW  664   2.674   4.116   0.032
  222SOL    HW1  665   2.665   4.016   0.037
  222SOL    HW2  666   2.770   4.141   0.045
  223SOL     OW  667   1.645  -0.336   0.564
  223SOL    HW1  668   1.729  -0.281   0.564
  223SOL    HW2  669   1.619  -0.355   0.468
  224SOL     OW  670   0.366   3.366   2.833
  224SOL    HW1  671   0.373   3.391   2.736
  224SOL    HW2  672   0.341   3.447   2.886
  225SOL     OW  673   2.159   1.881   3.841
  225SOL    HW1  674   2.078   1.888   3.898
  225SOL    HW2  675   2.145   1.937   3.757
  226SOL     OW  676  -0.144   0.605   3.050
  226SOL    HW1  677  -0.050   0.598   3.015
  226SOL    HW2  678  -0.157   0.695   3.092
  227SOL     OW  679   1.295   0.201   0.831
  227SOL    HW1  680   1.329   0.121   0.780
  227SOL    HW2  681   1.323   0.284   0.781
  228SOL     OW  682   2.365  -0.021   0.959
  228SOL    HW1  683   2.376   0.020   0.868
  228SOL    HW2  684   2.435   0.018   1.020
  229SOL     OW  685   1.459   0.266   2.090
  229SOL    HW1  686   1.501   0.351   2.123
  229SOL    HW2  687   1.412   0.284   2.002
  230SOL     OW  688   0.085  -0.128   4.450
  230SOL    HW1  689   0.005  -0.073   4.424
  230SOL    HW2  690   0.113  -0.104   4.543
  231SOL     OW  691   1.769   2.590   0.387
  231SOL    HW1  692   1.846   2.650   0.365
  231SOL    HW2  693   1.686   2.627   0.344
  232SOL     OW  694   1.078   0.428   2.288
  232SOL    HW1  695   1.176   0.455   2.285
  232SOL    HW2  696   1.059   0.387   2.377
  233SOL     OW  697   3.566   3.030   3.098
  233SOL    HW1  698   3.583   2.937   3.134
  233SOL    HW2  699   3.500   3.025   3.023
  234SOL     OW  700   0.320   0.788   4.756
  234SOL    HW1  701   0.406   0.839   4.758
  234SOL    HW2  702   0.252   0.838   4.809
  235SOL     OW  703  -0.022   1.600   1.145
  235SOL    HW1  704  -0.051   1.508   1.114
  235SOL    HW2  705  -0.031   1.665   1.069
  236SOL     OW  706   4.596   1.280   1.864
  236SOL    HW1  707   4.594   1.343   1.786
  236SOL    HW2  708   4.505   1.241   1.875
  237SOL     OW  709   3.187   2.160   0.024
  237SOL    HW1  710   3.212   2.154   0.121
  237SOL    HW2  711   3.094   2.199   0.017
  238SOL     OW  712   0.256   0.209   3.609
  238SOL    HW1  713   0.276   0.306   3.589
  238SOL    HW2  714   0.215   0.167   3.529
  239SOL     OW  715  -0.223   3.453   2.597
  239SOL    HW1  716  -0.152   3.524   2.583
  239SOL    HW2  717  -0.179   3.363   2.601
  240SOL     OW  718   0.740   1.398   1.009
  240SOL    HW1  719   0.758   1.306   1.045
  240SOL    HW2  720   0.825   1.452   1.012
  241SOL     OW  721   2.561   0.140   0.105
  241SOL    HW1  722   2.624   0.099   0.172
  241SOL    HW2  723   2.482   0.080   0.094
  242SOL     OW  724   1.694   1.746   4.025
  242SOL    HW1  725   1.616   1.708   3.974
  242SOL    HW2  726   1.685   1.847   4.025
  244SOL     OW  730   1.644  -0.099   1.304
  244SOL    HW1  731   1.705  -0.176   1.326
  244SOL    HW2  732   1.661  -0.071   1.208
  245SOL     OW  733   4.210   3.839   1.242
  245SOL    HW1  734   4.159   3.765   1.196
  245SOL    HW2  735   4.304   3.809   1.260
  246SOL     OW  736  -0.648   1.593   3.905
  246SOL    HW1  737  -0.677   1.498   3.886
  246SOL    HW2  738  -0.727   1.645   3.939
  247SOL     OW  739   3.897   4.626   0.806
  247SOL    HW1  740   3.893   4.530   0.837
  247SOL    HW2  741   3.844   4.683   0.870
  248SOL     OW  742  -0.006   0.919   3.813
  248SOL    HW1  743  -0.072   0.990   3.841
  248SOL    HW2  744  -0.044   0.868   3.735
  249SOL     OW  745   2.790   3.802   2.006
  249SOL    HW1  746   2.886   3.775   2.004
  249SOL    HW2  747   2.733   3.720   2.022
  250SOL     OW  748   2.304  -0.191   3.078
  250SOL    HW1  749   2.204  -0.203   3.084
  250SOL    HW2  750   2.328  -0.174   2.982
  251SOL     OW  751   2.737  -0.267   1.793
  251SOL    HW1  752   2.802  -0.209   1.842
  251SOL    HW2  753   2.648  -0.262   1.839
  252SOL     OW  754   0.234  -0.213   4.793
  252SOL    HW1  755   0.218  -0.312   4.778
  252SOL    HW2  756   0.297  -0.202   4.871
  253SOL     OW  757   3.320   2.370   2.951
  253SOL    HW1  758   3.262   2.451   2.967
  253SOL    HW2  759   3.276   2.290   2.994
  254SOL     OW  760   1.809   3.709   0.485
  254SOL    HW1  761   1.815   3.652   0.402
  254SOL    HW2  762   1.789   3.649   0.563
  256SOL     OW  766   4.398   3.526   1.621
  256SOL    HW1  767   4.365   3.540   1.715
  256SOL    HW2  768   4.388   3.429   1.598
  257SOL     OW  769   4.073   3.639   1.111
  257SOL    HW1  770   4.087   3.679   1.019
  257SOL    HW2  771   4.098   3.542   1.110
  258SOL     OW  772   0.710  -0.288   3.058
  258SOL    HW1  773   0.625  -0.333   3.029
  258SOL    HW2  774   0.775  -0.357   3.090
  259SOL     OW  775   0.160   1.100   2.263
  259SOL    HW1  776   0.073   1.143   2.232
  259SOL    HW2  777   0.202   1.054   2.185
  260SOL     OW  778   0.950   0.411   1.068
  260SOL    HW1  779   0.969   0.459   1.154
  260SOL    HW2  780   0.987   0.318   1.075
  261SOL     OW  781   3.648   2.668  -0.215
  261SOL    HW1  782   3.595   2.752  -0.225
  261SOL    HW2  783   3.697   2.671  -0.128
  262SOL     OW  784   2.441  -0.212   0.455
  262SOL    HW1  785   2.361  -0.262   0.420
  262SOL    HW2  786   2.427  -0.114   0.439
  263SOL     OW  787   2.641   3.582   2.038
  263SOL    HW1  788   2.683   3.495   2.008
  263SOL    HW2  789   2.541   3.576   2.026
  264SOL     OW  790   3.659   2.028   2.797
  264SOL    HW1  791   3.619   2.120   2.808
  264SOL    HW2  792   3.758   2.037   2.787
  265SOL     OW  793   0.520   2.686   1.696
  265SOL    HW1  794   0.500   2.666   1.600
  265SOL    HW2  795   0.515   2.601   1.749
  266SOL     OW  796   0.087   0.875   4.110
  266SOL    HW1  797   0.040   0.886   4.022
  266SOL    HW2  798   0.176   0.921   4.104
  267SOL     OW  799   1.898   3.268   0.320
  267SOL    HW1  800   1.871   3.361   0.289
  267SOL    HW2  801   1.933   3.216   0.242
  268SOL     OW  802   2.647  -0.302   0.823
  268SOL    HW1  803   2.691  -0.247   0.751
  268SOL    HW2  804   2.631  -0.244   0.903
  269SOL     OW  805  -0.017   3.659   2.560
  269SOL    HW1  806   0.001   3.755   2.586
  269SOL    HW2  807   0.061   3.625   2.507
  270SOL     OW  808   2.795   3.072  -0.477
  270SOL    HW1  809   2.742   3.142  -0.429
  270SOL    HW2  810   2.823   3.107  -0.567
  271SOL     OW  811   1.733   3.582   0.978
  271SOL    HW1  812   1.790   3.664   0.990
  271SOL    HW2  813   1.702   3.577   0.883
  272SOL     OW  814   0.966   0.390   1.611
  272SOL    HW1  815   1.054   0.429   1.640
  272SOL    HW2  816   0.964   0.293   1.637
  273SOL     OW  817   4.436   3.571   0.354
  273SOL    HW1  818   4.352   3.627   0.348
  273SOL    HW2  819   4.463   3.564   0.450
  274SOL     OW  820   2.543   3.813   3.018
  274SOL    HW1  821   2.486   3.762   2.953
  274SOL    HW2  822   2.641   3.798   2.994
  275SOL     OW  823   3.126   5.045   0.861
  275SOL    HW1  824   3.100   4.955   0.899
  275SOL    HW2  825   3.127   5.039   0.761
  276SOL     OW  826   4.059   4.295   1.052
  276SOL    HW1  827   4.047   4.369   1.118
  276SOL    HW2  828   3.991   4.306   0.978
  278SOL     OW  832   1.334   0.234   1.818
  278SOL    HW1  833   1.351   0.135   1.815
  278SOL    HW2  834   1.367   0.274   1.732
  279SOL     OW  835   1.788   0.071   2.358
  279SOL    HW1  836   1.754   0.107   2.445
  279SOL    HW2  837   1.726  -0.002   2.327
  280SOL     OW  838   3.389   0.350  -0.020
  280SOL    HW1  839   3.347   0.336   0.070
  280SOL    HW2  840   3.321   0.391  -0.081
  281SOL     OW  841   4.325   3.932   0.210
  281SOL    HW1  842   4.293   3.849   0.257
  281SOL    HW2  843   4.385   3.905   0.134
  282SOL     OW  844   3.180   1.806   2.865
  282SOL    HW1  845   3.274   1.770   2.871
  282SOL    HW2  846   3.124   1.760   2.935
  283SOL     OW  847   0.961   2.885   2.268
  283SOL    HW1  848   0.936   2.791   2.241
  283SOL    HW2  849   0.939   2.947   2.192
  284SOL     OW  850   0.534   3.296   2.323
  284SOL    HW1  851   0.456   3.336   2.372
  284SOL    HW2  852   0.563   3.359   2.251
  285SOL     OW  853  -0.716   1.338   3.864
  285SOL    HW1  854  -0.663   1.253   3.858
  285SOL    HW2  855  -0.814   1.315   3.862
  286SOL     OW  856   1.859  -0.240   1.426
  286SOL    HW1  857   1.829  -0.165   1.486
  286SOL    HW2  858   1.942  -0.281   1.464
  287SOL     OW  859   0.007   2.939   3.926
  287SOL    HW1  860  -0.036   2.849   3.928
  287SOL    HW2  861   0.059   2.952   4.011
  288SOL     OW  862   2.134   0.078   1.878
  288SOL    HW1  863   2.174   0.005   1.934
  288SOL    HW2  864   2.127   0.162   1.934
  289SOL     OW  865   1.281  -0.013  -0.142
  289SOL    HW1  866   1.351  -0.072  -0.182
  289SOL    HW2  867   1.299  -0.002  -0.044
  290SOL     OW  868   1.409  -0.030   1.779
  290SOL    HW1  869   1.508  -0.037   1.793
  290SOL    HW2  870   1.382  -0.096   1.709
  291SOL     OW  871   3.315   1.614  -0.402
  291SOL    HW1  872   3.362   1.585  -0.318
  291SOL    HW2  873   3.379   1.609  -0.478
  292SOL     OW  874   1.076  -0.099   2.308
  292SOL    HW1  875   0.980  -0.085   2.284
  292SOL    HW2  876   1.111  -0.178   2.259
  293SOL     OW  877   2.112   2.027   3.611
  293SOL    HW1  878   2.117   2.123   3.583
  293SOL    HW2  879   2.101   1.970   3.529
  294SOL     OW  880   1.790  -0.159   0.129
  294SOL    HW1  881   1.817  -0.138   0.223
  294SOL    HW2  882   1.693  -0.139   0.118
  295SOL     OW  883  -0.233   1.134   1.149
  295SOL    HW1  884  -0.285   1.125   1.235
  295SOL    HW2  885  -0.246   1.050   1.095
  296SOL     OW  886   3.169   1.454   2.908
  296SOL    HW1  887   3.105   1.376   2.907
  296SOL    HW2  888   3.159   1.502   2.996
  297SOL     OW  889   2.314  -0.144   2.807
  297SOL    HW1  890   2.265  -0.056   2.802
  297SOL    HW2  891   2.324  -0.180   2.714
  298SOL     OW  892   1.342   0.503   2.286
  298SOL    HW1  893   1.436   0.495   2.319
  298SOL    HW2  894   1.341   0.564   2.205
  299SOL     OW  895   0.569   1.532   4.534
  299SOL    HW1  896   0.472   1.511   4.552
  299SOL    HW2  897   0.626   1.465   4.581
  300SOL     OW  898   1.994   4.411   1.239
  300SOL    HW1  899   1.946   4.366   1.163
  300SOL    HW2  900   1.930   4.421   1.316
  301SOL     OW  901   3.662   0.365   0.054
  301SOL    HW1  902   3.707   0.290   0.006
  301SOL    HW2  903   3.567   0.372   0.020
  302SOL     OW  904   2.393   1.365   4.599
  302SOL    HW1  905   2.313   1.329   4.648
  302SOL    HW2  906   2.376   1.359   4.501
  303SOL     OW  907   1.573   3.579   0.159
  303SOL    HW1  908   1.572   3.632   0.072
  303SOL    HW2  909   1.499   3.612   0.217
  304SOL     OW  910   3.444   2.668   0.263
  304SOL    HW1  911   3.519   2.635   0.319
  304SOL    HW2  912   3.417   2.596   0.198
  305SOL     OW  913  -0.677   2.947   3.329
  305SOL    HW1  914  -0.627   2.928   3.244
  305SOL    HW2  915  -0.769   2.909   3.322
  306SOL     OW  916   4.403   3.145   1.367
  306SOL    HW1  917   4.443   3.233   1.340
  306SOL    HW2  918   4.366   3.154   1.461
  307SOL     OW  919   1.579  -0.378   0.295
  307SOL    HW1  920   1.547  -0.299   0.242
  307SOL    HW2  921   1.607  -0.450   0.231
  308SOL     OW  922   4.496   2.931   0.409
  308SOL    HW1  923   4.471   2.870   0.485
  308SOL    HW2  924   4.412   2.968   0.367
  309SOL     OW  925   3.011   1.667   3.058
  309SOL    HW1  926   3.025   1.661   3.157
  309SOL    HW2  927   2.913   1.656   3.039
  310SOL     OW  928   0.017   2.465   1.396
  310SOL    HW1  929  -0.046   2.405   1.447
  310SOL    HW2  930   0.086   2.408   1.351
  311SOL     OW  931  -0.709   2.244   3.374
  311SOL    HW1  932  -0.683   2.300   3.295
  311SOL    HW2  933  -0.653   2.272   3.453
  312SOL     OW  934   1.529   2.389   0.972
  312SOL    HW1  935   1.482   2.477   0.961
  312SOL    HW2  936   1.502   2.328   0.897
  313SOL     OW  937   1.042   1.734   4.566
  313SOL    HW1  938   0.967   1.721   4.501
  313SOL    HW2  939   1.006   1.774   4.650
  314SOL     OW  940   0.391   0.244   2.353
  314SOL    HW1  941   0.420   0.211   2.443
  314SOL    HW2  942   0.292   0.261   2.355
  315SOL     OW  943   2.747   2.100   2.957
  315SOL    HW1  944   2.764   2.098   3.056
  315SOL    HW2  945   2.776   2.189   2.921
  316SOL     OW  946   2.558   0.559   4.542
  316SOL    HW1  947   2.551   0.632   4.609
  316SOL    HW2  948   2.618   0.487   4.579
  317SOL     OW  949   0.281   1.504   4.531
  317SOL    HW1  950   0.232   1.457   4.605
  317SOL    HW2  951   0.232   1.589   4.509
  318SOL     OW  952   2.897   2.506   3.159
  318SOL    HW1  953   2.980   2.543   3.115
  318SOL    HW2  954   2.824   2.575   3.155
  319SOL     OW  955  -0.151   2.409   4.029
  319SOL    HW1  956  -0.136   2.494   3.978
  319SOL    HW2  957  -0.197   2.431   4.115
  320SOL     OW  958   4.115   3.772   0.882
  320SOL    HW1  959   4.084   3.784   0.787
  320SOL    HW2  960   4.130   3.862   0.925
  321SOL     OW  961   3.833   3.345   2.981
  321SOL    HW1  962   3.770   3.352   3.058
  321SOL    HW2  963   3.792   3.392   2.901
  322SOL     OW  964   2.737   1.393  -0.073
  322SOL    HW1  965   2.653   1.338  -0.058
  322SOL    HW2  966   2.751   1.405  -0.171
  323SOL     OW  967   2.930   0.851  -0.416
  323SOL    HW1  968   2.839   0.829  -0.453
  323SOL    HW2  969   3.000   0.807  -0.472
  324SOL     OW  970  -0.372   2.279   4.429
  324SOL    HW1  971  -0.307   2.202   4.423
  324SOL    HW2  972  -0.465   2.243   4.430
  325SOL     OW  973   3.237   1.968  -0.165
  325SOL    HW1  974   3.231   2.043  -0.097
  325SOL    HW2  975   3.321   1.914  -0.147
  326SOL     OW  976   0.222   3.036   1.520
  326SOL    HW1  977   0.127   3.011   1.500
  326SOL    HW2  978   0.274   3.036   1.435
  327SOL     OW  979   0.124   3.314   1.840
  327SOL    HW1  980   0.162   3.256   1.913
  327SOL    HW2  981   0.057   3.376   1.880
  328SOL     OW  982   0.758   3.291   3.831
  328SOL    HW1  983   0.761   3.201   3.876
  328SOL    HW2  984   0.794   3.360   3.895
  329SOL     OW  985   0.061   2.013   1.156
  329SOL    HW1  986  -0.020   1.954   1.155
  329SOL    HW2  987   0.031   2.109   1.163
  330SOL     OW  988   4.399   3.799   1.492
  330SOL    HW1  989   4.497   3.819   1.482
  330SOL    HW2  990   4.389   3.706   1.530
  331SOL     OW  991   0.952   0.107   3.061
  331SOL    HW1  992   0.873   0.058   3.100
  331SOL    HW2  993   0.932   0.206   3.062
  334SOL     OW 1000   0.749   1.342   4.668
  334SOL    HW1 1001   0.714   1.252   4.695
  334SOL    HW2 1002   0.795   1.384   4.747
  335SOL     OW 1003   1.761   1.591   4.381
  335SOL    HW1 1004   1.773   1.598   4.281
  335SOL    HW2 1005   1.832   1.648   4.425
  336SOL     OW 1006   1.350   2.196   3.581
  336SOL    HW1 1007   1.337   2.224   3.677
  336SOL    HW2 1008   1.423   2.128   3.577
  337SOL     OW 1009   0.862   0.622   1.506
  337SOL    HW1 1010   0.780   0.568   1.484
  337SOL    HW2 1011   0.917   0.570   1.572
  338SOL     OW 1012  -0.049   1.815   2.549
  338SOL    HW1 1013  -0.029   1.716   2.548
  338SOL    HW2 1014  -0.145   1.828   2.577
  339SOL     OW 1015   2.951   2.358   2.150
  339SOL    HW1 1016   2.929   2.403   2.237
  339SOL    HW2 1017   2.867   2.316   2.113
  340SOL     OW 1018   2.633   0.560   0.232
  340SOL    HW1 1019   2.558   0.605   0.283
  340SOL    HW2 1020   2.707   0.626   0.218
  341SOL     OW 1021   4.263   1.971   2.169
  341SOL    HW1 1022   4.184   2.009   2.218
  341SOL    HW2 1023   4.344   1.982   2.227
  342SOL     OW 1024   4.322   2.158   1.797
  342SOL    HW1 1025   4.372   2.088   1.746
  342SOL    HW2 1026   4.223   2.146   1.781
  343SOL     OW 1027  -0.131   2.179   2.028
  343SOL    HW1 1028  -0.171   2.183   1.935
  343SOL    HW2 1029  -0.194   2.130   2.088
     6.268     6.268     6.268
