; ITP file created by ByteFF-ML, 2025-12-06 07:51:13.637262

[ atomtypes ]
;name           bonded.type        at.num        mass        charge   ptype           sigma         epsilon
 c0bf                                   6      0.0000       0.00000       A     3.31120e-01     4.14124e-01
 c1bf                                   6      0.0000       0.00000       A     3.31333e-01     4.13087e-01
 c2bf                                   6      0.0000       0.00000       A     3.31525e-01     4.10000e-01
 c3bf                                   6      0.0000       0.00000       A     3.31438e-01     4.14290e-01
 c4bf                                   6      0.0000       0.00000       A     3.31622e-01     4.12838e-01
 c5bf                                   6      0.0000       0.00000       A     3.31441e-01     4.15640e-01
 c6bf                                   6      0.0000       0.00000       A     3.31310e-01     4.10172e-01
 n7bf                                   7      0.0000       0.00000       A     3.35892e-01     3.57593e-01
 c8bf                                   6      0.0000       0.00000       A     3.31300e-01     4.13878e-01
 o9bf                                   8      0.0000       0.00000       A     3.04789e-01     6.12970e-01
 n10bf                                  7      0.0000       0.00000       A     3.38364e-01     3.93072e-01
 s11bf                                 16      0.0000       0.00000       A     3.53527e-01     1.17886e+00
 o12bf                                  8      0.0000       0.00000       A     3.15922e-01     3.07350e-01
 c13bf                                  6      0.0000       0.00000       A     3.31520e-01     4.13050e-01
 c14bf                                  6      0.0000       0.00000       A     3.31506e-01     4.13157e-01
 c15bf                                  6      0.0000       0.00000       A     3.31466e-01     4.12724e-01
 c16bf                                  6      0.0000       0.00000       A     3.31470e-01     4.13128e-01
 c17bf                                  6      0.0000       0.00000       A     3.31466e-01     4.12724e-01
 c18bf                                  6      0.0000       0.00000       A     3.31505e-01     4.13157e-01
 cl19bf                                17      0.0000       0.00000       A     3.46712e-01     1.10479e+00
 h20bf                                  1      0.0000       0.00000       A     2.62855e-01     6.65242e-02
 h21bf                                  1      0.0000       0.00000       A     2.53541e-01     6.74259e-02
 h22bf                                  1      0.0000       0.00000       A     2.53502e-01     6.70126e-02
 h23bf                                  1      0.0000       0.00000       A     2.62480e-01     6.70381e-02
 h24bf                                  1      0.0000       0.00000       A     2.62516e-01     6.71482e-02
 h25bf                                  1      0.0000       0.00000       A     2.62516e-01     6.71482e-02
 h26bf                                  1      0.0000       0.00000       A     2.62480e-01     6.70381e-02
 h27bf                                  1      0.0000       0.00000       A     1.10331e-01     4.12185e-02
 h28bf                                  1      0.0000       0.00000       A     1.10331e-01     4.12185e-02

[ moleculetype ]
;name             nrexcl
 13                    3

[ atoms ]
;       nr            type      resi   res      atom      cgnr      charge          mass ; qtot
         1            c0bf         1   UNL        c0         1    -0.13250       12.0110 ; qtot   -0.133
         2            c1bf         1   UNL        c1         2    -0.09155       12.0110 ; qtot   -0.224
         3            c2bf         1   UNL        c2         3     0.36633       12.0110 ; qtot    0.142
         4            c3bf         1   UNL        c3         4    -0.07260       12.0110 ; qtot    0.070
         5            c4bf         1   UNL        c4         5     0.10663       12.0110 ; qtot    0.176
         6            c5bf         1   UNL        c5         6     0.29008       12.0110 ; qtot    0.466
         7            c6bf         1   UNL        c6         7    -0.19295       12.0110 ; qtot    0.273
         8            n7bf         1   UNL        n7         8    -0.58205       14.0070 ; qtot   -0.309
         9            c8bf         1   UNL        c8         9     0.62717       12.0110 ; qtot    0.319
        10            o9bf         1   UNL        o9        10    -0.58315       15.9990 ; qtot   -0.265
        11           n10bf         1   UNL       n10        11    -0.63032       14.0070 ; qtot   -0.895
        12           s11bf         1   UNL       s11        12     0.12138       32.0670 ; qtot   -0.774
        13           o12bf         1   UNL       o12        13    -0.24220       15.9990 ; qtot   -1.016
        14           c13bf         1   UNL       c13        14     0.11228       12.0110 ; qtot   -0.903
        15           c14bf         1   UNL       c14        15    -0.13022       12.0110 ; qtot   -1.034
        16           c15bf         1   UNL       c15        16    -0.08023       12.0110 ; qtot   -1.114
        17           c16bf         1   UNL       c16        17     0.10524       12.0110 ; qtot   -1.009
        18           c17bf         1   UNL       c17        18    -0.08023       12.0110 ; qtot   -1.089
        19           c18bf         1   UNL       c18        19    -0.13022       12.0110 ; qtot   -1.219
        20          cl19bf         1   UNL      cl19        20    -0.21044       35.4530 ; qtot   -1.430
        21           h20bf         1   UNL       h20        21     0.21379        1.0080 ; qtot   -1.216
        22           h21bf         1   UNL       h21        22     0.02973        1.0080 ; qtot   -1.186
        23           h22bf         1   UNL       h22        23     0.03579        1.0080 ; qtot   -1.150
        24           h23bf         1   UNL       h23        24     0.13537        1.0080 ; qtot   -1.015
        25           h24bf         1   UNL       h24        25     0.13654        1.0080 ; qtot   -0.878
        26           h25bf         1   UNL       h25        26     0.13654        1.0080 ; qtot   -0.742
        27           h26bf         1   UNL       h26        27     0.13537        1.0080 ; qtot   -0.606
        28           h27bf         1   UNL       h27        28     0.30322        1.0080 ; qtot   -0.303
        29           h28bf         1   UNL       h28        29     0.30320        1.0080 ; qtot    0.000

[ bonds ]
;       ai        aj funct               r               k
         1         2     1        0.136899   385341.241504
         1         9     1        0.148750   189924.755835
         1        12     1        0.175845   141193.056128
         2         4     1        0.143064   255831.400146
         2        21     1        0.108359   330374.350098
         3         7     1        0.140311   288300.302490
         3        11     1        0.133233   334049.369971
         3        22     1        0.108847   314136.349268
         4         5     1        0.141044   277237.320264
         4         7     1        0.141571   258362.255371
         5         6     1        0.139269   298045.697559
         5        13     1        0.137783   248400.535449
         6        11     1        0.134797   300411.072314
         6        23     1        0.108641   319784.519434
         7        12     1        0.174939   154917.171143
         8         9     1        0.137844   293288.236230
         8        28     1        0.101270   422968.078125
         8        29     1        0.101270   422968.078125
         9        10     1        0.122954   608532.359766
        13        14     1        0.138588   236585.178906
        14        15     1        0.139759   296218.925977
        14        19     1        0.139759   296218.951514
        15        16     1        0.139665   318077.797803
        15        24     1        0.108472   324415.469922
        16        17     1        0.139679   300422.793848
        16        25     1        0.108460   325418.414355
        17        18     1        0.139679   300422.793848
        17        20     1        0.175851   148359.764966
        18        19     1        0.139665   318077.797803
        18        26     1        0.108460   325418.414355
        19        27     1        0.108472   324415.469922

[ angles ]
;       ai        aj        ak funct           theta             cth
         1         2         4     1      112.709351      397.078397
         1         2        21     1      123.069107      389.451452
         1         9         8     1      115.946426      508.060089
         1         9        10     1      121.175842      524.800015
         1        12         7     1       90.391823      452.383413
         2         1         9     1      127.006897      431.210531
         2         1        12     1      112.933945      167.360000
         2         4         5     1      130.164230      398.927348
         2         4         7     1      112.188766      479.848350
         3         7         4     1      120.408531      716.641963
         3         7        12     1      127.893639      370.418772
         3        11         6     1      118.900452      558.108929
         4         2        21     1      124.320724      385.689772
         4         5         6     1      118.637917      678.036812
         4         5        13     1      118.276077      442.150214
         4         7        12     1      111.571213      167.360000
         5         4         7     1      116.980637      712.224298
         5         6        11     1      123.409790      692.540741
         5         6        23     1      119.877098      410.591837
         5        13        14     1      118.500870      426.571556
         6         5        13     1      122.139931      548.863857
         7         3        11     1      121.491249      725.054972
         7         3        22     1      121.222519      411.500033
         8         9        10     1      122.245689      671.068374
         9         1        12     1      120.293968      499.875701
         9         8        28     1      117.364426      451.037766
         9         8        29     1      117.364426      451.037766
        11         3        22     1      117.010254      375.144223
        11         6        23     1      116.623924      348.863217
        13        14        15     1      119.667435      520.914735
        13        14        19     1      119.667435      520.914735
        14        15        16     1      119.723709      708.320951
        14        15        24     1      119.867592      419.809904
        14        19        18     1      119.723709      708.320951
        14        19        27     1      119.867592      419.809904
        15        14        19     1      120.509987      613.874506
        15        16        17     1      119.487167      640.596410
        15        16        25     1      120.379723      412.832559
        16        15        24     1      120.528175      418.035234
        16        17        18     1      120.869644      623.226195
        16        17        20     1      119.533920      384.415374
        17        16        25     1      120.189987      407.550719
        17        18        19     1      119.487167      640.596473
        17        18        26     1      120.189987      407.550719
        18        17        20     1      119.533920      384.415374
        18        19        27     1      120.528175      418.035234
        19        18        26     1      120.379723      412.832559
        28         8        29     1      115.936317      333.679746

[ dihedrals ] ; propers for gromacs 4.5 or higher, use funct 9
;       ai        aj        ak        al funct           phase               k        pn
         1         2         4         5     9        0.000000       -0.278581         1
         1         2         4         5     9      180.000000        6.302430         2
         1         2         4         5     9        0.000000       -1.057985         3
         1         2         4         5     9      180.000000        0.204133         4
         1         2         4         7     9        0.000000        0.236616         1
         1         2         4         7     9      180.000000       20.716569         2
         1         2         4         7     9        0.000000       -5.663697         3
         1         2         4         7     9      180.000000       -0.037565         4
         1         9         8        28     9        0.000000       -0.683909         1
         1         9         8        28     9      180.000000       10.096931         2
         1         9         8        28     9        0.000000        0.612024         3
         1         9         8        28     9      180.000000       -0.969152         4
         1         9         8        29     9        0.000000       -0.683909         1
         1         9         8        29     9      180.000000       10.096931         2
         1         9         8        29     9        0.000000        0.612024         3
         1         9         8        29     9      180.000000       -0.969152         4
         1        12         7         3     9        0.000000        0.029047         1
         1        12         7         3     9      180.000000        4.677777         2
         1        12         7         3     9        0.000000       -0.197981         3
         1        12         7         3     9      180.000000        0.231244         4
         1        12         7         4     9        0.000000       -0.575330         1
         1        12         7         4     9      180.000000       23.104813         2
         1        12         7         4     9        0.000000       -5.520757         3
         1        12         7         4     9      180.000000        0.282254         4
         2         1         9         8     9        0.000000        0.139997         1
         2         1         9         8     9      180.000000        2.346498         2
         2         1         9         8     9        0.000000        0.207053         3
         2         1         9         8     9      180.000000       -0.291650         4
         2         1         9        10     9        0.000000        0.724168         1
         2         1         9        10     9      180.000000        2.563762         2
         2         1         9        10     9        0.000000        0.122656         3
         2         1         9        10     9      180.000000        0.136969         4
         2         1        12         7     9        0.000000        0.366681         1
         2         1        12         7     9      180.000000       22.839708         2
         2         1        12         7     9        0.000000       -5.752619         3
         2         1        12         7     9      180.000000       -0.032996         4
         2         4         5         6     9        0.000000        0.130785         1
         2         4         5         6     9      180.000000       10.302793         2
         2         4         5         6     9        0.000000       -0.285516         3
         2         4         5         6     9      180.000000       -0.023644         4
         2         4         5        13     9        0.000000        0.380676         1
         2         4         5        13     9      180.000000       13.303323         2
         2         4         5        13     9        0.000000        0.598830         3
         2         4         5        13     9      180.000000       -0.151522         4
         2         4         7         3     9        0.000000        0.150316         1
         2         4         7         3     9      180.000000       10.915314         2
         2         4         7         3     9        0.000000       -1.750942         3
         2         4         7         3     9      180.000000        0.104908         4
         2         4         7        12     9        0.000000        0.220284         1
         2         4         7        12     9      180.000000       15.189922         2
         2         4         7        12     9        0.000000       -3.209106         3
         2         4         7        12     9      180.000000       -0.342056         4
         3         7         4         5     9        0.000000       -0.205416         1
         3         7         4         5     9      180.000000       11.318989         2
         3         7         4         5     9        0.000000       -1.963037         3
         3         7         4         5     9      180.000000       -0.013028         4
         3        11         6         5     9        0.000000        0.091035         1
         3        11         6         5     9      180.000000       20.836021         2
         3        11         6         5     9        0.000000       -1.014134         3
         3        11         6         5     9      180.000000       -0.038062         4
         3        11         6        23     9        0.000000        0.845561         1
         3        11         6        23     9      180.000000       19.627545         2
         3        11         6        23     9        0.000000        0.146424         3
         3        11         6        23     9      180.000000       -0.265320         4
         4         2         1         9     9        0.000000        0.235709         1
         4         2         1         9     9      180.000000       18.652211         2
         4         2         1         9     9        0.000000       -0.478822         3
         4         2         1         9     9      180.000000       -1.058959         4
         4         2         1        12     9        0.000000       -0.577136         1
         4         2         1        12     9      180.000000       29.028180         2
         4         2         1        12     9        0.000000       -4.452981         3
         4         2         1        12     9      180.000000       -0.969889         4
         4         5         6        11     9        0.000000        0.014397         1
         4         5         6        11     9      180.000000       18.100109         2
         4         5         6        11     9        0.000000       -0.793754         3
         4         5         6        11     9      180.000000       -0.632883         4
         4         5         6        23     9        0.000000        0.272148         1
         4         5         6        23     9      180.000000       13.822306         2
         4         5         6        23     9        0.000000       -0.214016         3
         4         5         6        23     9      180.000000        0.008312         4
         4         5        13        14     9        0.000000        0.544218         1
         4         5        13        14     9      180.000000        3.839295         2
         4         5        13        14     9        0.000000        0.293761         3
         4         5        13        14     9      180.000000        0.185016         4
         4         7         3        11     9        0.000000        0.026331         1
         4         7         3        11     9      180.000000       16.873853         2
         4         7         3        11     9        0.000000       -0.949134         3
         4         7         3        11     9      180.000000       -0.350336         4
         4         7         3        22     9        0.000000        0.417030         1
         4         7         3        22     9      180.000000       13.019124         2
         4         7         3        22     9        0.000000       -0.192134         3
         4         7         3        22     9      180.000000       -0.028193         4
         5         4         2        21     9        0.000000       -0.276912         1
         5         4         2        21     9      180.000000        6.572530         2
         5         4         2        21     9        0.000000        0.072337         3
         5         4         2        21     9      180.000000        0.025620         4
         5         4         7        12     9        0.000000        0.259225         1
         5         4         7        12     9      180.000000       12.113030         2
         5         4         7        12     9        0.000000       -1.807494         3
         5         4         7        12     9      180.000000       -0.175216         4
         5        13        14        15     9        0.000000        0.077610         1
         5        13        14        15     9      180.000000        3.944704         2
         5        13        14        15     9        0.000000       -0.104996         3
         5        13        14        15     9      180.000000        0.330440         4
         5        13        14        19     9        0.000000        0.077610         1
         5        13        14        19     9      180.000000        3.944705         2
         5        13        14        19     9        0.000000       -0.104996         3
         5        13        14        19     9      180.000000        0.330440         4
         6         5         4         7     9        0.000000       -0.425746         1
         6         5         4         7     9      180.000000       15.007543         2
         6         5         4         7     9        0.000000       -1.317258         3
         6         5         4         7     9      180.000000       -0.252538         4
         6         5        13        14     9        0.000000        1.477696         1
         6         5        13        14     9      180.000000        3.629667         2
         6         5        13        14     9        0.000000       -0.289356         3
         6         5        13        14     9      180.000000        0.216222         4
         6        11         3         7     9        0.000000        0.121273         1
         6        11         3         7     9      180.000000       26.114757         2
         6        11         3         7     9        0.000000       -1.269335         3
         6        11         3         7     9      180.000000       -0.263523         4
         6        11         3        22     9        0.000000        1.307402         1
         6        11         3        22     9      180.000000       22.194711         2
         6        11         3        22     9        0.000000        0.189237         3
         6        11         3        22     9      180.000000       -0.162527         4
         7         4         2        21     9        0.000000        0.679804         1
         7         4         2        21     9      180.000000       11.169782         2
         7         4         2        21     9        0.000000        0.107111         3
         7         4         2        21     9      180.000000       -0.166454         4
         7         4         5        13     9        0.000000        0.211445         1
         7         4         5        13     9      180.000000       15.918193         2
         7         4         5        13     9        0.000000        0.266932         3
         7         4         5        13     9      180.000000       -0.460822         4
         7        12         1         9     9        0.000000       -0.492474         1
         7        12         1         9     9      180.000000       11.013782         2
         7        12         1         9     9        0.000000       -0.215492         3
         7        12         1         9     9      180.000000       -0.040680         4
         8         9         1        12     9        0.000000        0.896215         1
         8         9         1        12     9      180.000000        3.573393         2
         8         9         1        12     9        0.000000        0.363559         3
         8         9         1        12     9      180.000000       -0.290930         4
         9         1         2        21     9        0.000000        0.273186         1
         9         1         2        21     9      180.000000       13.957946         2
         9         1         2        21     9        0.000000       -0.142182         3
         9         1         2        21     9      180.000000       -0.047722         4
        10         9         1        12     9        0.000000       -2.450391         1
        10         9         1        12     9      180.000000        4.479504         2
        10         9         1        12     9        0.000000       -0.109406         3
        10         9         1        12     9      180.000000       -0.023003         4
        10         9         8        28     9        0.000000        1.183909         1
        10         9         8        28     9      180.000000       10.870367         2
        10         9         8        28     9        0.000000       -0.008556         3
        10         9         8        28     9      180.000000       -0.490929         4
        10         9         8        29     9        0.000000        1.183909         1
        10         9         8        29     9      180.000000       10.870367         2
        10         9         8        29     9        0.000000       -0.008556         3
        10         9         8        29     9      180.000000       -0.490929         4
        11         3         7        12     9        0.000000       -0.532233         1
        11         3         7        12     9      180.000000       12.204863         2
        11         3         7        12     9        0.000000       -0.217446         3
        11         3         7        12     9      180.000000       -0.304426         4
        11         6         5        13     9        0.000000        0.204784         1
        11         6         5        13     9      180.000000       19.416774         2
        11         6         5        13     9        0.000000        0.387032         3
        11         6         5        13     9      180.000000       -0.879380         4
        12         1         2        21     9        0.000000        0.266901         1
        12         1         2        21     9      180.000000       17.372133         2
        12         1         2        21     9        0.000000       -0.196042         3
        12         1         2        21     9      180.000000       -0.492713         4
        12         7         3        22     9        0.000000        0.183356         1
        12         7         3        22     9      180.000000       10.587480         2
        12         7         3        22     9        0.000000       -0.017544         3
        12         7         3        22     9      180.000000       -0.066276         4
        13         5         6        23     9        0.000000        0.410659         1
        13         5         6        23     9      180.000000       14.409164         2
        13         5         6        23     9        0.000000        0.285578         3
        13         5         6        23     9      180.000000        0.325128         4
        13        14        15        16     9        0.000000        0.589017         1
        13        14        15        16     9      180.000000       17.872230         2
        13        14        15        16     9        0.000000        0.349645         3
        13        14        15        16     9      180.000000       -0.220762         4
        13        14        15        24     9        0.000000        0.220515         1
        13        14        15        24     9      180.000000       13.622561         2
        13        14        15        24     9        0.000000       -0.010117         3
        13        14        15        24     9      180.000000        0.377402         4
        13        14        19        18     9        0.000000        0.589017         1
        13        14        19        18     9      180.000000       17.872230         2
        13        14        19        18     9        0.000000        0.349645         3
        13        14        19        18     9      180.000000       -0.220761         4
        13        14        19        27     9        0.000000        0.220515         1
        13        14        19        27     9      180.000000       13.622561         2
        13        14        19        27     9        0.000000       -0.010117         3
        13        14        19        27     9      180.000000        0.377402         4
        14        15        16        17     9        0.000000       -0.201586         1
        14        15        16        17     9      180.000000       18.661283         2
        14        15        16        17     9        0.000000       -1.469485         3
        14        15        16        17     9      180.000000       -0.427294         4
        14        15        16        25     9        0.000000       -0.019051         1
        14        15        16        25     9      180.000000       14.606920         2
        14        15        16        25     9        0.000000       -0.546492         3
        14        15        16        25     9      180.000000        0.085665         4
        14        19        18        17     9        0.000000       -0.201585         1
        14        19        18        17     9      180.000000       18.661281         2
        14        19        18        17     9        0.000000       -1.469485         3
        14        19        18        17     9      180.000000       -0.427294         4
        14        19        18        26     9        0.000000       -0.019052         1
        14        19        18        26     9      180.000000       14.606921         2
        14        19        18        26     9        0.000000       -0.546492         3
        14        19        18        26     9      180.000000        0.085664         4
        15        14        19        18     9        0.000000       -0.054778         1
        15        14        19        18     9      180.000000       16.614611         2
        15        14        19        18     9        0.000000       -0.954376         3
        15        14        19        18     9      180.000000       -0.194804         4
        15        14        19        27     9        0.000000        0.159519         1
        15        14        19        27     9      180.000000       12.665239         2
        15        14        19        27     9        0.000000       -0.573802         3
        15        14        19        27     9      180.000000        0.207770         4
        15        16        17        18     9        0.000000       -0.057050         1
        15        16        17        18     9      180.000000       17.886042         2
        15        16        17        18     9        0.000000       -1.288830         3
        15        16        17        18     9      180.000000       -0.385676         4
        15        16        17        20     9        0.000000        0.385935         1
        15        16        17        20     9      180.000000       18.830412         2
        15        16        17        20     9        0.000000        0.183920         3
        15        16        17        20     9      180.000000       -0.516427         4
        16        15        14        19     9        0.000000       -0.054779         1
        16        15        14        19     9      180.000000       16.614613         2
        16        15        14        19     9        0.000000       -0.954376         3
        16        15        14        19     9      180.000000       -0.194804         4
        16        17        18        19     9        0.000000       -0.057049         1
        16        17        18        19     9      180.000000       17.886042         2
        16        17        18        19     9        0.000000       -1.288829         3
        16        17        18        19     9      180.000000       -0.385675         4
        16        17        18        26     9        0.000000        0.006717         1
        16        17        18        26     9      180.000000       13.473111         2
        16        17        18        26     9        0.000000       -0.609135         3
        16        17        18        26     9      180.000000        0.116944         4
        17        16        15        24     9        0.000000        0.106274         1
        17        16        15        24     9      180.000000       14.109167         2
        17        16        15        24     9        0.000000       -0.507463         3
        17        16        15        24     9      180.000000        0.171074         4
        17        18        19        27     9        0.000000        0.106274         1
        17        18        19        27     9      180.000000       14.109168         2
        17        18        19        27     9        0.000000       -0.507463         3
        17        18        19        27     9      180.000000        0.171074         4
        18        17        16        25     9        0.000000        0.006717         1
        18        17        16        25     9      180.000000       13.473111         2
        18        17        16        25     9        0.000000       -0.609135         3
        18        17        16        25     9      180.000000        0.116944         4
        19        14        15        24     9        0.000000        0.159519         1
        19        14        15        24     9      180.000000       12.665239         2
        19        14        15        24     9        0.000000       -0.573802         3
        19        14        15        24     9      180.000000        0.207770         4
        19        18        17        20     9        0.000000        0.385936         1
        19        18        17        20     9      180.000000       18.830412         2
        19        18        17        20     9        0.000000        0.183920         3
        19        18        17        20     9      180.000000       -0.516427         4
        20        17        16        25     9        0.000000        0.197044         1
        20        17        16        25     9      180.000000       13.306967         2
        20        17        16        25     9        0.000000       -0.108279         3
        20        17        16        25     9      180.000000        0.232508         4
        20        17        18        26     9        0.000000        0.197044         1
        20        17        18        26     9      180.000000       13.306967         2
        20        17        18        26     9        0.000000       -0.108279         3
        20        17        18        26     9      180.000000        0.232508         4
        24        15        16        25     9        0.000000       -0.188407         1
        24        15        16        25     9      180.000000       11.950095         2
        24        15        16        25     9        0.000000       -0.745771         3
        24        15        16        25     9      180.000000        0.280499         4
        26        18        19        27     9        0.000000       -0.188408         1
        26        18        19        27     9      180.000000       11.950094         2
        26        18        19        27     9        0.000000       -0.745770         3
        26        18        19        27     9      180.000000        0.280499         4

[ dihedrals ] ; impropers
;       ai        aj        ak        al funct           phase               k        pn
         3         7        11        22     4      180.000000        3.741341         2
         3        11        22         7     4      180.000000        3.741341         2
         3        22         7        11     4      180.000000        3.741341         2
         6         5        11        23     4      180.000000        0.582472         2
         6        11        23         5     4      180.000000        0.582472         2
         6        23         5        11     4      180.000000        0.582472         2
         9         1         8        10     4      180.000000        1.903375         2
         9         8        10         1     4      180.000000        1.903375         2
         9        10         1         8     4      180.000000        1.903375         2

[ pairs ]
;       ai        aj funct
         1         3     1
         1         5     1
         1        28     1
         1        29     1
         2         3     1
         2         6     1
         2         8     1
         2        10     1
         2        13     1
         3         5     1
         3        23     1
         4         9     1
         4        11     1
         4        14     1
         4        22     1
         4        23     1
         5        12     1
         5        15     1
         5        19     1
         5        21     1
         6         7     1
         6        14     1
         6        22     1
         7         9     1
         7        13     1
         7        21     1
         8        12     1
         9        21     1
        10        12     1
        10        28     1
        10        29     1
        11        12     1
        11        13     1
        12        21     1
        12        22     1
        13        16     1
        13        18     1
        13        23     1
        13        24     1
        13        27     1
        14        17     1
        14        25     1
        14        26     1
        15        18     1
        15        20     1
        15        27     1
        16        19     1
        16        26     1
        17        24     1
        17        27     1
        18        25     1
        19        20     1
        19        24     1
        20        25     1
        20        26     1
        24        25     1
        26        27     1
