; ITP file created by ByteFF-ML, 2025-12-06 07:50:45.139690

[ atomtypes ]
;name           bonded.type        at.num        mass        charge   ptype           sigma         epsilon
 c0bf                                   6      0.0000       0.00000       A     3.31068e-01     4.14528e-01
 c1bf                                   6      0.0000       0.00000       A     3.31309e-01     4.13433e-01
 c2bf                                   6      0.0000       0.00000       A     3.31525e-01     4.10000e-01
 c3bf                                   6      0.0000       0.00000       A     3.31438e-01     4.14290e-01
 c4bf                                   6      0.0000       0.00000       A     3.31622e-01     4.12838e-01
 c5bf                                   6      0.0000       0.00000       A     3.31441e-01     4.15640e-01
 c6bf                                   6      0.0000       0.00000       A     3.31310e-01     4.10172e-01
 n7bf                                   7      0.0000       0.00000       A     3.27314e-01     4.91198e-01
 c8bf                                   6      0.0000       0.00000       A     3.31477e-01     4.13350e-01
 c9bf                                   6      0.0000       0.00000       A     3.39869e-01     4.50543e-01
 o10bf                                  8      0.0000       0.00000       A     3.04710e-01     6.11063e-01
 n11bf                                  7      0.0000       0.00000       A     3.38364e-01     3.93072e-01
 s12bf                                 16      0.0000       0.00000       A     3.53500e-01     1.17935e+00
 o13bf                                  8      0.0000       0.00000       A     3.15922e-01     3.07350e-01
 c14bf                                  6      0.0000       0.00000       A     3.31520e-01     4.13050e-01
 c15bf                                  6      0.0000       0.00000       A     3.31506e-01     4.13157e-01
 c16bf                                  6      0.0000       0.00000       A     3.31466e-01     4.12724e-01
 c17bf                                  6      0.0000       0.00000       A     3.31470e-01     4.13128e-01
 c18bf                                  6      0.0000       0.00000       A     3.31466e-01     4.12724e-01
 c19bf                                  6      0.0000       0.00000       A     3.31505e-01     4.13157e-01
 cl20bf                                17      0.0000       0.00000       A     3.46712e-01     1.10479e+00
 h21bf                                  1      0.0000       0.00000       A     2.62855e-01     6.65242e-02
 h22bf                                  1      0.0000       0.00000       A     2.53541e-01     6.74259e-02
 h23bf                                  1      0.0000       0.00000       A     2.53502e-01     6.70126e-02
 h24bf                                  1      0.0000       0.00000       A     1.10461e-01     4.12504e-02
 h25bf                                  1      0.0000       0.00000       A     2.41960e-01     8.72012e-02
 h26bf                                  1      0.0000       0.00000       A     2.41960e-01     8.72012e-02
 h27bf                                  1      0.0000       0.00000       A     2.41960e-01     8.72012e-02
 h28bf                                  1      0.0000       0.00000       A     2.62480e-01     6.70381e-02
 h29bf                                  1      0.0000       0.00000       A     2.62516e-01     6.71482e-02
 h30bf                                  1      0.0000       0.00000       A     2.62516e-01     6.71482e-02
 h31bf                                  1      0.0000       0.00000       A     2.62480e-01     6.70381e-02

[ moleculetype ]
;name             nrexcl
 14                    3

[ atoms ]
;       nr            type      resi   res      atom      cgnr      charge          mass ; qtot
         1            c0bf         1   UNL        c0         1    -0.12491       12.0110 ; qtot   -0.125
         2            c1bf         1   UNL        c1         2    -0.09192       12.0110 ; qtot   -0.217
         3            c2bf         1   UNL        c2         3     0.36633       12.0110 ; qtot    0.149
         4            c3bf         1   UNL        c3         4    -0.07201       12.0110 ; qtot    0.077
         5            c4bf         1   UNL        c4         5     0.10663       12.0110 ; qtot    0.184
         6            c5bf         1   UNL        c5         6     0.29008       12.0110 ; qtot    0.474
         7            c6bf         1   UNL        c6         7    -0.19484       12.0110 ; qtot    0.279
         8            n7bf         1   UNL        n7         8    -0.50362       14.0070 ; qtot   -0.224
         9            c8bf         1   UNL        c8         9     0.62637       12.0110 ; qtot    0.402
        10            c9bf         1   UNL        c9        10     0.08431       12.0110 ; qtot    0.486
        11           o10bf         1   UNL       o10        11    -0.59037       15.9990 ; qtot   -0.104
        12           n11bf         1   UNL       n11        12    -0.63032       14.0070 ; qtot   -0.734
        13           s12bf         1   UNL       s12        13     0.11824       32.0670 ; qtot   -0.616
        14           o13bf         1   UNL       o13        14    -0.24220       15.9990 ; qtot   -0.858
        15           c14bf         1   UNL       c14        15     0.11228       12.0110 ; qtot   -0.746
        16           c15bf         1   UNL       c15        16    -0.13022       12.0110 ; qtot   -0.876
        17           c16bf         1   UNL       c16        17    -0.08023       12.0110 ; qtot   -0.956
        18           c17bf         1   UNL       c17        18     0.10524       12.0110 ; qtot   -0.851
        19           c18bf         1   UNL       c18        19    -0.08023       12.0110 ; qtot   -0.931
        20           c19bf         1   UNL       c19        20    -0.13022       12.0110 ; qtot   -1.062
        21          cl20bf         1   UNL      cl20        21    -0.21044       35.4530 ; qtot   -1.272
        22           h21bf         1   UNL       h21        22     0.21311        1.0080 ; qtot   -1.059
        23           h22bf         1   UNL       h22        23     0.02973        1.0080 ; qtot   -1.029
        24           h23bf         1   UNL       h23        24     0.03579        1.0080 ; qtot   -0.993
        25           h24bf         1   UNL       h24        25     0.31363        1.0080 ; qtot   -0.680
        26           h25bf         1   UNL       h25        26     0.04533        1.0080 ; qtot   -0.634
        27           h26bf         1   UNL       h26        27     0.04533        1.0080 ; qtot   -0.589
        28           h27bf         1   UNL       h27        28     0.04533        1.0080 ; qtot   -0.544
        29           h28bf         1   UNL       h28        29     0.13537        1.0080 ; qtot   -0.408
        30           h29bf         1   UNL       h29        30     0.13654        1.0080 ; qtot   -0.272
        31           h30bf         1   UNL       h30        31     0.13654        1.0080 ; qtot   -0.135
        32           h31bf         1   UNL       h31        32     0.13535        1.0080 ; qtot    0.000

[ bonds ]
;       ai        aj funct               r               k
         1         2     1        0.136853   387364.802051
         1         9     1        0.149050   187499.560400
         1        13     1        0.175871   139988.406836
         2         4     1        0.143065   256055.973486
         2        22     1        0.108355   330241.965723
         3         7     1        0.140311   288300.302490
         3        12     1        0.133233   334049.344434
         3        23     1        0.108847   314136.349268
         4         5     1        0.141044   277237.320264
         4         7     1        0.141571   258362.255371
         5         6     1        0.139269   298045.672021
         5        14     1        0.137783   248400.535449
         6        12     1        0.134797   300411.123389
         6        24     1        0.108641   319784.519434
         7        13     1        0.174975   154714.291577
         8         9     1        0.137049   297440.008398
         8        10     1        0.145938   219190.679004
         8        25     1        0.101068   425759.054346
         9        11     1        0.123258   592386.062695
        10        26     1        0.109288   302863.630762
        10        27     1        0.109288   302863.630762
        10        28     1        0.109288   302863.630762
        14        15     1        0.138588   236585.178906
        15        16     1        0.139759   296218.925977
        15        20     1        0.139759   296218.951514
        16        17     1        0.139665   318077.797803
        16        29     1        0.108472   324415.495459
        17        18     1        0.139679   300422.793848
        17        30     1        0.108460   325418.363281
        18        19     1        0.139679   300422.793848
        18        21     1        0.175851   148359.752197
        19        20     1        0.139665   318077.797803
        19        31     1        0.108460   325418.414355
        20        32     1        0.108472   324415.469922

[ angles ]
;       ai        aj        ak funct           theta             cth
         1         2         4     1      112.651901      399.966612
         1         2        22     1      123.001442      389.760898
         1         9         8     1      116.165848      477.696721
         1         9        11     1      120.816017      540.044297
         1        13         7     1       90.376747      457.395677
         2         1         9     1      127.152832      433.696888
         2         1        13     1      112.897194      167.360000
         2         4         5     1      130.179764      398.477352
         2         4         7     1      112.193687      476.283114
         3         7         4     1      120.408531      716.641963
         3         7        13     1      127.897171      370.283808
         3        12         6     1      118.900452      558.108929
         4         2        22     1      124.310837      385.847847
         4         5         6     1      118.637917      678.036812
         4         5        14     1      118.276077      442.150214
         4         7        13     1      111.576721      167.360000
         5         4         7     1      116.980637      712.224362
         5         6        12     1      123.409790      692.540678
         5         6        24     1      119.877098      410.591837
         5        14        15     1      118.500870      426.571556
         6         5        14     1      122.139931      548.863857
         7         3        12     1      121.491249      725.054972
         7         3        23     1      121.222519      411.500033
         8         9        11     1      122.722549      573.194338
         8        10        26     1      110.019691      490.957312
         8        10        27     1      110.019691      490.957312
         8        10        28     1      110.019691      490.957312
         9         1        13     1      120.352798      496.973855
         9         8        10     1      120.510475      515.978316
         9         8        25     1      118.079788      425.027454
        10         8        25     1      117.749207      430.753385
        12         3        23     1      117.010254      375.144223
        12         6        24     1      116.623924      348.863217
        14        15        16     1      119.667442      520.914735
        14        15        20     1      119.667435      520.914735
        15        16        17     1      119.723709      708.320951
        15        16        29     1      119.867592      419.809904
        15        20        19     1      119.723709      708.320951
        15        20        32     1      119.867592      419.809904
        16        15        20     1      120.509987      613.874506
        16        17        18     1      119.487167      640.596410
        16        17        30     1      120.379723      412.832559
        17        16        29     1      120.528175      418.035234
        17        18        19     1      120.869644      623.226195
        17        18        21     1      119.533920      384.415374
        18        17        30     1      120.189987      407.550719
        18        19        20     1      119.487167      640.596473
        18        19        31     1      120.189987      407.550719
        19        18        21     1      119.533920      384.415374
        19        20        32     1      120.528175      418.035234
        20        19        31     1      120.379723      412.832559
        26        10        27     1      108.963585      342.386943
        26        10        28     1      108.963585      342.386974
        27        10        28     1      108.963585      342.386943

[ dihedrals ] ; propers for gromacs 4.5 or higher, use funct 9
;       ai        aj        ak        al funct           phase               k        pn
         1         2         4         5     9        0.000000       -0.364239         1
         1         2         4         5     9      180.000000        6.171548         2
         1         2         4         5     9        0.000000       -1.102122         3
         1         2         4         5     9      180.000000        0.223903         4
         1         2         4         7     9        0.000000        0.240426         1
         1         2         4         7     9      180.000000       20.592965         2
         1         2         4         7     9        0.000000       -5.586292         3
         1         2         4         7     9      180.000000       -0.047680         4
         1         9         8        10     9        0.000000        1.833565         1
         1         9         8        10     9      180.000000       10.941835         2
         1         9         8        10     9        0.000000        0.624189         3
         1         9         8        10     9      180.000000        0.114295         4
         1         9         8        25     9        0.000000        0.129238         1
         1         9         8        25     9      180.000000        9.403857         2
         1         9         8        25     9        0.000000        0.313976         3
         1         9         8        25     9      180.000000        0.360496         4
         1        13         7         3     9        0.000000        0.044923         1
         1        13         7         3     9      180.000000        4.545415         2
         1        13         7         3     9        0.000000       -0.164093         3
         1        13         7         3     9      180.000000        0.204737         4
         1        13         7         4     9        0.000000       -0.541406         1
         1        13         7         4     9      180.000000       23.105733         2
         1        13         7         4     9        0.000000       -5.532933         3
         1        13         7         4     9      180.000000        0.219941         4
         2         1         9         8     9        0.000000       -0.069404         1
         2         1         9         8     9      180.000000        2.034110         2
         2         1         9         8     9        0.000000        0.130681         3
         2         1         9         8     9      180.000000       -0.483484         4
         2         1         9        11     9        0.000000        1.066324         1
         2         1         9        11     9      180.000000        2.554610         2
         2         1         9        11     9        0.000000        0.244340         3
         2         1         9        11     9      180.000000        0.191148         4
         2         1        13         7     9        0.000000        0.252428         1
         2         1        13         7     9      180.000000       23.484129         2
         2         1        13         7     9        0.000000       -5.981061         3
         2         1        13         7     9      180.000000        0.007564         4
         2         4         5         6     9        0.000000        0.121383         1
         2         4         5         6     9      180.000000       10.359549         2
         2         4         5         6     9        0.000000       -0.279414         3
         2         4         5         6     9      180.000000       -0.024298         4
         2         4         5        14     9        0.000000        0.384555         1
         2         4         5        14     9      180.000000       13.325856         2
         2         4         5        14     9        0.000000        0.588168         3
         2         4         5        14     9      180.000000       -0.158024         4
         2         4         7         3     9        0.000000        0.167381         1
         2         4         7         3     9      180.000000       10.949794         2
         2         4         7         3     9        0.000000       -1.747925         3
         2         4         7         3     9      180.000000        0.086989         4
         2         4         7        13     9        0.000000        0.216183         1
         2         4         7        13     9      180.000000       15.205468         2
         2         4         7        13     9        0.000000       -3.200352         3
         2         4         7        13     9      180.000000       -0.353683         4
         3         7         4         5     9        0.000000       -0.205416         1
         3         7         4         5     9      180.000000       11.318989         2
         3         7         4         5     9        0.000000       -1.963037         3
         3         7         4         5     9      180.000000       -0.013028         4
         3        12         6         5     9        0.000000        0.091035         1
         3        12         6         5     9      180.000000       20.836021         2
         3        12         6         5     9        0.000000       -1.014134         3
         3        12         6         5     9      180.000000       -0.038062         4
         3        12         6        24     9        0.000000        0.845563         1
         3        12         6        24     9      180.000000       19.627545         2
         3        12         6        24     9        0.000000        0.146423         3
         3        12         6        24     9      180.000000       -0.265320         4
         4         2         1         9     9        0.000000        0.090748         1
         4         2         1         9     9      180.000000       19.996620         2
         4         2         1         9     9        0.000000       -0.667905         3
         4         2         1         9     9      180.000000       -1.182098         4
         4         2         1        13     9        0.000000       -0.578919         1
         4         2         1        13     9      180.000000       29.124279         2
         4         2         1        13     9        0.000000       -4.525592         3
         4         2         1        13     9      180.000000       -0.942427         4
         4         5         6        12     9        0.000000        0.014397         1
         4         5         6        12     9      180.000000       18.100109         2
         4         5         6        12     9        0.000000       -0.793754         3
         4         5         6        12     9      180.000000       -0.632883         4
         4         5         6        24     9        0.000000        0.272148         1
         4         5         6        24     9      180.000000       13.822304         2
         4         5         6        24     9        0.000000       -0.214016         3
         4         5         6        24     9      180.000000        0.008311         4
         4         5        14        15     9        0.000000        0.544218         1
         4         5        14        15     9      180.000000        3.839295         2
         4         5        14        15     9        0.000000        0.293761         3
         4         5        14        15     9      180.000000        0.185016         4
         4         7         3        12     9        0.000000        0.026331         1
         4         7         3        12     9      180.000000       16.873853         2
         4         7         3        12     9        0.000000       -0.949134         3
         4         7         3        12     9      180.000000       -0.350336         4
         4         7         3        23     9        0.000000        0.417030         1
         4         7         3        23     9      180.000000       13.019124         2
         4         7         3        23     9        0.000000       -0.192134         3
         4         7         3        23     9      180.000000       -0.028193         4
         5         4         2        22     9        0.000000       -0.281654         1
         5         4         2        22     9      180.000000        6.507792         2
         5         4         2        22     9        0.000000        0.069494         3
         5         4         2        22     9      180.000000        0.029081         4
         5         4         7        13     9        0.000000        0.235851         1
         5         4         7        13     9      180.000000       12.117901         2
         5         4         7        13     9        0.000000       -1.817687         3
         5         4         7        13     9      180.000000       -0.178794         4
         5        14        15        16     9        0.000000        0.077610         1
         5        14        15        16     9      180.000000        3.944704         2
         5        14        15        16     9        0.000000       -0.104996         3
         5        14        15        16     9      180.000000        0.330440         4
         5        14        15        20     9        0.000000        0.077610         1
         5        14        15        20     9      180.000000        3.944705         2
         5        14        15        20     9        0.000000       -0.104996         3
         5        14        15        20     9      180.000000        0.330440         4
         6         5         4         7     9        0.000000       -0.425746         1
         6         5         4         7     9      180.000000       15.007543         2
         6         5         4         7     9        0.000000       -1.317258         3
         6         5         4         7     9      180.000000       -0.252538         4
         6         5        14        15     9        0.000000        1.477696         1
         6         5        14        15     9      180.000000        3.629667         2
         6         5        14        15     9        0.000000       -0.289356         3
         6         5        14        15     9      180.000000        0.216222         4
         6        12         3         7     9        0.000000        0.121273         1
         6        12         3         7     9      180.000000       26.114757         2
         6        12         3         7     9        0.000000       -1.269335         3
         6        12         3         7     9      180.000000       -0.263523         4
         6        12         3        23     9        0.000000        1.307402         1
         6        12         3        23     9      180.000000       22.194711         2
         6        12         3        23     9        0.000000        0.189237         3
         6        12         3        23     9      180.000000       -0.162527         4
         7         4         2        22     9        0.000000        0.665582         1
         7         4         2        22     9      180.000000       11.037114         2
         7         4         2        22     9        0.000000        0.114907         3
         7         4         2        22     9      180.000000       -0.155753         4
         7         4         5        14     9        0.000000        0.211445         1
         7         4         5        14     9      180.000000       15.918193         2
         7         4         5        14     9        0.000000        0.266932         3
         7         4         5        14     9      180.000000       -0.460822         4
         7        13         1         9     9        0.000000       -0.297783         1
         7        13         1         9     9      180.000000       12.994000         2
         7        13         1         9     9        0.000000       -0.359197         3
         7        13         1         9     9      180.000000       -0.241702         4
         8         9         1        13     9        0.000000        1.402062         1
         8         9         1        13     9      180.000000        3.101860         2
         8         9         1        13     9        0.000000        0.418880         3
         8         9         1        13     9      180.000000       -0.541162         4
         9         1         2        22     9        0.000000        0.290482         1
         9         1         2        22     9      180.000000       14.739070         2
         9         1         2        22     9        0.000000       -0.092736         3
         9         1         2        22     9      180.000000       -0.155990         4
         9         8        10        26     9        0.000000       -0.037393         1
         9         8        10        26     9      180.000000        0.043172         2
         9         8        10        26     9        0.000000        0.324541         3
         9         8        10        26     9      180.000000       -0.000206         4
         9         8        10        27     9        0.000000       -0.037393         1
         9         8        10        27     9      180.000000        0.043172         2
         9         8        10        27     9        0.000000        0.324541         3
         9         8        10        27     9      180.000000       -0.000206         4
         9         8        10        28     9        0.000000       -0.037393         1
         9         8        10        28     9      180.000000        0.043172         2
         9         8        10        28     9        0.000000        0.324541         3
         9         8        10        28     9      180.000000       -0.000206         4
        10         8         9        11     9        0.000000       -2.825250         1
        10         8         9        11     9      180.000000        9.290570         2
        10         8         9        11     9        0.000000       -0.031382         3
        10         8         9        11     9      180.000000       -0.339218         4
        11         9         1        13     9        0.000000       -1.972315         1
        11         9         1        13     9      180.000000        4.112442         2
        11         9         1        13     9        0.000000       -0.036692         3
        11         9         1        13     9      180.000000        0.052445         4
        11         9         8        25     9        0.000000       -0.084483         1
        11         9         8        25     9      180.000000        9.800912         2
        11         9         8        25     9        0.000000        0.345467         3
        11         9         8        25     9      180.000000       -0.001406         4
        12         3         7        13     9        0.000000       -0.524799         1
        12         3         7        13     9      180.000000       12.221098         2
        12         3         7        13     9        0.000000       -0.220207         3
        12         3         7        13     9      180.000000       -0.304198         4
        12         6         5        14     9        0.000000        0.204784         1
        12         6         5        14     9      180.000000       19.416774         2
        12         6         5        14     9        0.000000        0.387032         3
        12         6         5        14     9      180.000000       -0.879380         4
        13         1         2        22     9        0.000000        0.288694         1
        13         1         2        22     9      180.000000       17.396591         2
        13         1         2        22     9        0.000000       -0.128636         3
        13         1         2        22     9      180.000000       -0.514034         4
        13         7         3        23     9        0.000000        0.189556         1
        13         7         3        23     9      180.000000       10.590983         2
        13         7         3        23     9        0.000000       -0.025059         3
        13         7         3        23     9      180.000000       -0.067887         4
        14         5         6        24     9        0.000000        0.410659         1
        14         5         6        24     9      180.000000       14.409164         2
        14         5         6        24     9        0.000000        0.285577         3
        14         5         6        24     9      180.000000        0.325128         4
        14        15        16        17     9        0.000000        0.589017         1
        14        15        16        17     9      180.000000       17.872230         2
        14        15        16        17     9        0.000000        0.349645         3
        14        15        16        17     9      180.000000       -0.220762         4
        14        15        16        29     9        0.000000        0.220515         1
        14        15        16        29     9      180.000000       13.622561         2
        14        15        16        29     9        0.000000       -0.010117         3
        14        15        16        29     9      180.000000        0.377402         4
        14        15        20        19     9        0.000000        0.589017         1
        14        15        20        19     9      180.000000       17.872230         2
        14        15        20        19     9        0.000000        0.349645         3
        14        15        20        19     9      180.000000       -0.220761         4
        14        15        20        32     9        0.000000        0.220515         1
        14        15        20        32     9      180.000000       13.622561         2
        14        15        20        32     9        0.000000       -0.010117         3
        14        15        20        32     9      180.000000        0.377402         4
        15        16        17        18     9        0.000000       -0.201586         1
        15        16        17        18     9      180.000000       18.661283         2
        15        16        17        18     9        0.000000       -1.469485         3
        15        16        17        18     9      180.000000       -0.427294         4
        15        16        17        30     9        0.000000       -0.019051         1
        15        16        17        30     9      180.000000       14.606920         2
        15        16        17        30     9        0.000000       -0.546492         3
        15        16        17        30     9      180.000000        0.085665         4
        15        20        19        18     9        0.000000       -0.201585         1
        15        20        19        18     9      180.000000       18.661281         2
        15        20        19        18     9        0.000000       -1.469485         3
        15        20        19        18     9      180.000000       -0.427294         4
        15        20        19        31     9        0.000000       -0.019052         1
        15        20        19        31     9      180.000000       14.606921         2
        15        20        19        31     9        0.000000       -0.546492         3
        15        20        19        31     9      180.000000        0.085664         4
        16        15        20        19     9        0.000000       -0.054778         1
        16        15        20        19     9      180.000000       16.614611         2
        16        15        20        19     9        0.000000       -0.954376         3
        16        15        20        19     9      180.000000       -0.194804         4
        16        15        20        32     9        0.000000        0.159519         1
        16        15        20        32     9      180.000000       12.665239         2
        16        15        20        32     9        0.000000       -0.573802         3
        16        15        20        32     9      180.000000        0.207770         4
        16        17        18        19     9        0.000000       -0.057050         1
        16        17        18        19     9      180.000000       17.886042         2
        16        17        18        19     9        0.000000       -1.288830         3
        16        17        18        19     9      180.000000       -0.385676         4
        16        17        18        21     9        0.000000        0.385935         1
        16        17        18        21     9      180.000000       18.830412         2
        16        17        18        21     9        0.000000        0.183920         3
        16        17        18        21     9      180.000000       -0.516427         4
        17        16        15        20     9        0.000000       -0.054779         1
        17        16        15        20     9      180.000000       16.614613         2
        17        16        15        20     9        0.000000       -0.954376         3
        17        16        15        20     9      180.000000       -0.194804         4
        17        18        19        20     9        0.000000       -0.057049         1
        17        18        19        20     9      180.000000       17.886042         2
        17        18        19        20     9        0.000000       -1.288829         3
        17        18        19        20     9      180.000000       -0.385675         4
        17        18        19        31     9        0.000000        0.006717         1
        17        18        19        31     9      180.000000       13.473111         2
        17        18        19        31     9        0.000000       -0.609135         3
        17        18        19        31     9      180.000000        0.116944         4
        18        17        16        29     9        0.000000        0.106274         1
        18        17        16        29     9      180.000000       14.109167         2
        18        17        16        29     9        0.000000       -0.507463         3
        18        17        16        29     9      180.000000        0.171074         4
        18        19        20        32     9        0.000000        0.106274         1
        18        19        20        32     9      180.000000       14.109168         2
        18        19        20        32     9        0.000000       -0.507463         3
        18        19        20        32     9      180.000000        0.171074         4
        19        18        17        30     9        0.000000        0.006717         1
        19        18        17        30     9      180.000000       13.473111         2
        19        18        17        30     9        0.000000       -0.609135         3
        19        18        17        30     9      180.000000        0.116944         4
        20        15        16        29     9        0.000000        0.159519         1
        20        15        16        29     9      180.000000       12.665239         2
        20        15        16        29     9        0.000000       -0.573802         3
        20        15        16        29     9      180.000000        0.207770         4
        20        19        18        21     9        0.000000        0.385936         1
        20        19        18        21     9      180.000000       18.830412         2
        20        19        18        21     9        0.000000        0.183920         3
        20        19        18        21     9      180.000000       -0.516427         4
        21        18        17        30     9        0.000000        0.197044         1
        21        18        17        30     9      180.000000       13.306967         2
        21        18        17        30     9        0.000000       -0.108279         3
        21        18        17        30     9      180.000000        0.232508         4
        21        18        19        31     9        0.000000        0.197044         1
        21        18        19        31     9      180.000000       13.306967         2
        21        18        19        31     9        0.000000       -0.108279         3
        21        18        19        31     9      180.000000        0.232508         4
        25         8        10        26     9        0.000000       -0.025894         1
        25         8        10        26     9      180.000000        0.042172         2
        25         8        10        26     9        0.000000        0.524590         3
        25         8        10        26     9      180.000000        0.003629         4
        25         8        10        27     9        0.000000       -0.025894         1
        25         8        10        27     9      180.000000        0.042172         2
        25         8        10        27     9        0.000000        0.524590         3
        25         8        10        27     9      180.000000        0.003629         4
        25         8        10        28     9        0.000000       -0.025894         1
        25         8        10        28     9      180.000000        0.042172         2
        25         8        10        28     9        0.000000        0.524590         3
        25         8        10        28     9      180.000000        0.003629         4
        29        16        17        30     9        0.000000       -0.188407         1
        29        16        17        30     9      180.000000       11.950095         2
        29        16        17        30     9        0.000000       -0.745771         3
        29        16        17        30     9      180.000000        0.280499         4
        31        19        20        32     9        0.000000       -0.188408         1
        31        19        20        32     9      180.000000       11.950094         2
        31        19        20        32     9        0.000000       -0.745770         3
        31        19        20        32     9      180.000000        0.280499         4

[ dihedrals ] ; impropers
;       ai        aj        ak        al funct           phase               k        pn
         3         7        12        23     4      180.000000        3.741341         2
         3        12        23         7     4      180.000000        3.741341         2
         3        23         7        12     4      180.000000        3.741341         2
         6         5        12        24     4      180.000000        0.582472         2
         6        12        24         5     4      180.000000        0.582472         2
         6        24         5        12     4      180.000000        0.582472         2
         9         1         8        11     4      180.000000       25.340077         2
         9         8        11         1     4      180.000000       25.340077         2
         9        11         1         8     4      180.000000       25.340077         2

[ pairs ]
;       ai        aj funct
         1         3     1
         1         5     1
         1        10     1
         1        25     1
         2         3     1
         2         6     1
         2         8     1
         2        11     1
         2        14     1
         3         5     1
         3        24     1
         4         9     1
         4        12     1
         4        15     1
         4        23     1
         4        24     1
         5        13     1
         5        16     1
         5        20     1
         5        22     1
         6         7     1
         6        15     1
         6        23     1
         7         9     1
         7        14     1
         7        22     1
         8        13     1
         9        22     1
         9        26     1
         9        27     1
         9        28     1
        10        11     1
        11        13     1
        11        25     1
        12        13     1
        12        14     1
        13        22     1
        13        23     1
        14        17     1
        14        19     1
        14        24     1
        14        29     1
        14        32     1
        15        18     1
        15        30     1
        15        31     1
        16        19     1
        16        21     1
        16        32     1
        17        20     1
        17        31     1
        18        29     1
        18        32     1
        19        30     1
        20        21     1
        20        29     1
        21        30     1
        21        31     1
        25        26     1
        25        27     1
        25        28     1
        29        30     1
        31        32     1
