; ITP file created by ByteFF-ML, 2025-12-06 07:51:37.146673

[ atomtypes ]
;name           bonded.type        at.num        mass        charge   ptype           sigma         epsilon
 c0bf                                   6      0.0000       0.00000       A     3.31231e-01     4.13047e-01
 c1bf                                   6      0.0000       0.00000       A     3.31351e-01     4.13644e-01
 c2bf                                   6      0.0000       0.00000       A     3.31525e-01     4.10000e-01
 c3bf                                   6      0.0000       0.00000       A     3.31438e-01     4.14290e-01
 c4bf                                   6      0.0000       0.00000       A     3.31622e-01     4.12838e-01
 c5bf                                   6      0.0000       0.00000       A     3.31441e-01     4.15640e-01
 c6bf                                   6      0.0000       0.00000       A     3.31310e-01     4.10172e-01
 n7bf                                   7      0.0000       0.00000       A     3.18210e-01     6.84782e-01
 c8bf                                   6      0.0000       0.00000       A     3.31521e-01     4.13759e-01
 o9bf                                   8      0.0000       0.00000       A     3.04782e-01     6.11365e-01
 n10bf                                  7      0.0000       0.00000       A     3.38364e-01     3.93072e-01
 s11bf                                 16      0.0000       0.00000       A     3.53573e-01     1.17942e+00
 o12bf                                  8      0.0000       0.00000       A     3.15922e-01     3.07350e-01
 c13bf                                  6      0.0000       0.00000       A     3.31520e-01     4.13050e-01
 c14bf                                  6      0.0000       0.00000       A     3.31506e-01     4.13157e-01
 c15bf                                  6      0.0000       0.00000       A     3.31466e-01     4.12724e-01
 c16bf                                  6      0.0000       0.00000       A     3.31470e-01     4.13128e-01
 c17bf                                  6      0.0000       0.00000       A     3.31466e-01     4.12724e-01
 c18bf                                  6      0.0000       0.00000       A     3.31505e-01     4.13157e-01
 cl19bf                                17      0.0000       0.00000       A     3.46712e-01     1.10479e+00
 h20bf                                  1      0.0000       0.00000       A     2.62855e-01     6.65242e-02
 h21bf                                  1      0.0000       0.00000       A     2.53541e-01     6.74259e-02
 h22bf                                  1      0.0000       0.00000       A     2.53502e-01     6.70126e-02
 c23bf                                  6      0.0000       0.00000       A     3.39829e-01     4.50891e-01
 h24bf                                  1      0.0000       0.00000       A     2.62481e-01     6.70381e-02
 h25bf                                  1      0.0000       0.00000       A     2.62516e-01     6.71482e-02
 h26bf                                  1      0.0000       0.00000       A     2.62516e-01     6.71482e-02
 h27bf                                  1      0.0000       0.00000       A     2.62480e-01     6.70381e-02
 c28bf                                  6      0.0000       0.00000       A     3.39829e-01     4.50891e-01
 h29bf                                  1      0.0000       0.00000       A     2.41995e-01     8.72699e-02
 h30bf                                  1      0.0000       0.00000       A     2.41995e-01     8.72699e-02
 h31bf                                  1      0.0000       0.00000       A     2.41995e-01     8.72699e-02
 h32bf                                  1      0.0000       0.00000       A     2.41995e-01     8.72699e-02
 h33bf                                  1      0.0000       0.00000       A     2.41995e-01     8.72699e-02
 h34bf                                  1      0.0000       0.00000       A     2.41995e-01     8.72699e-02

[ moleculetype ]
;name             nrexcl
 15                    3

[ atoms ]
;       nr            type      resi   res      atom      cgnr      charge          mass ; qtot
         1            c0bf         1   UNL        c0         1    -0.11559       12.0110 ; qtot   -0.116
         2            c1bf         1   UNL        c1         2    -0.09719       12.0110 ; qtot   -0.213
         3            c2bf         1   UNL        c2         3     0.36633       12.0110 ; qtot    0.154
         4            c3bf         1   UNL        c3         4    -0.07084       12.0110 ; qtot    0.083
         5            c4bf         1   UNL        c4         5     0.10663       12.0110 ; qtot    0.189
         6            c5bf         1   UNL        c5         6     0.29008       12.0110 ; qtot    0.479
         7            c6bf         1   UNL        c6         7    -0.19781       12.0110 ; qtot    0.282
         8            n7bf         1   UNL        n7         8    -0.41031       14.0070 ; qtot   -0.129
         9            c8bf         1   UNL        c8         9     0.63064       12.0110 ; qtot    0.502
        10            o9bf         1   UNL        o9        10    -0.59013       15.9990 ; qtot   -0.088
        11           n10bf         1   UNL       n10        11    -0.63032       14.0070 ; qtot   -0.719
        12           s11bf         1   UNL       s11        12     0.12087       32.0670 ; qtot   -0.598
        13           o12bf         1   UNL       o12        13    -0.24220       15.9990 ; qtot   -0.840
        14           c13bf         1   UNL       c13        14     0.11228       12.0110 ; qtot   -0.728
        15           c14bf         1   UNL       c14        15    -0.13022       12.0110 ; qtot   -0.858
        16           c15bf         1   UNL       c15        16    -0.08023       12.0110 ; qtot   -0.938
        17           c16bf         1   UNL       c16        17     0.10524       12.0110 ; qtot   -0.833
        18           c17bf         1   UNL       c17        18    -0.08023       12.0110 ; qtot   -0.913
        19           c18bf         1   UNL       c18        19    -0.13022       12.0110 ; qtot   -1.043
        20          cl19bf         1   UNL      cl19        20    -0.21044       35.4530 ; qtot   -1.254
        21           h20bf         1   UNL       h20        21     0.20770        1.0080 ; qtot   -1.046
        22           h21bf         1   UNL       h21        22     0.02973        1.0080 ; qtot   -1.016
        23           h22bf         1   UNL       h22        23     0.03579        1.0080 ; qtot   -0.980
        24           c23bf         1   UNL       c23        24     0.08159       12.0110 ; qtot   -0.899
        25           h24bf         1   UNL       h24        25     0.13537        1.0080 ; qtot   -0.763
        26           h25bf         1   UNL       h25        26     0.13654        1.0080 ; qtot   -0.627
        27           h26bf         1   UNL       h26        27     0.13654        1.0080 ; qtot   -0.490
        28           h27bf         1   UNL       h27        28     0.13537        1.0080 ; qtot   -0.355
        29           c28bf         1   UNL       c28        29     0.08159       12.0110 ; qtot   -0.273
        30           h29bf         1   UNL       h29        30     0.04557        1.0080 ; qtot   -0.228
        31           h30bf         1   UNL       h30        31     0.04557        1.0080 ; qtot   -0.182
        32           h31bf         1   UNL       h31        32     0.04557        1.0080 ; qtot   -0.137
        33           h32bf         1   UNL       h32        33     0.04557        1.0080 ; qtot   -0.091
        34           h33bf         1   UNL       h33        34     0.04557        1.0080 ; qtot   -0.046
        35           h34bf         1   UNL       h34        35     0.04559        1.0080 ; qtot    0.000

[ bonds ]
;       ai        aj funct               r               k
         1         2     1        0.136859   385030.761328
         1         9     1        0.149531   185061.570874
         1        12     1        0.175917   138290.521045
         2         4     1        0.143101   255493.825098
         2        21     1        0.108317   331065.997168
         3         7     1        0.140311   288300.302490
         3        11     1        0.133233   334049.344434
         3        22     1        0.108847   314136.349268
         4         5     1        0.141044   277237.320264
         4         7     1        0.141571   258362.255371
         5         6     1        0.139269   298045.672021
         5        13     1        0.137783   248400.535449
         6        11     1        0.134797   300411.123389
         6        23     1        0.108641   319784.519434
         7        12     1        0.175023   154569.317407
         8         9     1        0.137366   284302.723389
         8        24     1        0.146068   206851.377588
         8        29     1        0.146068   206851.377588
         9        10     1        0.123560   579160.444824
        13        14     1        0.138588   236585.178906
        14        15     1        0.139759   296218.925977
        14        19     1        0.139759   296218.951514
        15        16     1        0.139665   318077.797803
        15        25     1        0.108472   324415.469922
        16        17     1        0.139679   300422.793848
        16        26     1        0.108460   325418.363281
        17        18     1        0.139679   300422.793848
        17        20     1        0.175851   148359.752197
        18        19     1        0.139665   318077.823340
        18        27     1        0.108460   325418.388818
        19        28     1        0.108472   324415.495459
        24        30     1        0.109326   300844.973340
        24        31     1        0.109326   300844.947803
        24        32     1        0.109326   300844.947803
        29        33     1        0.109326   300844.973340
        29        34     1        0.109326   300844.973340
        29        35     1        0.109326   300844.973340

[ angles ]
;       ai        aj        ak funct           theta             cth
         1         2         4     1      112.749084      407.186719
         1         2        21     1      122.992538      387.434691
         1         9         8     1      118.600075      389.442546
         1         9        10     1      118.677223      519.292427
         1        12         7     1       90.407486      463.399707
         2         1         9     1      126.790115      426.207045
         2         1        12     1      112.765198      167.360000
         2         4         5     1      130.199524      401.293903
         2         4         7     1      112.267349      474.908931
         3         7         4     1      120.408531      716.641963
         3         7        12     1      127.888184      373.044242
         3        11         6     1      118.900452      558.108929
         4         2        21     1      124.466064      382.626404
         4         5         6     1      118.637917      678.036812
         4         5        13     1      118.276077      442.150214
         4         7        12     1      111.605850      167.360000
         5         4         7     1      116.980637      712.224362
         5         6        11     1      123.409790      692.540678
         5         6        23     1      119.877098      410.591869
         5        13        14     1      118.500870      426.571556
         6         5        13     1      122.139931      548.863857
         7         3        11     1      121.491249      725.054972
         7         3        22     1      121.222519      411.500033
         8         9        10     1      122.289268      570.744307
         8        24        30     1      110.241234      484.136286
         8        24        31     1      110.241234      484.136286
         8        24        32     1      110.241234      484.136286
         8        29        33     1      110.241234      484.136286
         8        29        34     1      110.241234      484.136286
         8        29        35     1      110.241234      484.136286
         9         1        12     1      120.359337      494.293129
         9         8        24     1      121.213463      481.265915
         9         8        29     1      121.213455      481.265915
        11         3        22     1      117.010254      375.144255
        11         6        23     1      116.623924      348.863217
        13        14        15     1      119.667442      520.914735
        13        14        19     1      119.667435      520.914735
        14        15        16     1      119.723709      708.320951
        14        15        25     1      119.867577      419.809872
        14        19        18     1      119.723709      708.320951
        14        19        28     1      119.867592      419.809904
        15        14        19     1      120.509987      613.874506
        15        16        17     1      119.487167      640.596473
        15        16        26     1      120.379723      412.832559
        16        15        25     1      120.528175      418.035234
        16        17        18     1      120.869644      623.226195
        16        17        20     1      119.533920      384.415374
        17        16        26     1      120.189987      407.550719
        17        18        19     1      119.487167      640.596473
        17        18        27     1      120.189987      407.550719
        18        17        20     1      119.533920      384.415374
        18        19        28     1      120.528175      418.035234
        19        18        27     1      120.379723      412.832559
        24         8        29     1      115.043045      620.890827
        30        24        31     1      108.811813      347.417498
        30        24        32     1      108.811813      347.417498
        31        24        32     1      108.811813      347.417498
        33        29        34     1      108.811813      347.417498
        33        29        35     1      108.811813      347.417498
        34        29        35     1      108.811813      347.417498

[ dihedrals ] ; propers for gromacs 4.5 or higher, use funct 9
;       ai        aj        ak        al funct           phase               k        pn
         1         2         4         5     9        0.000000       -0.294155         1
         1         2         4         5     9      180.000000        6.382374         2
         1         2         4         5     9        0.000000       -1.134104         3
         1         2         4         5     9      180.000000        0.207838         4
         1         2         4         7     9        0.000000        0.235755         1
         1         2         4         7     9      180.000000       20.982001         2
         1         2         4         7     9        0.000000       -5.453296         3
         1         2         4         7     9      180.000000       -0.176838         4
         1         9         8        24     9        0.000000       11.386182         1
         1         9         8        24     9      180.000000       12.701943         2
         1         9         8        24     9        0.000000        0.922293         3
         1         9         8        24     9      180.000000        0.042364         4
         1         9         8        29     9        0.000000       11.386181         1
         1         9         8        29     9      180.000000       12.701942         2
         1         9         8        29     9        0.000000        0.922293         3
         1         9         8        29     9      180.000000        0.042364         4
         1        12         7         3     9        0.000000        0.134710         1
         1        12         7         3     9      180.000000        4.617408         2
         1        12         7         3     9        0.000000       -0.236914         3
         1        12         7         3     9      180.000000        0.203239         4
         1        12         7         4     9        0.000000       -0.609450         1
         1        12         7         4     9      180.000000       23.128725         2
         1        12         7         4     9        0.000000       -5.653975         3
         1        12         7         4     9      180.000000        0.261005         4
         2         1         9         8     9        0.000000        0.196260         1
         2         1         9         8     9      180.000000        3.252732         2
         2         1         9         8     9        0.000000       -0.297053         3
         2         1         9         8     9      180.000000        0.174350         4
         2         1         9        10     9        0.000000        0.794805         1
         2         1         9        10     9      180.000000        1.135838         2
         2         1         9        10     9        0.000000        0.291491         3
         2         1         9        10     9      180.000000        0.120280         4
         2         1        12         7     9        0.000000        0.173861         1
         2         1        12         7     9      180.000000       23.015266         2
         2         1        12         7     9        0.000000       -5.604363         3
         2         1        12         7     9      180.000000       -0.052366         4
         2         4         5         6     9        0.000000        0.131174         1
         2         4         5         6     9      180.000000       10.366847         2
         2         4         5         6     9        0.000000       -0.327226         3
         2         4         5         6     9      180.000000       -0.024860         4
         2         4         5        13     9        0.000000        0.355352         1
         2         4         5        13     9      180.000000       13.408413         2
         2         4         5        13     9        0.000000        0.626368         3
         2         4         5        13     9      180.000000       -0.170682         4
         2         4         7         3     9        0.000000        0.194729         1
         2         4         7         3     9      180.000000       10.975559         2
         2         4         7         3     9        0.000000       -1.777553         3
         2         4         7         3     9      180.000000        0.096574         4
         2         4         7        12     9        0.000000        0.238103         1
         2         4         7        12     9      180.000000       15.289304         2
         2         4         7        12     9        0.000000       -3.270774         3
         2         4         7        12     9      180.000000       -0.350001         4
         3         7         4         5     9        0.000000       -0.205416         1
         3         7         4         5     9      180.000000       11.318989         2
         3         7         4         5     9        0.000000       -1.963037         3
         3         7         4         5     9      180.000000       -0.013028         4
         3        11         6         5     9        0.000000        0.091035         1
         3        11         6         5     9      180.000000       20.836021         2
         3        11         6         5     9        0.000000       -1.014134         3
         3        11         6         5     9      180.000000       -0.038062         4
         3        11         6        23     9        0.000000        0.845563         1
         3        11         6        23     9      180.000000       19.627545         2
         3        11         6        23     9        0.000000        0.146423         3
         3        11         6        23     9      180.000000       -0.265320         4
         4         2         1         9     9        0.000000       -0.166665         1
         4         2         1         9     9      180.000000       19.359988         2
         4         2         1         9     9        0.000000       -0.516414         3
         4         2         1         9     9      180.000000       -1.169094         4
         4         2         1        12     9        0.000000       -0.632453         1
         4         2         1        12     9      180.000000       29.018232         2
         4         2         1        12     9        0.000000       -4.320464         3
         4         2         1        12     9      180.000000       -0.965460         4
         4         5         6        11     9        0.000000        0.014397         1
         4         5         6        11     9      180.000000       18.100109         2
         4         5         6        11     9        0.000000       -0.793754         3
         4         5         6        11     9      180.000000       -0.632883         4
         4         5         6        23     9        0.000000        0.272148         1
         4         5         6        23     9      180.000000       13.822304         2
         4         5         6        23     9        0.000000       -0.214016         3
         4         5         6        23     9      180.000000        0.008311         4
         4         5        13        14     9        0.000000        0.544218         1
         4         5        13        14     9      180.000000        3.839295         2
         4         5        13        14     9        0.000000        0.293761         3
         4         5        13        14     9      180.000000        0.185016         4
         4         7         3        11     9        0.000000        0.026331         1
         4         7         3        11     9      180.000000       16.873853         2
         4         7         3        11     9        0.000000       -0.949134         3
         4         7         3        11     9      180.000000       -0.350336         4
         4         7         3        22     9        0.000000        0.417030         1
         4         7         3        22     9      180.000000       13.019124         2
         4         7         3        22     9        0.000000       -0.192134         3
         4         7         3        22     9      180.000000       -0.028193         4
         5         4         2        21     9        0.000000       -0.275538         1
         5         4         2        21     9      180.000000        6.399506         2
         5         4         2        21     9        0.000000        0.058249         3
         5         4         2        21     9      180.000000        0.029821         4
         5         4         7        12     9        0.000000        0.267261         1
         5         4         7        12     9      180.000000       12.178743         2
         5         4         7        12     9        0.000000       -1.831071         3
         5         4         7        12     9      180.000000       -0.192623         4
         5        13        14        15     9        0.000000        0.077610         1
         5        13        14        15     9      180.000000        3.944704         2
         5        13        14        15     9        0.000000       -0.104996         3
         5        13        14        15     9      180.000000        0.330440         4
         5        13        14        19     9        0.000000        0.077610         1
         5        13        14        19     9      180.000000        3.944705         2
         5        13        14        19     9        0.000000       -0.104996         3
         5        13        14        19     9      180.000000        0.330440         4
         6         5         4         7     9        0.000000       -0.425746         1
         6         5         4         7     9      180.000000       15.007543         2
         6         5         4         7     9        0.000000       -1.317258         3
         6         5         4         7     9      180.000000       -0.252538         4
         6         5        13        14     9        0.000000        1.477696         1
         6         5        13        14     9      180.000000        3.629667         2
         6         5        13        14     9        0.000000       -0.289356         3
         6         5        13        14     9      180.000000        0.216222         4
         6        11         3         7     9        0.000000        0.121273         1
         6        11         3         7     9      180.000000       26.114757         2
         6        11         3         7     9        0.000000       -1.269335         3
         6        11         3         7     9      180.000000       -0.263523         4
         6        11         3        22     9        0.000000        1.307402         1
         6        11         3        22     9      180.000000       22.194711         2
         6        11         3        22     9        0.000000        0.189237         3
         6        11         3        22     9      180.000000       -0.162527         4
         7         4         2        21     9        0.000000        0.775684         1
         7         4         2        21     9      180.000000       10.979919         2
         7         4         2        21     9        0.000000        0.145265         3
         7         4         2        21     9      180.000000       -0.169267         4
         7         4         5        13     9        0.000000        0.211445         1
         7         4         5        13     9      180.000000       15.918193         2
         7         4         5        13     9        0.000000        0.266932         3
         7         4         5        13     9      180.000000       -0.460822         4
         7        12         1         9     9        0.000000        0.072525         1
         7        12         1         9     9      180.000000       11.245720         2
         7        12         1         9     9        0.000000        0.010921         3
         7        12         1         9     9      180.000000       -0.067823         4
         8         9         1        12     9        0.000000        0.505335         1
         8         9         1        12     9      180.000000        5.089649         2
         8         9         1        12     9        0.000000       -0.292205         3
         8         9         1        12     9      180.000000        0.296905         4
         9         1         2        21     9        0.000000        0.031768         1
         9         1         2        21     9      180.000000       13.883579         2
         9         1         2        21     9        0.000000       -0.171927         3
         9         1         2        21     9      180.000000        0.016596         4
         9         8        24        30     9        0.000000       -0.007167         1
         9         8        24        30     9      180.000000        0.025332         2
         9         8        24        30     9        0.000000        0.150983         3
         9         8        24        30     9      180.000000        0.004068         4
         9         8        24        31     9        0.000000       -0.007167         1
         9         8        24        31     9      180.000000        0.025332         2
         9         8        24        31     9        0.000000        0.150983         3
         9         8        24        31     9      180.000000        0.004068         4
         9         8        24        32     9        0.000000       -0.007167         1
         9         8        24        32     9      180.000000        0.025332         2
         9         8        24        32     9        0.000000        0.150983         3
         9         8        24        32     9      180.000000        0.004068         4
         9         8        29        33     9        0.000000       -0.007166         1
         9         8        29        33     9      180.000000        0.025332         2
         9         8        29        33     9        0.000000        0.150983         3
         9         8        29        33     9      180.000000        0.004069         4
         9         8        29        34     9        0.000000       -0.007166         1
         9         8        29        34     9      180.000000        0.025332         2
         9         8        29        34     9        0.000000        0.150983         3
         9         8        29        34     9      180.000000        0.004069         4
         9         8        29        35     9        0.000000       -0.007166         1
         9         8        29        35     9      180.000000        0.025332         2
         9         8        29        35     9        0.000000        0.150983         3
         9         8        29        35     9      180.000000        0.004069         4
        10         9         1        12     9        0.000000       -2.449813         1
        10         9         1        12     9      180.000000        3.082012         2
        10         9         1        12     9        0.000000       -0.098801         3
        10         9         1        12     9      180.000000        0.105149         4
        10         9         8        24     9        0.000000       -1.345604         1
        10         9         8        24     9      180.000000       11.468071         2
        10         9         8        24     9        0.000000       -1.340529         3
        10         9         8        24     9      180.000000       -0.050690         4
        10         9         8        29     9        0.000000       -1.345604         1
        10         9         8        29     9      180.000000       11.468068         2
        10         9         8        29     9        0.000000       -1.340529         3
        10         9         8        29     9      180.000000       -0.050690         4
        11         3         7        12     9        0.000000       -0.478690         1
        11         3         7        12     9      180.000000       12.382772         2
        11         3         7        12     9        0.000000       -0.220636         3
        11         3         7        12     9      180.000000       -0.319539         4
        11         6         5        13     9        0.000000        0.204784         1
        11         6         5        13     9      180.000000       19.416774         2
        11         6         5        13     9        0.000000        0.387032         3
        11         6         5        13     9      180.000000       -0.879380         4
        12         1         2        21     9        0.000000        0.356654         1
        12         1         2        21     9      180.000000       17.376397         2
        12         1         2        21     9        0.000000        0.061919         3
        12         1         2        21     9      180.000000       -0.485578         4
        12         7         3        22     9        0.000000        0.194294         1
        12         7         3        22     9      180.000000       10.700051         2
        12         7         3        22     9        0.000000       -0.036631         3
        12         7         3        22     9      180.000000       -0.060732         4
        13         5         6        23     9        0.000000        0.410659         1
        13         5         6        23     9      180.000000       14.409164         2
        13         5         6        23     9        0.000000        0.285577         3
        13         5         6        23     9      180.000000        0.325128         4
        13        14        15        16     9        0.000000        0.589017         1
        13        14        15        16     9      180.000000       17.872232         2
        13        14        15        16     9        0.000000        0.349645         3
        13        14        15        16     9      180.000000       -0.220762         4
        13        14        15        25     9        0.000000        0.220515         1
        13        14        15        25     9      180.000000       13.622559         2
        13        14        15        25     9        0.000000       -0.010117         3
        13        14        15        25     9      180.000000        0.377402         4
        13        14        19        18     9        0.000000        0.589016         1
        13        14        19        18     9      180.000000       17.872230         2
        13        14        19        18     9        0.000000        0.349645         3
        13        14        19        18     9      180.000000       -0.220761         4
        13        14        19        28     9        0.000000        0.220515         1
        13        14        19        28     9      180.000000       13.622561         2
        13        14        19        28     9        0.000000       -0.010117         3
        13        14        19        28     9      180.000000        0.377402         4
        14        15        16        17     9        0.000000       -0.201586         1
        14        15        16        17     9      180.000000       18.661283         2
        14        15        16        17     9        0.000000       -1.469484         3
        14        15        16        17     9      180.000000       -0.427295         4
        14        15        16        26     9        0.000000       -0.019052         1
        14        15        16        26     9      180.000000       14.606918         2
        14        15        16        26     9        0.000000       -0.546492         3
        14        15        16        26     9      180.000000        0.085665         4
        14        19        18        17     9        0.000000       -0.201587         1
        14        19        18        17     9      180.000000       18.661285         2
        14        19        18        17     9        0.000000       -1.469485         3
        14        19        18        17     9      180.000000       -0.427295         4
        14        19        18        27     9        0.000000       -0.019052         1
        14        19        18        27     9      180.000000       14.606921         2
        14        19        18        27     9        0.000000       -0.546493         3
        14        19        18        27     9      180.000000        0.085665         4
        15        14        19        18     9        0.000000       -0.054778         1
        15        14        19        18     9      180.000000       16.614611         2
        15        14        19        18     9        0.000000       -0.954376         3
        15        14        19        18     9      180.000000       -0.194804         4
        15        14        19        28     9        0.000000        0.159519         1
        15        14        19        28     9      180.000000       12.665239         2
        15        14        19        28     9        0.000000       -0.573802         3
        15        14        19        28     9      180.000000        0.207770         4
        15        16        17        18     9        0.000000       -0.057050         1
        15        16        17        18     9      180.000000       17.886044         2
        15        16        17        18     9        0.000000       -1.288830         3
        15        16        17        18     9      180.000000       -0.385675         4
        15        16        17        20     9        0.000000        0.385935         1
        15        16        17        20     9      180.000000       18.830412         2
        15        16        17        20     9        0.000000        0.183920         3
        15        16        17        20     9      180.000000       -0.516427         4
        16        15        14        19     9        0.000000       -0.054779         1
        16        15        14        19     9      180.000000       16.614611         2
        16        15        14        19     9        0.000000       -0.954376         3
        16        15        14        19     9      180.000000       -0.194804         4
        16        17        18        19     9        0.000000       -0.057049         1
        16        17        18        19     9      180.000000       17.886042         2
        16        17        18        19     9        0.000000       -1.288830         3
        16        17        18        19     9      180.000000       -0.385676         4
        16        17        18        27     9        0.000000        0.006717         1
        16        17        18        27     9      180.000000       13.473108         2
        16        17        18        27     9        0.000000       -0.609135         3
        16        17        18        27     9      180.000000        0.116944         4
        17        16        15        25     9        0.000000        0.106275         1
        17        16        15        25     9      180.000000       14.109168         2
        17        16        15        25     9        0.000000       -0.507462         3
        17        16        15        25     9      180.000000        0.171074         4
        17        18        19        28     9        0.000000        0.106274         1
        17        18        19        28     9      180.000000       14.109167         2
        17        18        19        28     9        0.000000       -0.507462         3
        17        18        19        28     9      180.000000        0.171074         4
        18        17        16        26     9        0.000000        0.006717         1
        18        17        16        26     9      180.000000       13.473108         2
        18        17        16        26     9        0.000000       -0.609135         3
        18        17        16        26     9      180.000000        0.116944         4
        19        14        15        25     9        0.000000        0.159519         1
        19        14        15        25     9      180.000000       12.665239         2
        19        14        15        25     9        0.000000       -0.573802         3
        19        14        15        25     9      180.000000        0.207769         4
        19        18        17        20     9        0.000000        0.385936         1
        19        18        17        20     9      180.000000       18.830414         2
        19        18        17        20     9        0.000000        0.183920         3
        19        18        17        20     9      180.000000       -0.516428         4
        20        17        16        26     9        0.000000        0.197044         1
        20        17        16        26     9      180.000000       13.306968         2
        20        17        16        26     9        0.000000       -0.108280         3
        20        17        16        26     9      180.000000        0.232508         4
        20        17        18        27     9        0.000000        0.197044         1
        20        17        18        27     9      180.000000       13.306968         2
        20        17        18        27     9        0.000000       -0.108280         3
        20        17        18        27     9      180.000000        0.232508         4
        24         8        29        33     9        0.000000       -0.052154         1
        24         8        29        33     9      180.000000        0.076068         2
        24         8        29        33     9        0.000000        1.267285         3
        24         8        29        33     9      180.000000        0.009703         4
        24         8        29        34     9        0.000000       -0.052154         1
        24         8        29        34     9      180.000000        0.076068         2
        24         8        29        34     9        0.000000        1.267285         3
        24         8        29        34     9      180.000000        0.009703         4
        24         8        29        35     9        0.000000       -0.052154         1
        24         8        29        35     9      180.000000        0.076068         2
        24         8        29        35     9        0.000000        1.267285         3
        24         8        29        35     9      180.000000        0.009703         4
        25        15        16        26     9        0.000000       -0.188408         1
        25        15        16        26     9      180.000000       11.950093         2
        25        15        16        26     9        0.000000       -0.745771         3
        25        15        16        26     9      180.000000        0.280500         4
        27        18        19        28     9        0.000000       -0.188408         1
        27        18        19        28     9      180.000000       11.950092         2
        27        18        19        28     9        0.000000       -0.745770         3
        27        18        19        28     9      180.000000        0.280500         4
        29         8        24        30     9        0.000000       -0.052155         1
        29         8        24        30     9      180.000000        0.076068         2
        29         8        24        30     9        0.000000        1.267285         3
        29         8        24        30     9      180.000000        0.009703         4
        29         8        24        31     9        0.000000       -0.052155         1
        29         8        24        31     9      180.000000        0.076068         2
        29         8        24        31     9        0.000000        1.267285         3
        29         8        24        31     9      180.000000        0.009703         4
        29         8        24        32     9        0.000000       -0.052155         1
        29         8        24        32     9      180.000000        0.076068         2
        29         8        24        32     9        0.000000        1.267285         3
        29         8        24        32     9      180.000000        0.009703         4

[ dihedrals ] ; impropers
;       ai        aj        ak        al funct           phase               k        pn
         3         7        11        22     4      180.000000        3.741341         2
         3        11        22         7     4      180.000000        3.741341         2
         3        22         7        11     4      180.000000        3.741341         2
         6         5        11        23     4      180.000000        0.582472         2
         6        11        23         5     4      180.000000        0.582472         2
         6        23         5        11     4      180.000000        0.582472         2

[ pairs ]
;       ai        aj funct
         1         3     1
         1         5     1
         1        24     1
         1        29     1
         2         3     1
         2         6     1
         2         8     1
         2        10     1
         2        13     1
         3         5     1
         3        23     1
         4         9     1
         4        11     1
         4        14     1
         4        22     1
         4        23     1
         5        12     1
         5        15     1
         5        19     1
         5        21     1
         6         7     1
         6        14     1
         6        22     1
         7         9     1
         7        13     1
         7        21     1
         8        12     1
         9        21     1
         9        30     1
         9        31     1
         9        32     1
         9        33     1
         9        34     1
         9        35     1
        10        12     1
        10        24     1
        10        29     1
        11        12     1
        11        13     1
        12        21     1
        12        22     1
        13        16     1
        13        18     1
        13        23     1
        13        25     1
        13        28     1
        14        17     1
        14        26     1
        14        27     1
        15        18     1
        15        20     1
        15        28     1
        16        19     1
        16        27     1
        17        25     1
        17        28     1
        18        26     1
        19        20     1
        19        25     1
        20        26     1
        20        27     1
        24        33     1
        24        34     1
        24        35     1
        25        26     1
        27        28     1
        29        30     1
        29        31     1
        29        32     1
