; ITP file created by ByteFF-ML, 2025-12-06 07:50:35.645172

[ atomtypes ]
;name           bonded.type        at.num        mass        charge   ptype           sigma         epsilon
 c0bf                                   6      0.0000       0.00000       A     3.31100e-01     4.14309e-01
 c1bf                                   6      0.0000       0.00000       A     3.31309e-01     4.13433e-01
 c2bf                                   6      0.0000       0.00000       A     3.31525e-01     4.10000e-01
 c3bf                                   6      0.0000       0.00000       A     3.31438e-01     4.14290e-01
 c4bf                                   6      0.0000       0.00000       A     3.31622e-01     4.12838e-01
 c5bf                                   6      0.0000       0.00000       A     3.31441e-01     4.15640e-01
 c6bf                                   6      0.0000       0.00000       A     3.31310e-01     4.10172e-01
 n7bf                                   7      0.0000       0.00000       A     3.27053e-01     4.89208e-01
 c8bf                                   6      0.0000       0.00000       A     3.31540e-01     4.13304e-01
 o9bf                                   8      0.0000       0.00000       A     3.04763e-01     6.10129e-01
 n10bf                                  7      0.0000       0.00000       A     3.38364e-01     3.93072e-01
 s11bf                                 16      0.0000       0.00000       A     3.53500e-01     1.17936e+00
 o12bf                                  8      0.0000       0.00000       A     3.15922e-01     3.07350e-01
 c13bf                                  6      0.0000       0.00000       A     3.31520e-01     4.13050e-01
 c14bf                                  6      0.0000       0.00000       A     3.31506e-01     4.13157e-01
 c15bf                                  6      0.0000       0.00000       A     3.31466e-01     4.12724e-01
 c16bf                                  6      0.0000       0.00000       A     3.31470e-01     4.13128e-01
 c17bf                                  6      0.0000       0.00000       A     3.31466e-01     4.12724e-01
 c18bf                                  6      0.0000       0.00000       A     3.31505e-01     4.13157e-01
 cl19bf                                17      0.0000       0.00000       A     3.46712e-01     1.10479e+00
 h20bf                                  1      0.0000       0.00000       A     2.62855e-01     6.65242e-02
 h21bf                                  1      0.0000       0.00000       A     2.53541e-01     6.74259e-02
 h22bf                                  1      0.0000       0.00000       A     2.53502e-01     6.70126e-02
 h23bf                                  1      0.0000       0.00000       A     2.62481e-01     6.70381e-02
 h24bf                                  1      0.0000       0.00000       A     2.62516e-01     6.71482e-02
 h25bf                                  1      0.0000       0.00000       A     2.62516e-01     6.71482e-02
 h26bf                                  1      0.0000       0.00000       A     2.62481e-01     6.70381e-02
 h27bf                                  1      0.0000       0.00000       A     2.42535e-01     8.78046e-02
 h28bf                                  1      0.0000       0.00000       A     1.10371e-01     4.06678e-02
 c29bf                                  6      0.0000       0.00000       A     3.39776e-01     4.48768e-01
 h30bf                                  1      0.0000       0.00000       A     2.42535e-01     8.78046e-02
 c31bf                                  6      0.0000       0.00000       A     3.39794e-01     4.51753e-01
 h32bf                                  1      0.0000       0.00000       A     2.59978e-01     8.71725e-02
 h33bf                                  1      0.0000       0.00000       A     2.59978e-01     8.71725e-02
 h34bf                                  1      0.0000       0.00000       A     2.59978e-01     8.71725e-02

[ moleculetype ]
;name             nrexcl
 16                    3

[ atoms ]
;       nr            type      resi   res      atom      cgnr      charge          mass ; qtot
         1            c0bf         1   UNL        c0         1    -0.12541       12.0110 ; qtot   -0.125
         2            c1bf         1   UNL        c1         2    -0.09054       12.0110 ; qtot   -0.216
         3            c2bf         1   UNL        c2         3     0.36633       12.0110 ; qtot    0.150
         4            c3bf         1   UNL        c3         4    -0.07201       12.0110 ; qtot    0.078
         5            c4bf         1   UNL        c4         5     0.10663       12.0110 ; qtot    0.185
         6            c5bf         1   UNL        c5         6     0.29008       12.0110 ; qtot    0.475
         7            c6bf         1   UNL        c6         7    -0.19484       12.0110 ; qtot    0.280
         8            n7bf         1   UNL        n7         8    -0.50426       14.0070 ; qtot   -0.224
         9            c8bf         1   UNL        c8         9     0.62883       12.0110 ; qtot    0.405
        10            o9bf         1   UNL        o9        10    -0.59179       15.9990 ; qtot   -0.187
        11           n10bf         1   UNL       n10        11    -0.63032       14.0070 ; qtot   -0.817
        12           s11bf         1   UNL       s11        12     0.11972       32.0670 ; qtot   -0.698
        13           o12bf         1   UNL       o12        13    -0.24220       15.9990 ; qtot   -0.940
        14           c13bf         1   UNL       c13        14     0.11228       12.0110 ; qtot   -0.828
        15           c14bf         1   UNL       c14        15    -0.13022       12.0110 ; qtot   -0.958
        16           c15bf         1   UNL       c15        16    -0.08023       12.0110 ; qtot   -1.038
        17           c16bf         1   UNL       c16        17     0.10524       12.0110 ; qtot   -0.933
        18           c17bf         1   UNL       c17        18    -0.08023       12.0110 ; qtot   -1.013
        19           c18bf         1   UNL       c18        19    -0.13022       12.0110 ; qtot   -1.143
        20          cl19bf         1   UNL      cl19        20    -0.21044       35.4530 ; qtot   -1.354
        21           h20bf         1   UNL       h20        21     0.21311        1.0080 ; qtot   -1.140
        22           h21bf         1   UNL       h21        22     0.02973        1.0080 ; qtot   -1.111
        23           h22bf         1   UNL       h22        23     0.03579        1.0080 ; qtot   -1.075
        24           h23bf         1   UNL       h23        24     0.13537        1.0080 ; qtot   -0.940
        25           h24bf         1   UNL       h24        25     0.13654        1.0080 ; qtot   -0.803
        26           h25bf         1   UNL       h25        26     0.13654        1.0080 ; qtot   -0.667
        27           h26bf         1   UNL       h26        27     0.13537        1.0080 ; qtot   -0.531
        28           h27bf         1   UNL       h27        28     0.05549        1.0080 ; qtot   -0.476
        29           h28bf         1   UNL       h28        29     0.31289        1.0080 ; qtot   -0.163
        30           c29bf         1   UNL       c29        30     0.09416       12.0110 ; qtot   -0.069
        31           h30bf         1   UNL       h30        31     0.05549        1.0080 ; qtot   -0.013
        32           c31bf         1   UNL       c31        32    -0.11584       12.0110 ; qtot   -0.129
        33           h32bf         1   UNL       h32        33     0.04299        1.0080 ; qtot   -0.086
        34           h33bf         1   UNL       h33        34     0.04299        1.0080 ; qtot   -0.043
        35           h34bf         1   UNL       h34        35     0.04298        1.0080 ; qtot   -0.000

[ bonds ]
;       ai        aj funct               r               k
         1         2     1        0.136856   387272.178955
         1         9     1        0.149030   188145.547119
         1        12     1        0.175858   140269.315039
         2         4     1        0.143065   256055.973486
         2        21     1        0.108355   330241.965723
         3         7     1        0.140311   288300.302490
         3        11     1        0.133233   334049.344434
         3        22     1        0.108847   314136.349268
         4         5     1        0.141044   277237.320264
         4         7     1        0.141571   258362.255371
         5         6     1        0.139269   298045.672021
         5        13     1        0.137783   248400.535449
         6        11     1        0.134797   300411.123389
         6        23     1        0.108641   319784.519434
         7        12     1        0.174975   154714.291577
         8         9     1        0.137008   295786.123047
         8        29     1        0.101110   423891.423389
         8        30     1        0.146229   205061.047461
         9        10     1        0.123319   590102.994043
        13        14     1        0.138588   236585.178906
        14        15     1        0.139759   296218.925977
        14        19     1        0.139759   296218.951514
        15        16     1        0.139665   318077.797803
        15        24     1        0.108472   324415.469922
        16        17     1        0.139679   300422.793848
        16        25     1        0.108460   325418.363281
        17        18     1        0.139679   300422.793848
        17        20     1        0.175851   148359.752197
        18        19     1        0.139665   318077.823340
        18        26     1        0.108460   325418.388818
        19        27     1        0.108472   324415.469922
        28        30     1        0.109279   301638.819922
        30        31     1        0.109279   301638.819922
        30        32     1        0.153058   192512.622656
        32        33     1        0.109392   301377.268848
        32        34     1        0.109392   301377.268848
        32        35     1        0.109392   301377.268848

[ angles ]
;       ai        aj        ak funct           theta             cth
         1         2         4     1      112.649246      399.375460
         1         2        21     1      123.021339      389.434981
         1         9         8     1      116.140907      464.606143
         1         9        10     1      120.744873      547.142464
         1        12         7     1       90.364151      454.865141
         2         1         9     1      127.167770      432.851035
         2         1        12     1      112.896866      167.360000
         2         4         5     1      130.179764      398.477384
         2         4         7     1      112.193687      476.283178
         3         7         4     1      120.408531      716.641963
         3         7        12     1      127.897171      370.283808
         3        11         6     1      118.900452      558.108929
         4         2        21     1      124.310837      385.847847
         4         5         6     1      118.637917      678.036812
         4         5        13     1      118.276077      442.150214
         4         7        12     1      111.576721      167.360000
         5         4         7     1      116.980637      712.224362
         5         6        11     1      123.409790      692.540678
         5         6        23     1      119.877098      410.591869
         5        13        14     1      118.500870      426.571556
         6         5        13     1      122.139931      548.863857
         7         3        11     1      121.491249      725.054972
         7         3        22     1      121.222519      411.500033
         8         9        10     1      122.761642      584.115027
         8        30        28     1      107.616409      532.199233
         8        30        31     1      107.616409      532.199233
         8        30        32     1      112.173416      633.282071
         9         1        12     1      120.248581      496.425254
         9         8        29     1      118.184654      419.682282
         9         8        30     1      121.465210      531.149658
        11         3        22     1      117.010254      375.144223
        11         6        23     1      116.623924      348.863217
        13        14        15     1      119.667442      520.914735
        13        14        19     1      119.667435      520.914735
        14        15        16     1      119.723709      708.320951
        14        15        24     1      119.867577      419.809872
        14        19        18     1      119.723709      708.320951
        14        19        27     1      119.867577      419.809904
        15        14        19     1      120.509987      613.874442
        15        16        17     1      119.487167      640.596410
        15        16        25     1      120.379723      412.832559
        16        15        24     1      120.528175      418.035234
        16        17        18     1      120.869644      623.226195
        16        17        20     1      119.533920      384.415374
        17        16        25     1      120.189987      407.550719
        17        18        19     1      119.487167      640.596473
        17        18        26     1      120.189987      407.550719
        18        17        20     1      119.533920      384.415374
        18        19        27     1      120.528175      418.035234
        19        18        26     1      120.379723      412.832559
        28        30        31     1      107.437271      348.618476
        28        30        32     1      110.540649      480.883784
        29         8        30     1      117.838242      426.053184
        30        32        33     1      110.662926      497.250262
        30        32        34     1      110.662926      497.250262
        30        32        35     1      110.662926      497.250262
        31        30        32     1      110.540649      480.883784
        33        32        34     1      108.255531      362.866938
        33        32        35     1      108.255531      362.866938
        34        32        35     1      108.255531      362.866938

[ dihedrals ] ; propers for gromacs 4.5 or higher, use funct 9
;       ai        aj        ak        al funct           phase               k        pn
         1         2         4         5     9        0.000000       -0.381187         1
         1         2         4         5     9      180.000000        6.215408         2
         1         2         4         5     9        0.000000       -1.113143         3
         1         2         4         5     9      180.000000        0.223736         4
         1         2         4         7     9        0.000000        0.232868         1
         1         2         4         7     9      180.000000       20.633980         2
         1         2         4         7     9        0.000000       -5.619279         3
         1         2         4         7     9      180.000000       -0.055067         4
         1         9         8        29     9        0.000000        0.079681         1
         1         9         8        29     9      180.000000       10.294358         2
         1         9         8        29     9        0.000000        0.340432         3
         1         9         8        29     9      180.000000        0.560651         4
         1         9         8        30     9        0.000000        2.160419         1
         1         9         8        30     9      180.000000       10.723736         2
         1         9         8        30     9        0.000000        0.725219         3
         1         9         8        30     9      180.000000        0.057819         4
         1        12         7         3     9        0.000000        0.007044         1
         1        12         7         3     9      180.000000        4.555680         2
         1        12         7         3     9        0.000000       -0.171460         3
         1        12         7         3     9      180.000000        0.209958         4
         1        12         7         4     9        0.000000       -0.563481         1
         1        12         7         4     9      180.000000       23.154669         2
         1        12         7         4     9        0.000000       -5.536280         3
         1        12         7         4     9      180.000000        0.212262         4
         2         1         9         8     9        0.000000       -0.161201         1
         2         1         9         8     9      180.000000        2.144581         2
         2         1         9         8     9        0.000000        0.140967         3
         2         1         9         8     9      180.000000       -0.490765         4
         2         1         9        10     9        0.000000        1.181605         1
         2         1         9        10     9      180.000000        2.625382         2
         2         1         9        10     9        0.000000        0.257515         3
         2         1         9        10     9      180.000000        0.209520         4
         2         1        12         7     9        0.000000        0.250946         1
         2         1        12         7     9      180.000000       23.447587         2
         2         1        12         7     9        0.000000       -5.963778         3
         2         1        12         7     9      180.000000        0.003653         4
         2         4         5         6     9        0.000000        0.121383         1
         2         4         5         6     9      180.000000       10.359549         2
         2         4         5         6     9        0.000000       -0.279413         3
         2         4         5         6     9      180.000000       -0.024298         4
         2         4         5        13     9        0.000000        0.384556         1
         2         4         5        13     9      180.000000       13.325856         2
         2         4         5        13     9        0.000000        0.588168         3
         2         4         5        13     9      180.000000       -0.158024         4
         2         4         7         3     9        0.000000        0.167382         1
         2         4         7         3     9      180.000000       10.949795         2
         2         4         7         3     9        0.000000       -1.747926         3
         2         4         7         3     9      180.000000        0.086989         4
         2         4         7        12     9        0.000000        0.216182         1
         2         4         7        12     9      180.000000       15.205468         2
         2         4         7        12     9        0.000000       -3.200352         3
         2         4         7        12     9      180.000000       -0.353683         4
         3         7         4         5     9        0.000000       -0.205416         1
         3         7         4         5     9      180.000000       11.318989         2
         3         7         4         5     9        0.000000       -1.963037         3
         3         7         4         5     9      180.000000       -0.013028         4
         3        11         6         5     9        0.000000        0.091035         1
         3        11         6         5     9      180.000000       20.836021         2
         3        11         6         5     9        0.000000       -1.014134         3
         3        11         6         5     9      180.000000       -0.038062         4
         3        11         6        23     9        0.000000        0.845563         1
         3        11         6        23     9      180.000000       19.627545         2
         3        11         6        23     9        0.000000        0.146423         3
         3        11         6        23     9      180.000000       -0.265320         4
         4         2         1         9     9        0.000000        0.085787         1
         4         2         1         9     9      180.000000       19.875091         2
         4         2         1         9     9        0.000000       -0.612096         3
         4         2         1         9     9      180.000000       -1.152769         4
         4         2         1        12     9        0.000000       -0.572167         1
         4         2         1        12     9      180.000000       29.070380         2
         4         2         1        12     9        0.000000       -4.518963         3
         4         2         1        12     9      180.000000       -0.946315         4
         4         5         6        11     9        0.000000        0.014397         1
         4         5         6        11     9      180.000000       18.100109         2
         4         5         6        11     9        0.000000       -0.793754         3
         4         5         6        11     9      180.000000       -0.632883         4
         4         5         6        23     9        0.000000        0.272148         1
         4         5         6        23     9      180.000000       13.822304         2
         4         5         6        23     9        0.000000       -0.214016         3
         4         5         6        23     9      180.000000        0.008311         4
         4         5        13        14     9        0.000000        0.544218         1
         4         5        13        14     9      180.000000        3.839295         2
         4         5        13        14     9        0.000000        0.293761         3
         4         5        13        14     9      180.000000        0.185016         4
         4         7         3        11     9        0.000000        0.026331         1
         4         7         3        11     9      180.000000       16.873853         2
         4         7         3        11     9        0.000000       -0.949134         3
         4         7         3        11     9      180.000000       -0.350336         4
         4         7         3        22     9        0.000000        0.417030         1
         4         7         3        22     9      180.000000       13.019124         2
         4         7         3        22     9        0.000000       -0.192134         3
         4         7         3        22     9      180.000000       -0.028193         4
         5         4         2        21     9        0.000000       -0.281654         1
         5         4         2        21     9      180.000000        6.507792         2
         5         4         2        21     9        0.000000        0.069494         3
         5         4         2        21     9      180.000000        0.029081         4
         5         4         7        12     9        0.000000        0.235852         1
         5         4         7        12     9      180.000000       12.117901         2
         5         4         7        12     9        0.000000       -1.817687         3
         5         4         7        12     9      180.000000       -0.178793         4
         5        13        14        15     9        0.000000        0.077610         1
         5        13        14        15     9      180.000000        3.944704         2
         5        13        14        15     9        0.000000       -0.104996         3
         5        13        14        15     9      180.000000        0.330440         4
         5        13        14        19     9        0.000000        0.077610         1
         5        13        14        19     9      180.000000        3.944705         2
         5        13        14        19     9        0.000000       -0.104996         3
         5        13        14        19     9      180.000000        0.330440         4
         6         5         4         7     9        0.000000       -0.425746         1
         6         5         4         7     9      180.000000       15.007543         2
         6         5         4         7     9        0.000000       -1.317258         3
         6         5         4         7     9      180.000000       -0.252538         4
         6         5        13        14     9        0.000000        1.477696         1
         6         5        13        14     9      180.000000        3.629667         2
         6         5        13        14     9        0.000000       -0.289356         3
         6         5        13        14     9      180.000000        0.216222         4
         6        11         3         7     9        0.000000        0.121273         1
         6        11         3         7     9      180.000000       26.114757         2
         6        11         3         7     9        0.000000       -1.269335         3
         6        11         3         7     9      180.000000       -0.263523         4
         6        11         3        22     9        0.000000        1.307402         1
         6        11         3        22     9      180.000000       22.194711         2
         6        11         3        22     9        0.000000        0.189237         3
         6        11         3        22     9      180.000000       -0.162527         4
         7         4         2        21     9        0.000000        0.665581         1
         7         4         2        21     9      180.000000       11.037114         2
         7         4         2        21     9        0.000000        0.114906         3
         7         4         2        21     9      180.000000       -0.155753         4
         7         4         5        13     9        0.000000        0.211445         1
         7         4         5        13     9      180.000000       15.918193         2
         7         4         5        13     9        0.000000        0.266932         3
         7         4         5        13     9      180.000000       -0.460822         4
         7        12         1         9     9        0.000000       -0.123518         1
         7        12         1         9     9      180.000000       12.778123         2
         7        12         1         9     9        0.000000       -0.264876         3
         7        12         1         9     9      180.000000       -0.230835         4
         8         9         1        12     9        0.000000        1.301921         1
         8         9         1        12     9      180.000000        3.230857         2
         8         9         1        12     9        0.000000        0.404676         3
         8         9         1        12     9      180.000000       -0.570172         4
         8        30        32        33     9        0.000000        0.045435         1
         8        30        32        33     9      180.000000        0.089730         2
         8        30        32        33     9        0.000000        0.596853         3
         8        30        32        33     9      180.000000        0.011965         4
         8        30        32        34     9        0.000000        0.045435         1
         8        30        32        34     9      180.000000        0.089730         2
         8        30        32        34     9        0.000000        0.596853         3
         8        30        32        34     9      180.000000        0.011965         4
         8        30        32        35     9        0.000000        0.045435         1
         8        30        32        35     9      180.000000        0.089730         2
         8        30        32        35     9        0.000000        0.596853         3
         8        30        32        35     9      180.000000        0.011965         4
         9         1         2        21     9        0.000000        0.263826         1
         9         1         2        21     9      180.000000       14.699256         2
         9         1         2        21     9        0.000000       -0.049023         3
         9         1         2        21     9      180.000000       -0.158214         4
         9         8        30        28     9        0.000000        0.314621         1
         9         8        30        28     9      180.000000        0.158290         2
         9         8        30        28     9        0.000000        0.302647         3
         9         8        30        28     9      180.000000        0.060752         4
         9         8        30        31     9        0.000000        0.314621         1
         9         8        30        31     9      180.000000        0.158290         2
         9         8        30        31     9        0.000000        0.302647         3
         9         8        30        31     9      180.000000        0.060752         4
         9         8        30        32     9        0.000000       -0.836253         1
         9         8        30        32     9      180.000000       -0.402270         2
         9         8        30        32     9        0.000000        0.558637         3
         9         8        30        32     9      180.000000       -0.163035         4
        10         9         1        12     9        0.000000       -1.890181         1
        10         9         1        12     9      180.000000        4.184962         2
        10         9         1        12     9        0.000000       -0.060873         3
        10         9         1        12     9      180.000000        0.081305         4
        10         9         8        29     9        0.000000       -0.278209         1
        10         9         8        29     9      180.000000        9.921096         2
        10         9         8        29     9        0.000000        0.288494         3
        10         9         8        29     9      180.000000        0.041551         4
        10         9         8        30     9        0.000000       -2.536052         1
        10         9         8        30     9      180.000000        7.881300         2
        10         9         8        30     9        0.000000        0.405332         3
        10         9         8        30     9      180.000000       -0.490635         4
        11         3         7        12     9        0.000000       -0.524799         1
        11         3         7        12     9      180.000000       12.221104         2
        11         3         7        12     9        0.000000       -0.220206         3
        11         3         7        12     9      180.000000       -0.304199         4
        11         6         5        13     9        0.000000        0.204784         1
        11         6         5        13     9      180.000000       19.416774         2
        11         6         5        13     9        0.000000        0.387032         3
        11         6         5        13     9      180.000000       -0.879380         4
        12         1         2        21     9        0.000000        0.279617         1
        12         1         2        21     9      180.000000       17.443843         2
        12         1         2        21     9        0.000000       -0.135406         3
        12         1         2        21     9      180.000000       -0.525864         4
        12         7         3        22     9        0.000000        0.189556         1
        12         7         3        22     9      180.000000       10.590982         2
        12         7         3        22     9        0.000000       -0.025059         3
        12         7         3        22     9      180.000000       -0.067887         4
        13         5         6        23     9        0.000000        0.410659         1
        13         5         6        23     9      180.000000       14.409164         2
        13         5         6        23     9        0.000000        0.285577         3
        13         5         6        23     9      180.000000        0.325128         4
        13        14        15        16     9        0.000000        0.589017         1
        13        14        15        16     9      180.000000       17.872232         2
        13        14        15        16     9        0.000000        0.349645         3
        13        14        15        16     9      180.000000       -0.220762         4
        13        14        15        24     9        0.000000        0.220515         1
        13        14        15        24     9      180.000000       13.622559         2
        13        14        15        24     9        0.000000       -0.010117         3
        13        14        15        24     9      180.000000        0.377402         4
        13        14        19        18     9        0.000000        0.589016         1
        13        14        19        18     9      180.000000       17.872230         2
        13        14        19        18     9        0.000000        0.349645         3
        13        14        19        18     9      180.000000       -0.220761         4
        13        14        19        27     9        0.000000        0.220516         1
        13        14        19        27     9      180.000000       13.622559         2
        13        14        19        27     9        0.000000       -0.010117         3
        13        14        19        27     9      180.000000        0.377403         4
        14        15        16        17     9        0.000000       -0.201586         1
        14        15        16        17     9      180.000000       18.661283         2
        14        15        16        17     9        0.000000       -1.469484         3
        14        15        16        17     9      180.000000       -0.427295         4
        14        15        16        25     9        0.000000       -0.019052         1
        14        15        16        25     9      180.000000       14.606918         2
        14        15        16        25     9        0.000000       -0.546492         3
        14        15        16        25     9      180.000000        0.085665         4
        14        19        18        17     9        0.000000       -0.201587         1
        14        19        18        17     9      180.000000       18.661285         2
        14        19        18        17     9        0.000000       -1.469485         3
        14        19        18        17     9      180.000000       -0.427295         4
        14        19        18        26     9        0.000000       -0.019052         1
        14        19        18        26     9      180.000000       14.606921         2
        14        19        18        26     9        0.000000       -0.546493         3
        14        19        18        26     9      180.000000        0.085665         4
        15        14        19        18     9        0.000000       -0.054778         1
        15        14        19        18     9      180.000000       16.614611         2
        15        14        19        18     9        0.000000       -0.954376         3
        15        14        19        18     9      180.000000       -0.194804         4
        15        14        19        27     9        0.000000        0.159519         1
        15        14        19        27     9      180.000000       12.665240         2
        15        14        19        27     9        0.000000       -0.573802         3
        15        14        19        27     9      180.000000        0.207769         4
        15        16        17        18     9        0.000000       -0.057050         1
        15        16        17        18     9      180.000000       17.886044         2
        15        16        17        18     9        0.000000       -1.288830         3
        15        16        17        18     9      180.000000       -0.385675         4
        15        16        17        20     9        0.000000        0.385935         1
        15        16        17        20     9      180.000000       18.830412         2
        15        16        17        20     9        0.000000        0.183920         3
        15        16        17        20     9      180.000000       -0.516427         4
        16        15        14        19     9        0.000000       -0.054779         1
        16        15        14        19     9      180.000000       16.614611         2
        16        15        14        19     9        0.000000       -0.954376         3
        16        15        14        19     9      180.000000       -0.194804         4
        16        17        18        19     9        0.000000       -0.057049         1
        16        17        18        19     9      180.000000       17.886042         2
        16        17        18        19     9        0.000000       -1.288830         3
        16        17        18        19     9      180.000000       -0.385676         4
        16        17        18        26     9        0.000000        0.006717         1
        16        17        18        26     9      180.000000       13.473108         2
        16        17        18        26     9        0.000000       -0.609135         3
        16        17        18        26     9      180.000000        0.116944         4
        17        16        15        24     9        0.000000        0.106275         1
        17        16        15        24     9      180.000000       14.109168         2
        17        16        15        24     9        0.000000       -0.507462         3
        17        16        15        24     9      180.000000        0.171074         4
        17        18        19        27     9        0.000000        0.106275         1
        17        18        19        27     9      180.000000       14.109168         2
        17        18        19        27     9        0.000000       -0.507462         3
        17        18        19        27     9      180.000000        0.171074         4
        18        17        16        25     9        0.000000        0.006717         1
        18        17        16        25     9      180.000000       13.473108         2
        18        17        16        25     9        0.000000       -0.609135         3
        18        17        16        25     9      180.000000        0.116944         4
        19        14        15        24     9        0.000000        0.159519         1
        19        14        15        24     9      180.000000       12.665239         2
        19        14        15        24     9        0.000000       -0.573802         3
        19        14        15        24     9      180.000000        0.207769         4
        19        18        17        20     9        0.000000        0.385936         1
        19        18        17        20     9      180.000000       18.830414         2
        19        18        17        20     9        0.000000        0.183920         3
        19        18        17        20     9      180.000000       -0.516428         4
        20        17        16        25     9        0.000000        0.197044         1
        20        17        16        25     9      180.000000       13.306968         2
        20        17        16        25     9        0.000000       -0.108280         3
        20        17        16        25     9      180.000000        0.232508         4
        20        17        18        26     9        0.000000        0.197044         1
        20        17        18        26     9      180.000000       13.306968         2
        20        17        18        26     9        0.000000       -0.108280         3
        20        17        18        26     9      180.000000        0.232508         4
        24        15        16        25     9        0.000000       -0.188408         1
        24        15        16        25     9      180.000000       11.950093         2
        24        15        16        25     9        0.000000       -0.745771         3
        24        15        16        25     9      180.000000        0.280500         4
        26        18        19        27     9        0.000000       -0.188409         1
        26        18        19        27     9      180.000000       11.950092         2
        26        18        19        27     9        0.000000       -0.745771         3
        26        18        19        27     9      180.000000        0.280500         4
        28        30         8        29     9        0.000000       -0.025329         1
        28        30         8        29     9      180.000000        0.196741         2
        28        30         8        29     9        0.000000        0.302814         3
        28        30         8        29     9      180.000000        0.099993         4
        28        30        32        33     9        0.000000       -0.041739         1
        28        30        32        33     9      180.000000        0.034994         2
        28        30        32        33     9        0.000000        0.584554         3
        28        30        32        33     9      180.000000        0.018133         4
        28        30        32        34     9        0.000000       -0.041739         1
        28        30        32        34     9      180.000000        0.034994         2
        28        30        32        34     9        0.000000        0.584554         3
        28        30        32        34     9      180.000000        0.018133         4
        28        30        32        35     9        0.000000       -0.041739         1
        28        30        32        35     9      180.000000        0.034994         2
        28        30        32        35     9        0.000000        0.584554         3
        28        30        32        35     9      180.000000        0.018133         4
        29         8        30        31     9        0.000000       -0.025329         1
        29         8        30        31     9      180.000000        0.196741         2
        29         8        30        31     9        0.000000        0.302814         3
        29         8        30        31     9      180.000000        0.099993         4
        29         8        30        32     9        0.000000        0.400764         1
        29         8        30        32     9      180.000000       -0.651973         2
        29         8        30        32     9        0.000000        0.267908         3
        29         8        30        32     9      180.000000       -0.084093         4
        31        30        32        33     9        0.000000       -0.041739         1
        31        30        32        33     9      180.000000        0.034994         2
        31        30        32        33     9        0.000000        0.584554         3
        31        30        32        33     9      180.000000        0.018133         4
        31        30        32        34     9        0.000000       -0.041739         1
        31        30        32        34     9      180.000000        0.034994         2
        31        30        32        34     9        0.000000        0.584554         3
        31        30        32        34     9      180.000000        0.018133         4
        31        30        32        35     9        0.000000       -0.041739         1
        31        30        32        35     9      180.000000        0.034994         2
        31        30        32        35     9        0.000000        0.584554         3
        31        30        32        35     9      180.000000        0.018133         4

[ dihedrals ] ; impropers
;       ai        aj        ak        al funct           phase               k        pn
         3         7        11        22     4      180.000000        3.741341         2
         3        11        22         7     4      180.000000        3.741341         2
         3        22         7        11     4      180.000000        3.741341         2
         6         5        11        23     4      180.000000        0.582472         2
         6        11        23         5     4      180.000000        0.582472         2
         6        23         5        11     4      180.000000        0.582472         2
         9         1         8        10     4      180.000000       25.165927         2
         9         8        10         1     4      180.000000       25.165927         2
         9        10         1         8     4      180.000000       25.165927         2

[ pairs ]
;       ai        aj funct
         1         3     1
         1         5     1
         1        29     1
         1        30     1
         2         3     1
         2         6     1
         2         8     1
         2        10     1
         2        13     1
         3         5     1
         3        23     1
         4         9     1
         4        11     1
         4        14     1
         4        22     1
         4        23     1
         5        12     1
         5        15     1
         5        19     1
         5        21     1
         6         7     1
         6        14     1
         6        22     1
         7         9     1
         7        13     1
         7        21     1
         8        12     1
         8        33     1
         8        34     1
         8        35     1
         9        21     1
         9        28     1
         9        31     1
         9        32     1
        10        12     1
        10        29     1
        10        30     1
        11        12     1
        11        13     1
        12        21     1
        12        22     1
        13        16     1
        13        18     1
        13        23     1
        13        24     1
        13        27     1
        14        17     1
        14        25     1
        14        26     1
        15        18     1
        15        20     1
        15        27     1
        16        19     1
        16        26     1
        17        24     1
        17        27     1
        18        25     1
        19        20     1
        19        24     1
        20        25     1
        20        26     1
        24        25     1
        26        27     1
        28        29     1
        28        33     1
        28        34     1
        28        35     1
        29        31     1
        29        32     1
        31        33     1
        31        34     1
        31        35     1
