; ITP file created by ByteFF-ML, 2025-12-06 07:51:04.241453

[ atomtypes ]
;name           bonded.type        at.num        mass        charge   ptype           sigma         epsilon
 c0bf                                   6      0.0000       0.00000       A     3.31357e-01     4.11791e-01
 c1bf                                   6      0.0000       0.00000       A     3.31405e-01     4.12435e-01
 c2bf                                   6      0.0000       0.00000       A     3.31525e-01     4.10000e-01
 c3bf                                   6      0.0000       0.00000       A     3.31495e-01     4.14542e-01
 c4bf                                   6      0.0000       0.00000       A     3.31622e-01     4.12838e-01
 c5bf                                   6      0.0000       0.00000       A     3.31441e-01     4.15640e-01
 c6bf                                   6      0.0000       0.00000       A     3.31300e-01     4.10286e-01
 c7bf                                   6      0.0000       0.00000       A     3.39784e-01     4.50807e-01
 c8bf                                   6      0.0000       0.00000       A     3.31577e-01     4.14282e-01
 o9bf                                   8      0.0000       0.00000       A     3.04557e-01     6.10991e-01
 n10bf                                  7      0.0000       0.00000       A     3.38364e-01     3.93072e-01
 s11bf                                 16      0.0000       0.00000       A     3.53435e-01     1.17941e+00
 o12bf                                  8      0.0000       0.00000       A     3.15922e-01     3.07350e-01
 c13bf                                  6      0.0000       0.00000       A     3.31520e-01     4.13050e-01
 c14bf                                  6      0.0000       0.00000       A     3.31506e-01     4.13157e-01
 c15bf                                  6      0.0000       0.00000       A     3.31466e-01     4.12724e-01
 c16bf                                  6      0.0000       0.00000       A     3.31470e-01     4.13128e-01
 c17bf                                  6      0.0000       0.00000       A     3.31466e-01     4.12724e-01
 c18bf                                  6      0.0000       0.00000       A     3.31505e-01     4.13157e-01
 cl19bf                                17      0.0000       0.00000       A     3.46712e-01     1.10479e+00
 h20bf                                  1      0.0000       0.00000       A     2.62737e-01     6.70046e-02
 h21bf                                  1      0.0000       0.00000       A     2.53541e-01     6.74259e-02
 h22bf                                  1      0.0000       0.00000       A     2.53502e-01     6.70126e-02
 h23bf                                  1      0.0000       0.00000       A     2.62481e-01     6.70381e-02
 h24bf                                  1      0.0000       0.00000       A     2.62516e-01     6.71482e-02
 h25bf                                  1      0.0000       0.00000       A     2.62516e-01     6.71482e-02
 h26bf                                  1      0.0000       0.00000       A     2.62480e-01     6.70381e-02
 c27bf                                  6      0.0000       0.00000       A     3.39739e-01     4.50890e-01
 h28bf                                  1      0.0000       0.00000       A     2.60209e-01     8.59308e-02
 h29bf                                  1      0.0000       0.00000       A     2.60209e-01     8.59308e-02
 h30bf                                  1      0.0000       0.00000       A     2.60075e-01     8.72763e-02
 h31bf                                  1      0.0000       0.00000       A     2.60075e-01     8.72763e-02
 h32bf                                  1      0.0000       0.00000       A     2.60075e-01     8.72763e-02

[ moleculetype ]
;name             nrexcl
 20                    3

[ atoms ]
;       nr            type      resi   res      atom      cgnr      charge          mass ; qtot
         1            c0bf         1   UNL        c0         1    -0.15532       12.0110 ; qtot   -0.155
         2            c1bf         1   UNL        c1         2    -0.08409       12.0110 ; qtot   -0.239
         3            c2bf         1   UNL        c2         3     0.36629       12.0110 ; qtot    0.127
         4            c3bf         1   UNL        c3         4    -0.07925       12.0110 ; qtot    0.048
         5            c4bf         1   UNL        c4         5     0.11030       12.0110 ; qtot    0.158
         6            c5bf         1   UNL        c5         6     0.29008       12.0110 ; qtot    0.448
         7            c6bf         1   UNL        c6         7    -0.18876       12.0110 ; qtot    0.259
         8            c7bf         1   UNL        c7         8    -0.17099       12.0110 ; qtot    0.088
         9            c8bf         1   UNL        c8         9     0.59388       12.0110 ; qtot    0.682
        10            o9bf         1   UNL        o9        10    -0.52851       15.9990 ; qtot    0.154
        11           n10bf         1   UNL       n10        11    -0.63032       14.0070 ; qtot   -0.477
        12           s11bf         1   UNL       s11        12     0.13404       32.0670 ; qtot   -0.343
        13           o12bf         1   UNL       o12        13    -0.24220       15.9990 ; qtot   -0.585
        14           c13bf         1   UNL       c13        14     0.11228       12.0110 ; qtot   -0.473
        15           c14bf         1   UNL       c14        15    -0.13022       12.0110 ; qtot   -0.603
        16           c15bf         1   UNL       c15        16    -0.08023       12.0110 ; qtot   -0.683
        17           c16bf         1   UNL       c16        17     0.10524       12.0110 ; qtot   -0.578
        18           c17bf         1   UNL       c17        18    -0.08023       12.0110 ; qtot   -0.658
        19           c18bf         1   UNL       c18        19    -0.13022       12.0110 ; qtot   -0.788
        20          cl19bf         1   UNL      cl19        20    -0.21044       35.4530 ; qtot   -0.999
        21           h20bf         1   UNL       h20        21     0.22222        1.0080 ; qtot   -0.776
        22           h21bf         1   UNL       h21        22     0.02973        1.0080 ; qtot   -0.747
        23           h22bf         1   UNL       h22        23     0.03579        1.0080 ; qtot   -0.711
        24           h23bf         1   UNL       h23        24     0.13537        1.0080 ; qtot   -0.576
        25           h24bf         1   UNL       h24        25     0.13654        1.0080 ; qtot   -0.439
        26           h25bf         1   UNL       h25        26     0.13654        1.0080 ; qtot   -0.302
        27           h26bf         1   UNL       h26        27     0.13537        1.0080 ; qtot   -0.167
        28           c27bf         1   UNL       c27        28    -0.08461       12.0110 ; qtot   -0.252
        29           h28bf         1   UNL       h28        29     0.06351        1.0080 ; qtot   -0.188
        30           h29bf         1   UNL       h29        30     0.06351        1.0080 ; qtot   -0.125
        31           h30bf         1   UNL       h30        31     0.04156        1.0080 ; qtot   -0.083
        32           h31bf         1   UNL       h31        32     0.04156        1.0080 ; qtot   -0.042
        33           h32bf         1   UNL       h32        33     0.04158        1.0080 ; qtot   -0.000

[ bonds ]
;       ai        aj funct               r               k
         1         2     1        0.137319   373986.931934
         1         9     1        0.148265   188226.921118
         1        12     1        0.176149   139817.857251
         2         4     1        0.142843   258438.407031
         2        21     1        0.108350   330826.663379
         3         7     1        0.140360   287745.968457
         3        11     1        0.133233   334049.344434
         3        22     1        0.108847   314136.349268
         4         5     1        0.141131   276190.630762
         4         7     1        0.141652   257681.665869
         5         6     1        0.139269   298045.672021
         5        13     1        0.137783   248400.535449
         6        11     1        0.134797   300411.123389
         6        23     1        0.108641   319784.519434
         7        12     1        0.174829   156259.439917
         8         9     1        0.152170   169868.369800
         8        28     1        0.153524   186181.768945
         8        29     1        0.109464   298675.570361
         8        30     1        0.109464   298675.621436
         9        10     1        0.122794   630342.991992
        13        14     1        0.138588   236585.178906
        14        15     1        0.139759   296218.925977
        14        19     1        0.139759   296218.951514
        15        16     1        0.139665   318077.797803
        15        24     1        0.108472   324415.469922
        16        17     1        0.139679   300422.793848
        16        25     1        0.108460   325418.363281
        17        18     1        0.139679   300422.793848
        17        20     1        0.175851   148359.777734
        18        19     1        0.139665   318077.797803
        18        26     1        0.108460   325418.363281
        19        27     1        0.108472   324415.495459
        28        31     1        0.109362   301639.381738
        28        32     1        0.109362   301639.381738
        28        33     1        0.109362   301639.381738

[ angles ]
;       ai        aj        ak funct           theta             cth
         1         2         4     1      112.605606      390.021983
         1         2        21     1      122.801125      388.200006
         1         9         8     1      118.361588      486.183660
         1         9        10     1      119.742348      616.168824
         1        12         7     1       90.222305      463.298931
         2         1         9     1      127.542007      450.099469
         2         1        12     1      112.859863      167.360000
         2         4         5     1      130.209854      401.733780
         2         4         7     1      112.072243      487.795243
         3         7         4     1      120.364235      714.001234
         3         7        12     1      127.852501      368.771437
         3        11         6     1      118.900452      558.108929
         4         2        21     1      124.535049      383.462617
         4         5         6     1      118.613724      671.068118
         4         5        13     1      118.211327      445.840390
         4         7        12     1      111.693283      167.360000
         5         4         7     1      117.001915      712.295547
         5         6        11     1      123.409790      692.540678
         5         6        23     1      119.877098      410.591869
         5        13        14     1      118.500870      426.571556
         6         5        13     1      122.139931      548.863857
         7         3        11     1      121.498947      724.160535
         7         3        22     1      121.216537      412.607098
         8         9        10     1      121.748512      495.450247
         8        28        31     1      110.795898      507.501848
         8        28        32     1      110.795898      507.501848
         8        28        33     1      110.795898      507.501848
         9         1        12     1      119.567795      509.671576
         9         8        28     1      112.296036      632.702059
         9         8        29     1      108.464989      515.536365
         9         8        30     1      108.464989      515.536429
        11         3        22     1      117.010254      375.144223
        11         6        23     1      116.623924      348.863217
        13        14        15     1      119.667442      520.914735
        13        14        19     1      119.667435      520.914735
        14        15        16     1      119.723709      708.320951
        14        15        24     1      119.867577      419.809872
        14        19        18     1      119.723709      708.320951
        14        19        27     1      119.867592      419.809904
        15        14        19     1      120.509987      613.874506
        15        16        17     1      119.487167      640.596473
        15        16        25     1      120.379723      412.832559
        16        15        24     1      120.528175      418.035234
        16        17        18     1      120.869644      623.226259
        16        17        20     1      119.533920      384.415374
        17        16        25     1      120.189987      407.550719
        17        18        19     1      119.487167      640.596473
        17        18        26     1      120.189987      407.550687
        18        17        20     1      119.533920      384.415374
        18        19        27     1      120.528175      418.035234
        19        18        26     1      120.379723      412.832559
        28         8        29     1      110.361671      507.663625
        28         8        30     1      110.361671      507.663625
        29         8        30     1      106.823532      356.557612
        31        28        32     1      108.109459      362.336437
        31        28        33     1      108.109459      362.336437
        32        28        33     1      108.109459      362.336437

[ dihedrals ] ; propers for gromacs 4.5 or higher, use funct 9
;       ai        aj        ak        al funct           phase               k        pn
         1         2         4         5     9        0.000000       -0.374780         1
         1         2         4         5     9      180.000000        7.040459         2
         1         2         4         5     9        0.000000       -1.153529         3
         1         2         4         5     9      180.000000        0.204422         4
         1         2         4         7     9        0.000000        0.276851         1
         1         2         4         7     9      180.000000       21.463186         2
         1         2         4         7     9        0.000000       -5.666193         3
         1         2         4         7     9      180.000000       -0.115961         4
         1         9         8        28     9        0.000000       -0.174747         1
         1         9         8        28     9      180.000000        1.383131         2
         1         9         8        28     9        0.000000       -0.008045         3
         1         9         8        28     9      180.000000        0.179536         4
         1         9         8        29     9        0.000000       -0.005815         1
         1         9         8        29     9      180.000000       -0.106096         2
         1         9         8        29     9        0.000000       -0.045875         3
         1         9         8        29     9      180.000000        0.008052         4
         1         9         8        30     9        0.000000       -0.005815         1
         1         9         8        30     9      180.000000       -0.106096         2
         1         9         8        30     9        0.000000       -0.045875         3
         1         9         8        30     9      180.000000        0.008052         4
         1        12         7         3     9        0.000000       -0.028104         1
         1        12         7         3     9      180.000000        4.788669         2
         1        12         7         3     9        0.000000       -0.304138         3
         1        12         7         3     9      180.000000        0.303678         4
         1        12         7         4     9        0.000000       -0.519375         1
         1        12         7         4     9      180.000000       23.795229         2
         1        12         7         4     9        0.000000       -5.748393         3
         1        12         7         4     9      180.000000        0.125825         4
         2         1         9         8     9        0.000000       -0.508292         1
         2         1         9         8     9      180.000000        3.287844         2
         2         1         9         8     9        0.000000       -0.219239         3
         2         1         9         8     9      180.000000       -0.104599         4
         2         1         9        10     9        0.000000        1.875744         1
         2         1         9        10     9      180.000000        3.017483         2
         2         1         9        10     9        0.000000        0.308446         3
         2         1         9        10     9      180.000000        0.035286         4
         2         1        12         7     9        0.000000        0.063120         1
         2         1        12         7     9      180.000000       20.981564         2
         2         1        12         7     9        0.000000       -5.322016         3
         2         1        12         7     9      180.000000        0.050417         4
         2         4         5         6     9        0.000000        0.160994         1
         2         4         5         6     9      180.000000       10.056871         2
         2         4         5         6     9        0.000000       -0.339082         3
         2         4         5         6     9      180.000000        0.007193         4
         2         4         5        13     9        0.000000        0.432030         1
         2         4         5        13     9      180.000000       13.084775         2
         2         4         5        13     9        0.000000        0.621811         3
         2         4         5        13     9      180.000000       -0.185303         4
         2         4         7         3     9        0.000000        0.171960         1
         2         4         7         3     9      180.000000       10.857699         2
         2         4         7         3     9        0.000000       -1.766355         3
         2         4         7         3     9      180.000000        0.098705         4
         2         4         7        12     9        0.000000        0.231178         1
         2         4         7        12     9      180.000000       15.058842         2
         2         4         7        12     9        0.000000       -3.168290         3
         2         4         7        12     9      180.000000       -0.354813         4
         3         7         4         5     9        0.000000       -0.210718         1
         3         7         4         5     9      180.000000       11.280918         2
         3         7         4         5     9        0.000000       -1.967377         3
         3         7         4         5     9      180.000000       -0.015126         4
         3        11         6         5     9        0.000000        0.091035         1
         3        11         6         5     9      180.000000       20.836021         2
         3        11         6         5     9        0.000000       -1.014134         3
         3        11         6         5     9      180.000000       -0.038062         4
         3        11         6        23     9        0.000000        0.845563         1
         3        11         6        23     9      180.000000       19.627545         2
         3        11         6        23     9        0.000000        0.146423         3
         3        11         6        23     9      180.000000       -0.265320         4
         4         2         1         9     9        0.000000        0.124598         1
         4         2         1         9     9      180.000000       17.694400         2
         4         2         1         9     9        0.000000       -0.686476         3
         4         2         1         9     9      180.000000       -0.905097         4
         4         2         1        12     9        0.000000       -0.567999         1
         4         2         1        12     9      180.000000       28.780115         2
         4         2         1        12     9        0.000000       -4.401730         3
         4         2         1        12     9      180.000000       -0.852708         4
         4         5         6        11     9        0.000000        0.038753         1
         4         5         6        11     9      180.000000       18.140513         2
         4         5         6        11     9        0.000000       -0.771944         3
         4         5         6        11     9      180.000000       -0.629233         4
         4         5         6        23     9        0.000000        0.261165         1
         4         5         6        23     9      180.000000       13.852081         2
         4         5         6        23     9        0.000000       -0.210756         3
         4         5         6        23     9      180.000000        0.008016         4
         4         5        13        14     9        0.000000        0.446776         1
         4         5        13        14     9      180.000000        3.950946         2
         4         5        13        14     9        0.000000        0.291256         3
         4         5        13        14     9      180.000000        0.179165         4
         4         7         3        11     9        0.000000        0.032718         1
         4         7         3        11     9      180.000000       16.852000         2
         4         7         3        11     9        0.000000       -0.943270         3
         4         7         3        11     9      180.000000       -0.340361         4
         4         7         3        22     9        0.000000        0.385109         1
         4         7         3        22     9      180.000000       13.048245         2
         4         7         3        22     9        0.000000       -0.196754         3
         4         7         3        22     9      180.000000       -0.036364         4
         5         4         2        21     9        0.000000       -0.327572         1
         5         4         2        21     9      180.000000        6.995738         2
         5         4         2        21     9        0.000000        0.127446         3
         5         4         2        21     9      180.000000        0.057603         4
         5         4         7        12     9        0.000000        0.248176         1
         5         4         7        12     9      180.000000       12.061139         2
         5         4         7        12     9        0.000000       -1.758026         3
         5         4         7        12     9      180.000000       -0.165715         4
         5        13        14        15     9        0.000000        0.077610         1
         5        13        14        15     9      180.000000        3.944704         2
         5        13        14        15     9        0.000000       -0.104996         3
         5        13        14        15     9      180.000000        0.330440         4
         5        13        14        19     9        0.000000        0.077610         1
         5        13        14        19     9      180.000000        3.944705         2
         5        13        14        19     9        0.000000       -0.104996         3
         5        13        14        19     9      180.000000        0.330440         4
         6         5         4         7     9        0.000000       -0.446377         1
         6         5         4         7     9      180.000000       14.910853         2
         6         5         4         7     9        0.000000       -1.311124         3
         6         5         4         7     9      180.000000       -0.243393         4
         6         5        13        14     9        0.000000        1.477696         1
         6         5        13        14     9      180.000000        3.629667         2
         6         5        13        14     9        0.000000       -0.289356         3
         6         5        13        14     9      180.000000        0.216222         4
         6        11         3         7     9        0.000000        0.119033         1
         6        11         3         7     9      180.000000       26.130628         2
         6        11         3         7     9        0.000000       -1.253105         3
         6        11         3         7     9      180.000000       -0.265429         4
         6        11         3        22     9        0.000000        1.307402         1
         6        11         3        22     9      180.000000       22.194711         2
         6        11         3        22     9        0.000000        0.189237         3
         6        11         3        22     9      180.000000       -0.162527         4
         7         4         2        21     9        0.000000        0.883537         1
         7         4         2        21     9      180.000000       11.532495         2
         7         4         2        21     9        0.000000        0.220166         3
         7         4         2        21     9      180.000000       -0.156736         4
         7         4         5        13     9        0.000000        0.183636         1
         7         4         5        13     9      180.000000       15.898453         2
         7         4         5        13     9        0.000000        0.267678         3
         7         4         5        13     9      180.000000       -0.467803         4
         7        12         1         9     9        0.000000       -0.554186         1
         7        12         1         9     9      180.000000        9.715982         2
         7        12         1         9     9        0.000000       -0.242486         3
         7        12         1         9     9      180.000000        0.039549         4
         8         9         1        12     9        0.000000        0.507900         1
         8         9         1        12     9      180.000000        5.329849         2
         8         9         1        12     9        0.000000        0.167088         3
         8         9         1        12     9      180.000000        0.013800         4
         9         1         2        21     9        0.000000        0.030322         1
         9         1         2        21     9      180.000000       13.598369         2
         9         1         2        21     9        0.000000       -0.168213         3
         9         1         2        21     9      180.000000       -0.006001         4
         9         8        28        31     9        0.000000        0.024313         1
         9         8        28        31     9      180.000000        0.094547         2
         9         8        28        31     9        0.000000        0.231185         3
         9         8        28        31     9      180.000000       -0.005465         4
         9         8        28        32     9        0.000000        0.024313         1
         9         8        28        32     9      180.000000        0.094547         2
         9         8        28        32     9        0.000000        0.231185         3
         9         8        28        32     9      180.000000       -0.005465         4
         9         8        28        33     9        0.000000        0.024313         1
         9         8        28        33     9      180.000000        0.094547         2
         9         8        28        33     9        0.000000        0.231185         3
         9         8        28        33     9      180.000000       -0.005465         4
        10         9         1        12     9        0.000000       -1.655425         1
        10         9         1        12     9      180.000000        5.959803         2
        10         9         1        12     9        0.000000        0.127999         3
        10         9         1        12     9      180.000000        0.093055         4
        10         9         8        28     9        0.000000       -1.411265         1
        10         9         8        28     9      180.000000        0.786638         2
        10         9         8        28     9        0.000000        0.138964         3
        10         9         8        28     9      180.000000        0.064906         4
        10         9         8        29     9        0.000000        0.261089         1
        10         9         8        29     9      180.000000        0.295593         2
        10         9         8        29     9        0.000000        0.299097         3
        10         9         8        29     9      180.000000       -0.060610         4
        10         9         8        30     9        0.000000        0.261089         1
        10         9         8        30     9      180.000000        0.295593         2
        10         9         8        30     9        0.000000        0.299097         3
        10         9         8        30     9      180.000000       -0.060610         4
        11         3         7        12     9        0.000000       -0.453772         1
        11         3         7        12     9      180.000000       12.218555         2
        11         3         7        12     9        0.000000       -0.185475         3
        11         3         7        12     9      180.000000       -0.322730         4
        11         6         5        13     9        0.000000        0.204784         1
        11         6         5        13     9      180.000000       19.416774         2
        11         6         5        13     9        0.000000        0.387032         3
        11         6         5        13     9      180.000000       -0.879380         4
        12         1         2        21     9        0.000000        0.574816         1
        12         1         2        21     9      180.000000       17.194331         2
        12         1         2        21     9        0.000000        0.099268         3
        12         1         2        21     9      180.000000       -0.540218         4
        12         7         3        22     9        0.000000        0.221181         1
        12         7         3        22     9      180.000000       10.613635         2
        12         7         3        22     9        0.000000       -0.026511         3
        12         7         3        22     9      180.000000       -0.068160         4
        13         5         6        23     9        0.000000        0.410659         1
        13         5         6        23     9      180.000000       14.409164         2
        13         5         6        23     9        0.000000        0.285577         3
        13         5         6        23     9      180.000000        0.325128         4
        13        14        15        16     9        0.000000        0.589017         1
        13        14        15        16     9      180.000000       17.872232         2
        13        14        15        16     9        0.000000        0.349645         3
        13        14        15        16     9      180.000000       -0.220762         4
        13        14        15        24     9        0.000000        0.220515         1
        13        14        15        24     9      180.000000       13.622559         2
        13        14        15        24     9        0.000000       -0.010117         3
        13        14        15        24     9      180.000000        0.377402         4
        13        14        19        18     9        0.000000        0.589017         1
        13        14        19        18     9      180.000000       17.872230         2
        13        14        19        18     9        0.000000        0.349645         3
        13        14        19        18     9      180.000000       -0.220761         4
        13        14        19        27     9        0.000000        0.220515         1
        13        14        19        27     9      180.000000       13.622561         2
        13        14        19        27     9        0.000000       -0.010117         3
        13        14        19        27     9      180.000000        0.377402         4
        14        15        16        17     9        0.000000       -0.201586         1
        14        15        16        17     9      180.000000       18.661283         2
        14        15        16        17     9        0.000000       -1.469484         3
        14        15        16        17     9      180.000000       -0.427295         4
        14        15        16        25     9        0.000000       -0.019052         1
        14        15        16        25     9      180.000000       14.606918         2
        14        15        16        25     9        0.000000       -0.546492         3
        14        15        16        25     9      180.000000        0.085665         4
        14        19        18        17     9        0.000000       -0.201586         1
        14        19        18        17     9      180.000000       18.661285         2
        14        19        18        17     9        0.000000       -1.469485         3
        14        19        18        17     9      180.000000       -0.427295         4
        14        19        18        26     9        0.000000       -0.019052         1
        14        19        18        26     9      180.000000       14.606921         2
        14        19        18        26     9        0.000000       -0.546492         3
        14        19        18        26     9      180.000000        0.085664         4
        15        14        19        18     9        0.000000       -0.054778         1
        15        14        19        18     9      180.000000       16.614611         2
        15        14        19        18     9        0.000000       -0.954376         3
        15        14        19        18     9      180.000000       -0.194804         4
        15        14        19        27     9        0.000000        0.159519         1
        15        14        19        27     9      180.000000       12.665239         2
        15        14        19        27     9        0.000000       -0.573802         3
        15        14        19        27     9      180.000000        0.207770         4
        15        16        17        18     9        0.000000       -0.057049         1
        15        16        17        18     9      180.000000       17.886038         2
        15        16        17        18     9        0.000000       -1.288830         3
        15        16        17        18     9      180.000000       -0.385676         4
        15        16        17        20     9        0.000000        0.385935         1
        15        16        17        20     9      180.000000       18.830412         2
        15        16        17        20     9        0.000000        0.183920         3
        15        16        17        20     9      180.000000       -0.516427         4
        16        15        14        19     9        0.000000       -0.054779         1
        16        15        14        19     9      180.000000       16.614611         2
        16        15        14        19     9        0.000000       -0.954376         3
        16        15        14        19     9      180.000000       -0.194804         4
        16        17        18        19     9        0.000000       -0.057049         1
        16        17        18        19     9      180.000000       17.886044         2
        16        17        18        19     9        0.000000       -1.288830         3
        16        17        18        19     9      180.000000       -0.385676         4
        16        17        18        26     9        0.000000        0.006717         1
        16        17        18        26     9      180.000000       13.473111         2
        16        17        18        26     9        0.000000       -0.609135         3
        16        17        18        26     9      180.000000        0.116943         4
        17        16        15        24     9        0.000000        0.106275         1
        17        16        15        24     9      180.000000       14.109168         2
        17        16        15        24     9        0.000000       -0.507462         3
        17        16        15        24     9      180.000000        0.171074         4
        17        18        19        27     9        0.000000        0.106275         1
        17        18        19        27     9      180.000000       14.109168         2
        17        18        19        27     9        0.000000       -0.507462         3
        17        18        19        27     9      180.000000        0.171074         4
        18        17        16        25     9        0.000000        0.006717         1
        18        17        16        25     9      180.000000       13.473111         2
        18        17        16        25     9        0.000000       -0.609135         3
        18        17        16        25     9      180.000000        0.116943         4
        19        14        15        24     9        0.000000        0.159519         1
        19        14        15        24     9      180.000000       12.665239         2
        19        14        15        24     9        0.000000       -0.573802         3
        19        14        15        24     9      180.000000        0.207769         4
        19        18        17        20     9        0.000000        0.385936         1
        19        18        17        20     9      180.000000       18.830414         2
        19        18        17        20     9        0.000000        0.183920         3
        19        18        17        20     9      180.000000       -0.516427         4
        20        17        16        25     9        0.000000        0.197044         1
        20        17        16        25     9      180.000000       13.306968         2
        20        17        16        25     9        0.000000       -0.108280         3
        20        17        16        25     9      180.000000        0.232508         4
        20        17        18        26     9        0.000000        0.197045         1
        20        17        18        26     9      180.000000       13.306967         2
        20        17        18        26     9        0.000000       -0.108280         3
        20        17        18        26     9      180.000000        0.232508         4
        24        15        16        25     9        0.000000       -0.188408         1
        24        15        16        25     9      180.000000       11.950093         2
        24        15        16        25     9        0.000000       -0.745771         3
        24        15        16        25     9      180.000000        0.280500         4
        26        18        19        27     9        0.000000       -0.188408         1
        26        18        19        27     9      180.000000       11.950094         2
        26        18        19        27     9        0.000000       -0.745770         3
        26        18        19        27     9      180.000000        0.280499         4
        29         8        28        31     9        0.000000        0.012094         1
        29         8        28        31     9      180.000000        0.042930         2
        29         8        28        31     9        0.000000        0.523121         3
        29         8        28        31     9      180.000000       -0.036003         4
        29         8        28        32     9        0.000000        0.012094         1
        29         8        28        32     9      180.000000        0.042930         2
        29         8        28        32     9        0.000000        0.523121         3
        29         8        28        32     9      180.000000       -0.036003         4
        29         8        28        33     9        0.000000        0.012094         1
        29         8        28        33     9      180.000000        0.042930         2
        29         8        28        33     9        0.000000        0.523121         3
        29         8        28        33     9      180.000000       -0.036003         4
        30         8        28        31     9        0.000000        0.012094         1
        30         8        28        31     9      180.000000        0.042930         2
        30         8        28        31     9        0.000000        0.523121         3
        30         8        28        31     9      180.000000       -0.036003         4
        30         8        28        32     9        0.000000        0.012094         1
        30         8        28        32     9      180.000000        0.042930         2
        30         8        28        32     9        0.000000        0.523121         3
        30         8        28        32     9      180.000000       -0.036003         4
        30         8        28        33     9        0.000000        0.012094         1
        30         8        28        33     9      180.000000        0.042930         2
        30         8        28        33     9        0.000000        0.523121         3
        30         8        28        33     9      180.000000       -0.036003         4

[ dihedrals ] ; impropers
;       ai        aj        ak        al funct           phase               k        pn
         3         7        11        22     4      180.000000        3.736001         2
         3        11        22         7     4      180.000000        3.736001         2
         3        22         7        11     4      180.000000        3.736001         2
         6         5        11        23     4      180.000000        0.582472         2
         6        11        23         5     4      180.000000        0.582472         2
         6        23         5        11     4      180.000000        0.582472         2
         9         1         8        10     4      180.000000       27.893333         2
         9         8        10         1     4      180.000000       27.893333         2
         9        10         1         8     4      180.000000       27.893333         2

[ pairs ]
;       ai        aj funct
         1         3     1
         1         5     1
         1        28     1
         1        29     1
         1        30     1
         2         3     1
         2         6     1
         2         8     1
         2        10     1
         2        13     1
         3         5     1
         3        23     1
         4         9     1
         4        11     1
         4        14     1
         4        22     1
         4        23     1
         5        12     1
         5        15     1
         5        19     1
         5        21     1
         6         7     1
         6        14     1
         6        22     1
         7         9     1
         7        13     1
         7        21     1
         8        12     1
         9        21     1
         9        31     1
         9        32     1
         9        33     1
        10        12     1
        10        28     1
        10        29     1
        10        30     1
        11        12     1
        11        13     1
        12        21     1
        12        22     1
        13        16     1
        13        18     1
        13        23     1
        13        24     1
        13        27     1
        14        17     1
        14        25     1
        14        26     1
        15        18     1
        15        20     1
        15        27     1
        16        19     1
        16        26     1
        17        24     1
        17        27     1
        18        25     1
        19        20     1
        19        24     1
        20        25     1
        20        26     1
        24        25     1
        26        27     1
        29        31     1
        29        32     1
        29        33     1
        30        31     1
        30        32     1
        30        33     1
