; ITP file created by ByteFF-ML, 2025-12-06 08:02:53.238451

[ atomtypes ]
;name           bonded.type        at.num        mass        charge   ptype           sigma         epsilon
 cl0bf                                 17      0.0000       0.00000       A     3.46758e-01     1.10611e+00
 c1bf                                   6      0.0000       0.00000       A     3.31531e-01     4.12563e-01
 c2bf                                   6      0.0000       0.00000       A     3.31474e-01     4.13479e-01
 c3bf                                   6      0.0000       0.00000       A     3.31454e-01     4.13503e-01
 c4bf                                   6      0.0000       0.00000       A     3.31464e-01     4.11733e-01
 s5bf                                  16      0.0000       0.00000       A     3.53477e-01     1.18026e+00
 c6bf                                   6      0.0000       0.00000       A     3.31417e-01     4.12533e-01
 c7bf                                   6      0.0000       0.00000       A     3.31503e-01     4.13004e-01
 c8bf                                   6      0.0000       0.00000       A     3.31303e-01     4.11709e-01
 s9bf                                  16      0.0000       0.00000       A     4.06355e-01     2.53552e-01
 o10bf                                  8      0.0000       0.00000       A     3.05070e-01     6.11721e-01
 o11bf                                  8      0.0000       0.00000       A     3.05070e-01     6.11721e-01
 n12bf                                  7      0.0000       0.00000       A     3.50462e-01     2.20762e-01
 c13bf                                  6      0.0000       0.00000       A     3.40102e-01     4.49763e-01
 c14bf                                  6      0.0000       0.00000       A     3.39888e-01     4.51758e-01
 c15bf                                  6      0.0000       0.00000       A     3.39876e-01     4.51158e-01
 c16bf                                  6      0.0000       0.00000       A     3.31760e-01     4.12573e-01
 o17bf                                  8      0.0000       0.00000       A     3.04794e-01     6.15556e-01
 n18bf                                  7      0.0000       0.00000       A     3.18260e-01     6.88160e-01
 c19bf                                  6      0.0000       0.00000       A     3.39757e-01     4.50874e-01
 c20bf                                  6      0.0000       0.00000       A     3.39605e-01     4.49879e-01
 c21bf                                  6      0.0000       0.00000       A     3.31657e-01     4.13830e-01
 o22bf                                  8      0.0000       0.00000       A     3.04754e-01     6.13558e-01
 n23bf                                  7      0.0000       0.00000       A     3.17857e-01     6.84912e-01
 c24bf                                  6      0.0000       0.00000       A     3.39840e-01     4.50763e-01
 c25bf                                  6      0.0000       0.00000       A     3.39665e-01     4.51065e-01
 o26bf                                  8      0.0000       0.00000       A     3.15559e-01     3.02369e-01
 c27bf                                  6      0.0000       0.00000       A     3.39665e-01     4.51065e-01
 c28bf                                  6      0.0000       0.00000       A     3.39840e-01     4.50763e-01
 c29bf                                  6      0.0000       0.00000       A     3.31449e-01     4.13980e-01
 h30bf                                  1      0.0000       0.00000       A     2.62481e-01     6.72025e-02
 h31bf                                  1      0.0000       0.00000       A     2.62491e-01     6.68769e-02
 h32bf                                  1      0.0000       0.00000       A     2.62485e-01     6.72137e-02
 h33bf                                  1      0.0000       0.00000       A     1.10210e-01     4.06040e-02
 h34bf                                  1      0.0000       0.00000       A     2.41336e-01     8.93895e-02
 h35bf                                  1      0.0000       0.00000       A     2.59998e-01     8.72188e-02
 h36bf                                  1      0.0000       0.00000       A     2.59998e-01     8.72188e-02
 h37bf                                  1      0.0000       0.00000       A     2.42182e-01     8.67208e-02
 h38bf                                  1      0.0000       0.00000       A     2.42182e-01     8.67208e-02
 h39bf                                  1      0.0000       0.00000       A     2.42267e-01     8.78125e-02
 h40bf                                  1      0.0000       0.00000       A     2.59883e-01     8.72300e-02
 h41bf                                  1      0.0000       0.00000       A     2.59883e-01     8.72300e-02
 h42bf                                  1      0.0000       0.00000       A     2.59883e-01     8.72300e-02
 h43bf                                  1      0.0000       0.00000       A     2.42002e-01     8.70017e-02
 h44bf                                  1      0.0000       0.00000       A     2.42002e-01     8.70017e-02
 h45bf                                  1      0.0000       0.00000       A     2.42029e-01     8.74327e-02
 h46bf                                  1      0.0000       0.00000       A     2.42029e-01     8.74327e-02
 h47bf                                  1      0.0000       0.00000       A     2.42029e-01     8.74327e-02
 h48bf                                  1      0.0000       0.00000       A     2.42029e-01     8.74327e-02
 h49bf                                  1      0.0000       0.00000       A     2.42002e-01     8.70017e-02
 h50bf                                  1      0.0000       0.00000       A     2.42002e-01     8.70017e-02
 h51bf                                  1      0.0000       0.00000       A     2.62477e-01     6.73142e-02

[ moleculetype ]
;name             nrexcl
 16353_1d              3

[ atoms ]
;       nr            type      resi   res      atom      cgnr      charge          mass ; qtot
         1           cl0bf         1   UNL       cl0         1    -0.21295       35.4530 ; qtot   -0.213
         2            c1bf         1   UNL        c1         2     0.11876       12.0110 ; qtot   -0.094
         3            c2bf         1   UNL        c2         3    -0.04729       12.0110 ; qtot   -0.141
         4            c3bf         1   UNL        c3         4    -0.09475       12.0110 ; qtot   -0.236
         5            c4bf         1   UNL        c4         5    -0.13415       12.0110 ; qtot   -0.370
         6            s5bf         1   UNL        s5         6     0.15805       32.0670 ; qtot   -0.212
         7            c6bf         1   UNL        c6         7    -0.07300       12.0110 ; qtot   -0.285
         8            c7bf         1   UNL        c7         8    -0.08986       12.0110 ; qtot   -0.375
         9            c8bf         1   UNL        c8         9    -0.24749       12.0110 ; qtot   -0.623
        10            s9bf         1   UNL        s9        10     1.11789       32.0670 ; qtot    0.495
        11           o10bf         1   UNL       o10        11    -0.51839       15.9990 ; qtot   -0.023
        12           o11bf         1   UNL       o11        12    -0.51839       15.9990 ; qtot   -0.542
        13           n12bf         1   UNL       n12        13    -0.82296       14.0070 ; qtot   -1.365
        14           c13bf         1   UNL       c13        14     0.12223       12.0110 ; qtot   -1.242
        15           c14bf         1   UNL       c14        15    -0.09526       12.0110 ; qtot   -1.338
        16           c15bf         1   UNL       c15        16     0.09495       12.0110 ; qtot   -1.243
        17           c16bf         1   UNL       c16        17     0.54926       12.0110 ; qtot   -0.693
        18           o17bf         1   UNL       o17        18    -0.54655       15.9990 ; qtot   -1.240
        19           n18bf         1   UNL       n18        19    -0.40098       14.0070 ; qtot   -1.641
        20           c19bf         1   UNL       c19        20     0.05721       12.0110 ; qtot   -1.584
        21           c20bf         1   UNL       c20        21    -0.09612       12.0110 ; qtot   -1.680
        22           c21bf         1   UNL       c21        22     0.58704       12.0110 ; qtot   -1.093
        23           o22bf         1   UNL       o22        23    -0.59786       15.9990 ; qtot   -1.691
        24           n23bf         1   UNL       n23        24    -0.41249       14.0070 ; qtot   -2.103
        25           c24bf         1   UNL       c24        25     0.06521       12.0110 ; qtot   -2.038
        26           c25bf         1   UNL       c25        26     0.13811       12.0110 ; qtot   -1.900
        27           o26bf         1   UNL       o26        27    -0.45725       15.9990 ; qtot   -2.357
        28           c27bf         1   UNL       c27        28     0.13811       12.0110 ; qtot   -2.219
        29           c28bf         1   UNL       c28        29     0.06521       12.0110 ; qtot   -2.154
        30           c29bf         1   UNL       c29        30    -0.02124       12.0110 ; qtot   -2.175
        31           h30bf         1   UNL       h30        31     0.13881        1.0080 ; qtot   -2.036
        32           h31bf         1   UNL       h31        32     0.12851        1.0080 ; qtot   -1.908
        33           h32bf         1   UNL       h32        33     0.13302        1.0080 ; qtot   -1.775
        34           h33bf         1   UNL       h33        34     0.48768        1.0080 ; qtot   -1.287
        35           h34bf         1   UNL       h34        35     0.09157        1.0080 ; qtot   -1.195
        36           h35bf         1   UNL       h35        36     0.07214        1.0080 ; qtot   -1.123
        37           h36bf         1   UNL       h36        37     0.07214        1.0080 ; qtot   -1.051
        38           h37bf         1   UNL       h37        38     0.05454        1.0080 ; qtot   -0.997
        39           h38bf         1   UNL       h38        39     0.05454        1.0080 ; qtot   -0.942
        40           h39bf         1   UNL       h39        40     0.08228        1.0080 ; qtot   -0.860
        41           h40bf         1   UNL       h40        41     0.05105        1.0080 ; qtot   -0.809
        42           h41bf         1   UNL       h41        42     0.05105        1.0080 ; qtot   -0.758
        43           h42bf         1   UNL       h42        43     0.05105        1.0080 ; qtot   -0.707
        44           h43bf         1   UNL       h43        44     0.06485        1.0080 ; qtot   -0.642
        45           h44bf         1   UNL       h44        45     0.06485        1.0080 ; qtot   -0.577
        46           h45bf         1   UNL       h45        46     0.05641        1.0080 ; qtot   -0.520
        47           h46bf         1   UNL       h46        47     0.05641        1.0080 ; qtot   -0.464
        48           h47bf         1   UNL       h47        48     0.05641        1.0080 ; qtot   -0.408
        49           h48bf         1   UNL       h48        49     0.05641        1.0080 ; qtot   -0.351
        50           h49bf         1   UNL       h49        50     0.06485        1.0080 ; qtot   -0.286
        51           h50bf         1   UNL       h50        51     0.06485        1.0080 ; qtot   -0.222
        52           h51bf         1   UNL       h51        52     0.22153        1.0080 ; qtot    0.000

[ bonds ]
;       ai        aj funct               r               k
         1         2     1        0.176031   146061.910327
         2         3     1        0.138705   321364.628076
         2         8     1        0.140712   280479.920264
         3         4     1        0.140918   292173.592480
         3        31     1        0.108485   323883.889453
         4         5     1        0.142122   248650.033008
         4        30     1        0.143809   247233.693848
         5         6     1        0.175283   150293.728564
         5         7     1        0.140061   303221.533350
         6         9     1        0.175282   147367.597192
         7         8     1        0.139285   320527.342871
         7        32     1        0.108577   320900.542188
         8        33     1        0.108449   325481.312256
         9        10     1        0.178029   143516.281885
         9        30     1        0.136374   395301.224902
        10        11     1        0.146398   521558.225879
        10        12     1        0.146398   521558.225879
        10        13     1        0.169145   147737.157471
        13        14     1        0.146749   191880.936719
        13        34     1        0.101970   399856.508936
        14        15     1        0.153763   166543.131714
        14        17     1        0.153780   143807.341089
        14        35     1        0.109521   296269.029785
        15        16     1        0.153943   173404.046436
        15        36     1        0.109161   311817.962793
        15        37     1        0.109161   311817.962793
        16        19     1        0.146731   190108.993311
        16        38     1        0.109491   295731.831152
        16        39     1        0.109491   295731.856689
        17        18     1        0.123040   609921.067773
        17        19     1        0.135997   293600.427393
        19        20     1        0.146082   191522.676611
        20        21     1        0.153522   178794.113037
        20        22     1        0.154579   145088.563403
        20        40     1        0.109199   304154.608252
        21        41     1        0.109216   305763.446143
        21        42     1        0.109216   305763.446143
        21        43     1        0.109216   305763.446143
        22        23     1        0.123348   593715.218164
        22        24     1        0.136666   294032.796191
        24        25     1        0.146801   191022.353564
        24        29     1        0.146801   191022.353564
        25        26     1        0.152763   185011.786279
        25        44     1        0.109338   299004.896924
        25        45     1        0.109338   299004.896924
        26        27     1        0.142906   199750.452344
        26        46     1        0.109582   293226.104443
        26        47     1        0.109582   293226.104443
        27        28     1        0.142906   199750.452344
        28        29     1        0.152763   185011.786279
        28        48     1        0.109582   293226.104443
        28        49     1        0.109582   293226.104443
        29        50     1        0.109338   299004.947998
        29        51     1        0.109338   299004.947998
        30        52     1        0.108364   330607.835889

[ angles ]
;       ai        aj        ak funct           theta             cth
         1         2         3     1      119.390457      329.354526
         1         2         8     1      118.473999      389.894042
         2         3         4     1      118.417381      608.527993
         2         3        31     1      120.700500      425.419289
         2         8         7     1      119.810524      601.886046
         2         8        33     1      119.757797      430.232779
         3         2         8     1      122.112503      611.157421
         3         4         5     1      119.538269      690.135401
         3         4        30     1      128.500443      436.364654
         4         3        31     1      120.754715      421.695468
         4         5         6     1      111.845192      167.360000
         4         5         7     1      121.066772      675.798868
         4        30         9     1      112.055557      384.604381
         4        30        52     1      125.217941      369.312856
         5         4        30     1      111.877502      495.915438
         5         6         9     1       89.871353      448.769082
         5         7         8     1      118.829208      715.833586
         5         7        32     1      121.152565      418.025690
         6         5         7     1      127.179832      383.454190
         6         9        10     1      120.736595      485.936876
         6         9        30     1      114.343239      167.360000
         7         8        33     1      120.523575      417.776703
         8         7        32     1      119.945007      437.897072
         9        10        11     1      107.323891      593.452160
         9        10        12     1      107.323891      593.452160
         9        10        13     1      102.927811      497.179748
         9        30        52     1      123.051407      345.677878
        10         9        30     1      124.782936      398.637469
        10        13        14     1      117.922180      564.967494
        10        13        34     1      108.727188      613.204221
        11        10        12     1      121.763451      713.938030
        11        10        13     1      107.277603      660.413845
        12        10        13     1      107.277603      660.413845
        13        14        15     1      114.651184      537.641063
        13        14        17     1      109.660690      536.687380
        13        14        35     1      109.303307      452.394138
        14        13        34     1      112.736290      495.544128
        14        15        16     1      103.618835      585.422974
        14        15        36     1      110.848923      481.542993
        14        15        37     1      110.848923      481.542993
        14        17        18     1      125.132507      420.544128
        14        17        19     1      107.967346      353.379679
        15        14        17     1      103.510841      547.371787
        15        14        35     1      110.870461      433.513053
        15        16        19     1      103.270203      586.268188
        15        16        38     1      112.132156      454.176533
        15        16        39     1      112.132156      454.176533
        16        15        36     1      111.340355      481.524989
        16        15        37     1      111.340355      481.524989
        16        19        17     1      113.311218      437.943709
        16        19        20     1      122.047386      514.268798
        17        14        35     1      107.652794      517.382155
        17        19        20     1      122.368851      545.953137
        18        17        19     1      126.699257      600.468992
        19        16        38     1      110.468552      450.026433
        19        16        39     1      110.468552      450.026433
        19        20        21     1      112.462791      689.158032
        19        20        22     1      109.734154      557.845194
        19        20        40     1      105.272728      542.259577
        20        21        41     1      110.287804      499.972359
        20        21        42     1      110.287804      499.972359
        20        21        43     1      110.287804      499.972359
        20        22        23     1      119.634476      398.868868
        20        22        24     1      118.134972      452.290649
        21        20        22     1      111.384232      621.169373
        21        20        40     1      108.504562      483.302978
        22        20        40     1      108.414406      479.417763
        22        24        25     1      122.242836      522.086889
        22        24        29     1      122.242836      522.086889
        23        22        24     1      121.980515      642.918371
        24        25        26     1      109.468040      691.740408
        24        25        44     1      109.737137      455.037229
        24        25        45     1      109.737137      455.037229
        24        29        28     1      109.468040      691.740408
        24        29        50     1      109.737137      455.037229
        24        29        51     1      109.737137      455.037229
        25        24        29     1      114.681778      504.716898
        25        26        27     1      112.231979      634.459778
        25        26        46     1      109.793846      487.937804
        25        26        47     1      109.793846      487.937804
        26        25        44     1      110.007591      488.286801
        26        25        45     1      110.007591      488.286801
        26        27        28     1      112.590408      587.596246
        27        26        46     1      108.218735      463.772740
        27        26        47     1      108.218735      463.772740
        27        28        29     1      112.231979      634.459778
        27        28        48     1      108.218735      463.772708
        27        28        49     1      108.218735      463.772708
        28        29        50     1      110.007591      488.286801
        28        29        51     1      110.007591      488.286801
        29        28        48     1      109.793846      487.937804
        29        28        49     1      109.793846      487.937804
        36        15        37     1      108.513290      354.940156
        38        16        39     1      108.141113      343.643464
        41        21        42     1      108.696800      357.638183
        41        21        43     1      108.696800      357.638183
        42        21        43     1      108.696815      357.638151
        44        25        45     1      107.943527      345.985281
        46        26        47     1      108.332138      339.167192
        48        28        49     1      108.332138      339.167160
        50        29        51     1      107.943527      345.985281

[ dihedrals ] ; propers for gromacs 4.5 or higher, use funct 9
;       ai        aj        ak        al funct           phase               k        pn
         1         2         3         4     9        0.000000        0.186826         1
         1         2         3         4     9      180.000000       22.273327         2
         1         2         3         4     9        0.000000        0.345355         3
         1         2         3         4     9      180.000000       -1.023048         4
         1         2         3        31     9        0.000000        0.135063         1
         1         2         3        31     9      180.000000       14.289452         2
         1         2         3        31     9        0.000000       -0.030980         3
         1         2         3        31     9      180.000000        0.272937         4
         1         2         8         7     9        0.000000        0.294619         1
         1         2         8         7     9      180.000000       17.483557         2
         1         2         8         7     9        0.000000        0.238697         3
         1         2         8         7     9      180.000000       -0.428986         4
         1         2         8        33     9        0.000000        0.176307         1
         1         2         8        33     9      180.000000       12.773545         2
         1         2         8        33     9        0.000000       -0.138833         3
         1         2         8        33     9      180.000000        0.216291         4
         2         3         4         5     9        0.000000       -0.209253         1
         2         3         4         5     9      180.000000       17.797157         2
         2         3         4         5     9        0.000000       -1.368126         3
         2         3         4         5     9      180.000000       -0.371890         4
         2         3         4        30     9        0.000000        0.127923         1
         2         3         4        30     9      180.000000       14.288113         2
         2         3         4        30     9        0.000000       -0.557617         3
         2         3         4        30     9      180.000000       -0.267783         4
         2         8         7         5     9        0.000000       -0.169464         1
         2         8         7         5     9      180.000000       20.049047         2
         2         8         7         5     9        0.000000       -1.569372         3
         2         8         7         5     9      180.000000       -0.467994         4
         2         8         7        32     9        0.000000        0.096550         1
         2         8         7        32     9      180.000000       14.746340         2
         2         8         7        32     9        0.000000       -0.411597         3
         2         8         7        32     9      180.000000        0.138247         4
         3         2         8         7     9        0.000000       -0.116941         1
         3         2         8         7     9      180.000000       16.302386         2
         3         2         8         7     9        0.000000       -1.150962         3
         3         2         8         7     9      180.000000       -0.261849         4
         3         2         8        33     9        0.000000       -0.076299         1
         3         2         8        33     9      180.000000       12.768064         2
         3         2         8        33     9        0.000000       -0.646427         3
         3         2         8        33     9      180.000000        0.121953         4
         3         4         5         6     9        0.000000        0.404758         1
         3         4         5         6     9      180.000000       12.427253         2
         3         4         5         6     9        0.000000       -1.016582         3
         3         4         5         6     9      180.000000       -0.294579         4
         3         4         5         7     9        0.000000        0.209835         1
         3         4         5         7     9      180.000000       12.904823         2
         3         4         5         7     9        0.000000       -1.255271         3
         3         4         5         7     9      180.000000       -0.213921         4
         3         4        30         9     9        0.000000        0.009578         1
         3         4        30         9     9      180.000000        5.058449         2
         3         4        30         9     9        0.000000       -0.564987         3
         3         4        30         9     9      180.000000        0.234283         4
         3         4        30        52     9        0.000000       -0.422608         1
         3         4        30        52     9      180.000000        5.692272         2
         3         4        30        52     9        0.000000       -0.041720         3
         3         4        30        52     9      180.000000        0.185536         4
         4         3         2         8     9        0.000000       -0.189370         1
         4         3         2         8     9      180.000000       19.296915         2
         4         3         2         8     9        0.000000       -1.368784         3
         4         3         2         8     9      180.000000       -0.484140         4
         4         5         6         9     9        0.000000       -0.444624         1
         4         5         6         9     9      180.000000       22.260112         2
         4         5         6         9     9        0.000000       -4.654291         3
         4         5         6         9     9      180.000000        0.056115         4
         4         5         7         8     9        0.000000       -0.012387         1
         4         5         7         8     9      180.000000       17.723891         2
         4         5         7         8     9        0.000000       -1.235124         3
         4         5         7         8     9      180.000000       -0.375371         4
         4         5         7        32     9        0.000000        0.294991         1
         4         5         7        32     9      180.000000       12.519312         2
         4         5         7        32     9        0.000000       -0.159100         3
         4         5         7        32     9      180.000000       -0.017489         4
         4        30         9         6     9        0.000000       -0.383811         1
         4        30         9         6     9      180.000000       27.218509         2
         4        30         9         6     9        0.000000       -4.830136         3
         4        30         9         6     9      180.000000       -0.886474         4
         4        30         9        10     9        0.000000       -0.002553         1
         4        30         9        10     9      180.000000       17.588263         2
         4        30         9        10     9        0.000000        0.186853         3
         4        30         9        10     9      180.000000       -1.123081         4
         5         4         3        31     9        0.000000        0.074752         1
         5         4         3        31     9      180.000000       13.248458         2
         5         4         3        31     9        0.000000       -0.280321         3
         5         4         3        31     9      180.000000       -0.022932         4
         5         4        30         9     9        0.000000        0.302327         1
         5         4        30         9     9      180.000000       19.603061         2
         5         4        30         9     9        0.000000       -4.625359         3
         5         4        30         9     9      180.000000       -0.367576         4
         5         4        30        52     9        0.000000        1.410638         1
         5         4        30        52     9      180.000000       10.896588         2
         5         4        30        52     9        0.000000        0.373476         3
         5         4        30        52     9      180.000000       -0.104636         4
         5         6         9        10     9        0.000000        0.895770         1
         5         6         9        10     9      180.000000        9.436440         2
         5         6         9        10     9        0.000000        0.605352         3
         5         6         9        10     9      180.000000       -0.229981         4
         5         6         9        30     9        0.000000        0.009564         1
         5         6         9        30     9      180.000000       24.952741         2
         5         6         9        30     9        0.000000       -5.565227         3
         5         6         9        30     9      180.000000       -0.411808         4
         5         7         8        33     9        0.000000        0.011985         1
         5         7         8        33     9      180.000000       15.542166         2
         5         7         8        33     9        0.000000       -0.531527         3
         5         7         8        33     9      180.000000        0.086565         4
         6         5         4        30     9        0.000000        0.331286         1
         6         5         4        30     9      180.000000       16.040364         2
         6         5         4        30     9        0.000000       -2.772181         3
         6         5         4        30     9      180.000000       -0.632549         4
         6         5         7         8     9        0.000000       -0.063551         1
         6         5         7         8     9      180.000000       13.990013         2
         6         5         7         8     9        0.000000       -0.193356         3
         6         5         7         8     9      180.000000       -0.169907         4
         6         5         7        32     9        0.000000        0.029519         1
         6         5         7        32     9      180.000000       11.136364         2
         6         5         7        32     9        0.000000       -0.096908         3
         6         5         7        32     9      180.000000       -0.030111         4
         6         9        10        11     9        0.000000       -0.206270         1
         6         9        10        11     9      180.000000        0.718567         2
         6         9        10        11     9        0.000000        0.298879         3
         6         9        10        11     9      180.000000        0.091600         4
         6         9        10        12     9        0.000000       -0.206270         1
         6         9        10        12     9      180.000000        0.718567         2
         6         9        10        12     9        0.000000        0.298879         3
         6         9        10        12     9      180.000000        0.091600         4
         6         9        10        13     9        0.000000       -1.373144         1
         6         9        10        13     9      180.000000        0.286960         2
         6         9        10        13     9        0.000000        0.798096         3
         6         9        10        13     9      180.000000       -0.165687         4
         6         9        30        52     9        0.000000        0.188818         1
         6         9        30        52     9      180.000000       16.393337         2
         6         9        30        52     9        0.000000        0.085820         3
         6         9        30        52     9      180.000000       -0.573504         4
         7         5         4        30     9        0.000000        0.351088         1
         7         5         4        30     9      180.000000       12.759191         2
         7         5         4        30     9        0.000000       -1.439155         3
         7         5         4        30     9      180.000000       -0.214735         4
         7         5         6         9     9        0.000000        0.624767         1
         7         5         6         9     9      180.000000        4.526406         2
         7         5         6         9     9        0.000000       -0.180511         3
         7         5         6         9     9      180.000000        0.232364         4
         8         2         3        31     9        0.000000       -0.004367         1
         8         2         3        31     9      180.000000       14.132230         2
         8         2         3        31     9        0.000000       -0.511667         3
         8         2         3        31     9      180.000000        0.065797         4
         9        10        13        14     9        0.000000       -2.504795         1
         9        10        13        14     9      180.000000       -7.736277         2
         9        10        13        14     9        0.000000        3.106248         3
         9        10        13        14     9      180.000000        0.646986         4
         9        10        13        34     9        0.000000       -8.818528         1
         9        10        13        34     9      180.000000       -5.051580         2
         9        10        13        34     9        0.000000       -0.278325         3
         9        10        13        34     9      180.000000        0.459607         4
        10         9        30        52     9        0.000000        0.361714         1
        10         9        30        52     9      180.000000       12.805452         2
        10         9        30        52     9        0.000000        0.139270         3
        10         9        30        52     9      180.000000       -0.187137         4
        10        13        14        15     9        0.000000       -2.612679         1
        10        13        14        15     9      180.000000       -0.504228         2
        10        13        14        15     9        0.000000        0.676649         3
        10        13        14        15     9      180.000000       -0.079929         4
        10        13        14        17     9        0.000000        5.562338         1
        10        13        14        17     9      180.000000       -1.275017         2
        10        13        14        17     9        0.000000        0.393829         3
        10        13        14        17     9      180.000000       -0.022810         4
        10        13        14        35     9        0.000000        0.961040         1
        10        13        14        35     9      180.000000       -0.325973         2
        10        13        14        35     9        0.000000        0.519600         3
        10        13        14        35     9      180.000000        0.122664         4
        11        10         9        30     9        0.000000        0.023984         1
        11        10         9        30     9      180.000000        0.118713         2
        11        10         9        30     9        0.000000        0.065493         3
        11        10         9        30     9      180.000000        0.022134         4
        11        10        13        14     9        0.000000        0.942346         1
        11        10        13        14     9      180.000000        0.592041         2
        11        10        13        14     9        0.000000        1.789195         3
        11        10        13        14     9      180.000000        0.036572         4
        11        10        13        34     9        0.000000        0.672541         1
        11        10        13        34     9      180.000000       -0.014940         2
        11        10        13        34     9        0.000000       -1.075164         3
        11        10        13        34     9      180.000000       -0.176386         4
        12        10         9        30     9        0.000000        0.023984         1
        12        10         9        30     9      180.000000        0.118713         2
        12        10         9        30     9        0.000000        0.065493         3
        12        10         9        30     9      180.000000        0.022134         4
        12        10        13        14     9        0.000000        0.942346         1
        12        10        13        14     9      180.000000        0.592041         2
        12        10        13        14     9        0.000000        1.789195         3
        12        10        13        14     9      180.000000        0.036572         4
        12        10        13        34     9        0.000000        0.672541         1
        12        10        13        34     9      180.000000       -0.014940         2
        12        10        13        34     9        0.000000       -1.075164         3
        12        10        13        34     9      180.000000       -0.176386         4
        13        10         9        30     9        0.000000        1.175047         1
        13        10         9        30     9      180.000000       -0.170191         2
        13        10         9        30     9        0.000000        0.111648         3
        13        10         9        30     9      180.000000       -0.116631         4
        13        14        15        16     9        0.000000       -2.321121         1
        13        14        15        16     9      180.000000        0.482412         2
        13        14        15        16     9        0.000000        0.201938         3
        13        14        15        16     9      180.000000        0.054180         4
        13        14        15        36     9        0.000000        0.107068         1
        13        14        15        36     9      180.000000        0.107372         2
        13        14        15        36     9        0.000000        0.333903         3
        13        14        15        36     9      180.000000       -0.053477         4
        13        14        15        37     9        0.000000        0.107068         1
        13        14        15        37     9      180.000000        0.107372         2
        13        14        15        37     9        0.000000        0.333903         3
        13        14        15        37     9      180.000000       -0.053477         4
        13        14        17        18     9        0.000000       -0.412092         1
        13        14        17        18     9      180.000000        2.678134         2
        13        14        17        18     9        0.000000        0.086392         3
        13        14        17        18     9      180.000000        0.227349         4
        13        14        17        19     9        0.000000       -0.476622         1
        13        14        17        19     9      180.000000        3.094664         2
        13        14        17        19     9        0.000000        0.335654         3
        13        14        17        19     9      180.000000        0.266510         4
        14        15        16        19     9        0.000000       -0.038387         1
        14        15        16        19     9      180.000000        4.395980         2
        14        15        16        19     9        0.000000       -0.123564         3
        14        15        16        19     9      180.000000       -1.806881         4
        14        15        16        38     9        0.000000        0.014370         1
        14        15        16        38     9      180.000000       -0.073115         2
        14        15        16        38     9        0.000000        0.024077         3
        14        15        16        38     9      180.000000        0.124384         4
        14        15        16        39     9        0.000000        0.014370         1
        14        15        16        39     9      180.000000       -0.073115         2
        14        15        16        39     9        0.000000        0.024077         3
        14        15        16        39     9      180.000000        0.124384         4
        14        17        19        16     9        0.000000       -0.586207         1
        14        17        19        16     9      180.000000       17.846302         2
        14        17        19        16     9        0.000000       -0.107111         3
        14        17        19        16     9      180.000000       -1.517731         4
        14        17        19        20     9        0.000000        1.748479         1
        14        17        19        20     9      180.000000       10.879480         2
        14        17        19        20     9        0.000000        0.806593         3
        14        17        19        20     9      180.000000       -0.625476         4
        15        14        13        34     9        0.000000       -1.689477         1
        15        14        13        34     9      180.000000       -0.875495         2
        15        14        13        34     9        0.000000        0.099058         3
        15        14        13        34     9      180.000000       -0.157741         4
        15        14        17        18     9        0.000000        4.526654         1
        15        14        17        18     9      180.000000        4.473567         2
        15        14        17        18     9        0.000000       -0.389454         3
        15        14        17        18     9      180.000000       -0.426924         4
        15        14        17        19     9        0.000000       -0.428807         1
        15        14        17        19     9      180.000000        6.746923         2
        15        14        17        19     9        0.000000       -1.117923         3
        15        14        17        19     9      180.000000       -0.747998         4
        15        16        19        17     9        0.000000       -1.786134         1
        15        16        19        17     9      180.000000        5.578944         2
        15        16        19        17     9        0.000000       -0.334713         3
        15        16        19        17     9      180.000000       -1.019729         4
        15        16        19        20     9        0.000000       -0.982164         1
        15        16        19        20     9      180.000000        1.118137         2
        15        16        19        20     9        0.000000        0.643596         3
        15        16        19        20     9      180.000000       -0.269745         4
        16        15        14        17     9        0.000000       -1.059894         1
        16        15        14        17     9      180.000000        6.292193         2
        16        15        14        17     9        0.000000       -0.314511         3
        16        15        14        17     9      180.000000       -1.473083         4
        16        15        14        35     9        0.000000       -0.039652         1
        16        15        14        35     9      180.000000        0.136392         2
        16        15        14        35     9        0.000000        0.140459         3
        16        15        14        35     9      180.000000        0.194814         4
        16        19        17        18     9        0.000000        1.670021         1
        16        19        17        18     9      180.000000       22.709838         2
        16        19        17        18     9        0.000000        0.650788         3
        16        19        17        18     9      180.000000       -1.143129         4
        16        19        20        21     9        0.000000        1.056288         1
        16        19        20        21     9      180.000000        0.248433         2
        16        19        20        21     9        0.000000        1.020115         3
        16        19        20        21     9      180.000000        0.035708         4
        16        19        20        22     9        0.000000       -0.006752         1
        16        19        20        22     9      180.000000       -0.687001         2
        16        19        20        22     9        0.000000        0.965898         3
        16        19        20        22     9      180.000000        0.047408         4
        16        19        20        40     9        0.000000       -1.324653         1
        16        19        20        40     9      180.000000       -0.237460         2
        16        19        20        40     9        0.000000        0.923646         3
        16        19        20        40     9      180.000000       -0.060215         4
        17        14        13        34     9        0.000000        4.571780         1
        17        14        13        34     9      180.000000       -1.268762         2
        17        14        13        34     9        0.000000        0.152952         3
        17        14        13        34     9      180.000000       -0.020513         4
        17        14        15        36     9        0.000000       -0.054612         1
        17        14        15        36     9      180.000000       -0.042548         2
        17        14        15        36     9        0.000000       -0.087538         3
        17        14        15        36     9      180.000000        0.153489         4
        17        14        15        37     9        0.000000       -0.054612         1
        17        14        15        37     9      180.000000       -0.042548         2
        17        14        15        37     9        0.000000       -0.087538         3
        17        14        15        37     9      180.000000        0.153489         4
        17        19        16        38     9        0.000000        0.108553         1
        17        19        16        38     9      180.000000       -0.000440         2
        17        19        16        38     9        0.000000       -0.019981         3
        17        19        16        38     9      180.000000        0.146580         4
        17        19        16        39     9        0.000000        0.108553         1
        17        19        16        39     9      180.000000       -0.000440         2
        17        19        16        39     9        0.000000       -0.019981         3
        17        19        16        39     9      180.000000        0.146580         4
        17        19        20        21     9        0.000000        0.922000         1
        17        19        20        21     9      180.000000       -0.058052         2
        17        19        20        21     9        0.000000        0.548524         3
        17        19        20        21     9      180.000000        0.035455         4
        17        19        20        22     9        0.000000       -0.527072         1
        17        19        20        22     9      180.000000        0.559860         2
        17        19        20        22     9        0.000000       -0.136893         3
        17        19        20        22     9      180.000000        0.221963         4
        17        19        20        40     9        0.000000       -0.542437         1
        17        19        20        40     9      180.000000       -0.062983         2
        17        19        20        40     9        0.000000       -0.120262         3
        17        19        20        40     9      180.000000        0.202540         4
        18        17        14        35     9        0.000000        0.328981         1
        18        17        14        35     9      180.000000        0.440377         2
        18        17        14        35     9        0.000000       -0.229265         3
        18        17        14        35     9      180.000000        0.148233         4
        18        17        19        20     9        0.000000        1.661571         1
        18        17        19        20     9      180.000000       14.445686         2
        18        17        19        20     9        0.000000        0.543062         3
        18        17        19        20     9      180.000000       -0.577490         4
        19        16        15        36     9        0.000000       -0.019400         1
        19        16        15        36     9      180.000000        0.004663         2
        19        16        15        36     9        0.000000        0.107646         3
        19        16        15        36     9      180.000000        0.111993         4
        19        16        15        37     9        0.000000       -0.019400         1
        19        16        15        37     9      180.000000        0.004663         2
        19        16        15        37     9        0.000000        0.107646         3
        19        16        15        37     9      180.000000        0.111993         4
        19        17        14        35     9        0.000000        1.084651         1
        19        17        14        35     9      180.000000       -0.109916         2
        19        17        14        35     9        0.000000       -0.011079         3
        19        17        14        35     9      180.000000        0.625760         4
        19        20        21        41     9        0.000000        0.027932         1
        19        20        21        41     9      180.000000        0.048555         2
        19        20        21        41     9        0.000000        0.571346         3
        19        20        21        41     9      180.000000        0.019893         4
        19        20        21        42     9        0.000000        0.027932         1
        19        20        21        42     9      180.000000        0.048555         2
        19        20        21        42     9        0.000000        0.571346         3
        19        20        21        42     9      180.000000        0.019893         4
        19        20        21        43     9        0.000000        0.027932         1
        19        20        21        43     9      180.000000        0.048555         2
        19        20        21        43     9        0.000000        0.571346         3
        19        20        21        43     9      180.000000        0.019893         4
        19        20        22        23     9        0.000000       -3.403668         1
        19        20        22        23     9      180.000000        1.746720         2
        19        20        22        23     9        0.000000       -0.045864         3
        19        20        22        23     9      180.000000       -0.140913         4
        19        20        22        24     9        0.000000        1.279096         1
        19        20        22        24     9      180.000000        2.095355         2
        19        20        22        24     9        0.000000        0.014931         3
        19        20        22        24     9      180.000000       -0.193603         4
        20        19        16        38     9        0.000000       -0.030206         1
        20        19        16        38     9      180.000000       -0.404530         2
        20        19        16        38     9        0.000000        1.182118         3
        20        19        16        38     9      180.000000        0.004763         4
        20        19        16        39     9        0.000000       -0.030206         1
        20        19        16        39     9      180.000000       -0.404530         2
        20        19        16        39     9        0.000000        1.182118         3
        20        19        16        39     9      180.000000        0.004763         4
        20        22        24        25     9        0.000000        8.087900         1
        20        22        24        25     9      180.000000       10.076018         2
        20        22        24        25     9        0.000000        0.319309         3
        20        22        24        25     9      180.000000       -0.471963         4
        20        22        24        29     9        0.000000        8.087900         1
        20        22        24        29     9      180.000000       10.076019         2
        20        22        24        29     9        0.000000        0.319308         3
        20        22        24        29     9      180.000000       -0.471964         4
        21        20        22        23     9        0.000000       -0.685838         1
        21        20        22        23     9      180.000000        1.236800         2
        21        20        22        23     9        0.000000        0.098838         3
        21        20        22        23     9      180.000000        0.381403         4
        21        20        22        24     9        0.000000        0.141944         1
        21        20        22        24     9      180.000000        0.745404         2
        21        20        22        24     9        0.000000       -0.234290         3
        21        20        22        24     9      180.000000        0.174722         4
        22        20        21        41     9        0.000000        0.033524         1
        22        20        21        41     9      180.000000        0.089526         2
        22        20        21        41     9        0.000000        0.344680         3
        22        20        21        41     9      180.000000        0.003302         4
        22        20        21        42     9        0.000000        0.033524         1
        22        20        21        42     9      180.000000        0.089526         2
        22        20        21        42     9        0.000000        0.344680         3
        22        20        21        42     9      180.000000        0.003302         4
        22        20        21        43     9        0.000000        0.033524         1
        22        20        21        43     9      180.000000        0.089526         2
        22        20        21        43     9        0.000000        0.344680         3
        22        20        21        43     9      180.000000        0.003302         4
        22        24        25        26     9        0.000000        0.440908         1
        22        24        25        26     9      180.000000        0.444606         2
        22        24        25        26     9        0.000000        0.059412         3
        22        24        25        26     9      180.000000        0.206044         4
        22        24        25        44     9        0.000000       -0.028685         1
        22        24        25        44     9      180.000000       -0.001927         2
        22        24        25        44     9        0.000000        0.252664         3
        22        24        25        44     9      180.000000       -0.014307         4
        22        24        25        45     9        0.000000       -0.028685         1
        22        24        25        45     9      180.000000       -0.001927         2
        22        24        25        45     9        0.000000        0.252664         3
        22        24        25        45     9      180.000000       -0.014307         4
        22        24        29        28     9        0.000000        0.440908         1
        22        24        29        28     9      180.000000        0.444606         2
        22        24        29        28     9        0.000000        0.059412         3
        22        24        29        28     9      180.000000        0.206044         4
        22        24        29        50     9        0.000000       -0.028685         1
        22        24        29        50     9      180.000000       -0.001926         2
        22        24        29        50     9        0.000000        0.252664         3
        22        24        29        50     9      180.000000       -0.014306         4
        22        24        29        51     9        0.000000       -0.028685         1
        22        24        29        51     9      180.000000       -0.001926         2
        22        24        29        51     9        0.000000        0.252664         3
        22        24        29        51     9      180.000000       -0.014306         4
        23        22        20        40     9        0.000000        1.726652         1
        23        22        20        40     9      180.000000       -0.446050         2
        23        22        20        40     9        0.000000        0.259084         3
        23        22        20        40     9      180.000000       -0.318237         4
        23        22        24        25     9        0.000000       -0.829972         1
        23        22        24        25     9      180.000000       15.136697         2
        23        22        24        25     9        0.000000       -1.389194         3
        23        22        24        25     9      180.000000       -0.252977         4
        23        22        24        29     9        0.000000       -0.829973         1
        23        22        24        29     9      180.000000       15.136697         2
        23        22        24        29     9        0.000000       -1.389193         3
        23        22        24        29     9      180.000000       -0.252976         4
        24        22        20        40     9        0.000000       -0.568349         1
        24        22        20        40     9      180.000000       -0.182975         2
        24        22        20        40     9        0.000000       -0.162224         3
        24        22        20        40     9      180.000000       -0.005958         4
        24        25        26        27     9        0.000000        0.131837         1
        24        25        26        27     9      180.000000       -1.297547         2
        24        25        26        27     9        0.000000        0.387839         3
        24        25        26        27     9      180.000000       -0.141180         4
        24        25        26        46     9        0.000000       -0.102106         1
        24        25        26        46     9      180.000000        0.154514         2
        24        25        26        46     9        0.000000        0.456513         3
        24        25        26        46     9      180.000000        0.019598         4
        24        25        26        47     9        0.000000       -0.102106         1
        24        25        26        47     9      180.000000        0.154514         2
        24        25        26        47     9        0.000000        0.456513         3
        24        25        26        47     9      180.000000        0.019598         4
        24        29        28        27     9        0.000000        0.131838         1
        24        29        28        27     9      180.000000       -1.297547         2
        24        29        28        27     9        0.000000        0.387840         3
        24        29        28        27     9      180.000000       -0.141180         4
        24        29        28        48     9        0.000000       -0.102106         1
        24        29        28        48     9      180.000000        0.154513         2
        24        29        28        48     9        0.000000        0.456514         3
        24        29        28        48     9      180.000000        0.019598         4
        24        29        28        49     9        0.000000       -0.102106         1
        24        29        28        49     9      180.000000        0.154513         2
        24        29        28        49     9        0.000000        0.456514         3
        24        29        28        49     9      180.000000        0.019598         4
        25        24        29        28     9        0.000000       -0.005449         1
        25        24        29        28     9      180.000000       -2.867471         2
        25        24        29        28     9        0.000000        1.361352         3
        25        24        29        28     9      180.000000        0.109220         4
        25        24        29        50     9        0.000000       -0.081970         1
        25        24        29        50     9      180.000000        0.115740         2
        25        24        29        50     9        0.000000        1.147305         3
        25        24        29        50     9      180.000000       -0.023844         4
        25        24        29        51     9        0.000000       -0.081970         1
        25        24        29        51     9      180.000000        0.115740         2
        25        24        29        51     9        0.000000        1.147305         3
        25        24        29        51     9      180.000000       -0.023844         4
        25        26        27        28     9        0.000000        0.703463         1
        25        26        27        28     9      180.000000       -1.437896         2
        25        26        27        28     9        0.000000        0.641877         3
        25        26        27        28     9      180.000000        0.056741         4
        26        25        24        29     9        0.000000       -0.005450         1
        26        25        24        29     9      180.000000       -2.867471         2
        26        25        24        29     9        0.000000        1.361352         3
        26        25        24        29     9      180.000000        0.109220         4
        26        27        28        29     9        0.000000        0.703463         1
        26        27        28        29     9      180.000000       -1.437895         2
        26        27        28        29     9        0.000000        0.641877         3
        26        27        28        29     9      180.000000        0.056741         4
        26        27        28        48     9        0.000000       -0.063647         1
        26        27        28        48     9      180.000000        0.078884         2
        26        27        28        48     9        0.000000        0.431540         3
        26        27        28        48     9      180.000000       -0.001696         4
        26        27        28        49     9        0.000000       -0.063647         1
        26        27        28        49     9      180.000000        0.078884         2
        26        27        28        49     9        0.000000        0.431540         3
        26        27        28        49     9      180.000000       -0.001696         4
        27        26        25        44     9        0.000000       -0.026085         1
        27        26        25        44     9      180.000000        0.094479         2
        27        26        25        44     9        0.000000        0.296379         3
        27        26        25        44     9      180.000000        0.001937         4
        27        26        25        45     9        0.000000       -0.026085         1
        27        26        25        45     9      180.000000        0.094479         2
        27        26        25        45     9        0.000000        0.296379         3
        27        26        25        45     9      180.000000        0.001937         4
        27        28        29        50     9        0.000000       -0.026085         1
        27        28        29        50     9      180.000000        0.094480         2
        27        28        29        50     9        0.000000        0.296378         3
        27        28        29        50     9      180.000000        0.001937         4
        27        28        29        51     9        0.000000       -0.026085         1
        27        28        29        51     9      180.000000        0.094480         2
        27        28        29        51     9        0.000000        0.296378         3
        27        28        29        51     9      180.000000        0.001937         4
        28        27        26        46     9        0.000000       -0.063647         1
        28        27        26        46     9      180.000000        0.078883         2
        28        27        26        46     9        0.000000        0.431540         3
        28        27        26        46     9      180.000000       -0.001696         4
        28        27        26        47     9        0.000000       -0.063647         1
        28        27        26        47     9      180.000000        0.078883         2
        28        27        26        47     9        0.000000        0.431540         3
        28        27        26        47     9      180.000000       -0.001696         4
        29        24        25        44     9        0.000000       -0.081970         1
        29        24        25        44     9      180.000000        0.115739         2
        29        24        25        44     9        0.000000        1.147304         3
        29        24        25        44     9      180.000000       -0.023843         4
        29        24        25        45     9        0.000000       -0.081970         1
        29        24        25        45     9      180.000000        0.115739         2
        29        24        25        45     9        0.000000        1.147304         3
        29        24        25        45     9      180.000000       -0.023843         4
        30         4         3        31     9        0.000000       -0.130801         1
        30         4         3        31     9      180.000000       11.618944         2
        30         4         3        31     9        0.000000       -0.265605         3
        30         4         3        31     9      180.000000        0.046132         4
        32         7         8        33     9        0.000000       -0.155312         1
        32         7         8        33     9      180.000000       12.028454         2
        32         7         8        33     9        0.000000       -0.747945         3
        32         7         8        33     9      180.000000        0.341364         4
        34        13        14        35     9        0.000000       -0.804433         1
        34        13        14        35     9      180.000000       -0.767275         2
        34        13        14        35     9        0.000000        0.336928         3
        34        13        14        35     9      180.000000        0.015905         4
        35        14        15        36     9        0.000000       -0.111057         1
        35        14        15        36     9      180.000000        0.002772         2
        35        14        15        36     9        0.000000        0.368057         3
        35        14        15        36     9      180.000000       -0.073907         4
        35        14        15        37     9        0.000000       -0.111057         1
        35        14        15        37     9      180.000000        0.002772         2
        35        14        15        37     9        0.000000        0.368057         3
        35        14        15        37     9      180.000000       -0.073907         4
        36        15        16        38     9        0.000000       -0.042687         1
        36        15        16        38     9      180.000000        0.012428         2
        36        15        16        38     9        0.000000        0.280825         3
        36        15        16        38     9      180.000000       -0.016081         4
        36        15        16        39     9        0.000000       -0.042687         1
        36        15        16        39     9      180.000000        0.012428         2
        36        15        16        39     9        0.000000        0.280825         3
        36        15        16        39     9      180.000000       -0.016081         4
        37        15        16        38     9        0.000000       -0.042687         1
        37        15        16        38     9      180.000000        0.012428         2
        37        15        16        38     9        0.000000        0.280825         3
        37        15        16        38     9      180.000000       -0.016081         4
        37        15        16        39     9        0.000000       -0.042687         1
        37        15        16        39     9      180.000000        0.012428         2
        37        15        16        39     9        0.000000        0.280825         3
        37        15        16        39     9      180.000000       -0.016081         4
        40        20        21        41     9        0.000000       -0.021877         1
        40        20        21        41     9      180.000000        0.068248         2
        40        20        21        41     9        0.000000        0.576275         3
        40        20        21        41     9      180.000000       -0.025914         4
        40        20        21        42     9        0.000000       -0.021877         1
        40        20        21        42     9      180.000000        0.068248         2
        40        20        21        42     9        0.000000        0.576275         3
        40        20        21        42     9      180.000000       -0.025914         4
        40        20        21        43     9        0.000000       -0.021877         1
        40        20        21        43     9      180.000000        0.068248         2
        40        20        21        43     9        0.000000        0.576275         3
        40        20        21        43     9      180.000000       -0.025914         4
        44        25        26        46     9        0.000000       -0.023964         1
        44        25        26        46     9      180.000000        0.011206         2
        44        25        26        46     9        0.000000        0.270678         3
        44        25        26        46     9      180.000000        0.028411         4
        44        25        26        47     9        0.000000       -0.023964         1
        44        25        26        47     9      180.000000        0.011206         2
        44        25        26        47     9        0.000000        0.270678         3
        44        25        26        47     9      180.000000        0.028411         4
        45        25        26        46     9        0.000000       -0.023964         1
        45        25        26        46     9      180.000000        0.011206         2
        45        25        26        46     9        0.000000        0.270678         3
        45        25        26        46     9      180.000000        0.028411         4
        45        25        26        47     9        0.000000       -0.023964         1
        45        25        26        47     9      180.000000        0.011206         2
        45        25        26        47     9        0.000000        0.270678         3
        45        25        26        47     9      180.000000        0.028411         4
        48        28        29        50     9        0.000000       -0.023962         1
        48        28        29        50     9      180.000000        0.011207         2
        48        28        29        50     9        0.000000        0.270678         3
        48        28        29        50     9      180.000000        0.028410         4
        48        28        29        51     9        0.000000       -0.023962         1
        48        28        29        51     9      180.000000        0.011207         2
        48        28        29        51     9        0.000000        0.270678         3
        48        28        29        51     9      180.000000        0.028410         4
        49        28        29        50     9        0.000000       -0.023962         1
        49        28        29        50     9      180.000000        0.011207         2
        49        28        29        50     9        0.000000        0.270678         3
        49        28        29        50     9      180.000000        0.028410         4
        49        28        29        51     9        0.000000       -0.023962         1
        49        28        29        51     9      180.000000        0.011207         2
        49        28        29        51     9        0.000000        0.270678         3
        49        28        29        51     9      180.000000        0.028410         4

[ dihedrals ] ; impropers
;       ai        aj        ak        al funct           phase               k        pn
         3         2         4        31     4      180.000000        0.909757         2
         3         4        31         2     4      180.000000        0.909757         2
         3        31         2         4     4      180.000000        0.909757         2
         7         5         8        32     4      180.000000        0.166139         2
         7         8        32         5     4      180.000000        0.166139         2
         7        32         5         8     4      180.000000        0.166139         2
        17        14        18        19     4      180.000000       13.231339         2
        17        18        19        14     4      180.000000       13.231339         2
        17        19        14        18     4      180.000000       13.231339         2
        22        20        23        24     4      180.000000        9.205954         2
        22        23        24        20     4      180.000000        9.205954         2
        22        24        20        23     4      180.000000        9.205954         2

[ pairs ]
;       ai        aj funct
         1         4     1
         1         7     1
         1        31     1
         1        33     1
         2         5     1
         2        30     1
         2        32     1
         3         6     1
         3         7     1
         3         9     1
         3        33     1
         3        52     1
         4         8     1
         4        10     1
         4        32     1
         5        10     1
         5        31     1
         5        33     1
         5        52     1
         6         8     1
         6        11     1
         6        12     1
         6        13     1
         6        32     1
         6        52     1
         7         9     1
         7        30     1
         8        31     1
         9        14     1
         9        34     1
        10        15     1
        10        17     1
        10        35     1
        10        52     1
        11        14     1
        11        30     1
        11        34     1
        12        14     1
        12        30     1
        12        34     1
        13        16     1
        13        18     1
        13        19     1
        13        30     1
        13        36     1
        13        37     1
        14        20     1
        14        38     1
        14        39     1
        15        18     1
        15        20     1
        15        34     1
        16        18     1
        16        21     1
        16        22     1
        16        35     1
        16        40     1
        17        21     1
        17        22     1
        17        34     1
        17        36     1
        17        37     1
        17        38     1
        17        39     1
        17        40     1
        18        20     1
        18        35     1
        19        23     1
        19        24     1
        19        35     1
        19        36     1
        19        37     1
        19        41     1
        19        42     1
        19        43     1
        20        25     1
        20        29     1
        20        38     1
        20        39     1
        21        23     1
        21        24     1
        22        26     1
        22        28     1
        22        41     1
        22        42     1
        22        43     1
        22        44     1
        22        45     1
        22        50     1
        22        51     1
        23        25     1
        23        29     1
        23        40     1
        24        27     1
        24        40     1
        24        46     1
        24        47     1
        24        48     1
        24        49     1
        25        28     1
        25        50     1
        25        51     1
        26        29     1
        26        48     1
        26        49     1
        27        44     1
        27        45     1
        27        50     1
        27        51     1
        28        46     1
        28        47     1
        29        44     1
        29        45     1
        30        31     1
        32        33     1
        34        35     1
        35        36     1
        35        37     1
        36        38     1
        36        39     1
        37        38     1
        37        39     1
        40        41     1
        40        42     1
        40        43     1
        44        46     1
        44        47     1
        45        46     1
        45        47     1
        48        50     1
        48        51     1
        49        50     1
        49        51     1
