; ITP file created by ByteFF-ML, 2025-12-06 08:01:45.141958

[ atomtypes ]
;name           bonded.type        at.num        mass        charge   ptype           sigma         epsilon
 cl0bf                                 17      0.0000       0.00000       A     3.46694e-01     1.10425e+00
 c1bf                                   6      0.0000       0.00000       A     3.31523e-01     4.12702e-01
 c2bf                                   6      0.0000       0.00000       A     3.31471e-01     4.12036e-01
 c3bf                                   6      0.0000       0.00000       A     3.31427e-01     4.11505e-01
 c4bf                                   6      0.0000       0.00000       A     3.31470e-01     4.12980e-01
 c5bf                                   6      0.0000       0.00000       A     3.31439e-01     4.14024e-01
 c6bf                                   6      0.0000       0.00000       A     3.31457e-01     4.13275e-01
 c7bf                                   6      0.0000       0.00000       A     3.31504e-01     4.12381e-01
 c8bf                                   6      0.0000       0.00000       A     3.31303e-01     4.11709e-01
 s9bf                                  16      0.0000       0.00000       A     4.06355e-01     2.53552e-01
 o10bf                                  8      0.0000       0.00000       A     3.05070e-01     6.11721e-01
 o11bf                                  8      0.0000       0.00000       A     3.05070e-01     6.11721e-01
 n12bf                                  7      0.0000       0.00000       A     3.50462e-01     2.20762e-01
 c13bf                                  6      0.0000       0.00000       A     3.40102e-01     4.49763e-01
 c14bf                                  6      0.0000       0.00000       A     3.39888e-01     4.51758e-01
 c15bf                                  6      0.0000       0.00000       A     3.39876e-01     4.51158e-01
 c16bf                                  6      0.0000       0.00000       A     3.31760e-01     4.12573e-01
 o17bf                                  8      0.0000       0.00000       A     3.04794e-01     6.15556e-01
 n18bf                                  7      0.0000       0.00000       A     3.18260e-01     6.88160e-01
 c19bf                                  6      0.0000       0.00000       A     3.39757e-01     4.50874e-01
 c20bf                                  6      0.0000       0.00000       A     3.39605e-01     4.49879e-01
 c21bf                                  6      0.0000       0.00000       A     3.31657e-01     4.13830e-01
 o22bf                                  8      0.0000       0.00000       A     3.04754e-01     6.13558e-01
 n23bf                                  7      0.0000       0.00000       A     3.17857e-01     6.84912e-01
 c24bf                                  6      0.0000       0.00000       A     3.39840e-01     4.50763e-01
 c25bf                                  6      0.0000       0.00000       A     3.39665e-01     4.51065e-01
 o26bf                                  8      0.0000       0.00000       A     3.15559e-01     3.02369e-01
 c27bf                                  6      0.0000       0.00000       A     3.39665e-01     4.51065e-01
 c28bf                                  6      0.0000       0.00000       A     3.39840e-01     4.50763e-01
 s29bf                                 16      0.0000       0.00000       A     3.53422e-01     1.17932e+00
 h30bf                                  1      0.0000       0.00000       A     2.62394e-01     6.71578e-02
 h31bf                                  1      0.0000       0.00000       A     2.62477e-01     6.73142e-02
 h32bf                                  1      0.0000       0.00000       A     2.62503e-01     6.69312e-02
 h33bf                                  1      0.0000       0.00000       A     2.62494e-01     6.72839e-02
 h34bf                                  1      0.0000       0.00000       A     1.10209e-01     4.06040e-02
 h35bf                                  1      0.0000       0.00000       A     2.41336e-01     8.93895e-02
 h36bf                                  1      0.0000       0.00000       A     2.59998e-01     8.72188e-02
 h37bf                                  1      0.0000       0.00000       A     2.59998e-01     8.72188e-02
 h38bf                                  1      0.0000       0.00000       A     2.42182e-01     8.67208e-02
 h39bf                                  1      0.0000       0.00000       A     2.42182e-01     8.67208e-02
 h40bf                                  1      0.0000       0.00000       A     2.42267e-01     8.78125e-02
 h41bf                                  1      0.0000       0.00000       A     2.59883e-01     8.72300e-02
 h42bf                                  1      0.0000       0.00000       A     2.59883e-01     8.72300e-02
 h43bf                                  1      0.0000       0.00000       A     2.59883e-01     8.72300e-02
 h44bf                                  1      0.0000       0.00000       A     2.42002e-01     8.70017e-02
 h45bf                                  1      0.0000       0.00000       A     2.42002e-01     8.70017e-02
 h46bf                                  1      0.0000       0.00000       A     2.42029e-01     8.74327e-02
 h47bf                                  1      0.0000       0.00000       A     2.42029e-01     8.74327e-02
 h48bf                                  1      0.0000       0.00000       A     2.42029e-01     8.74327e-02
 h49bf                                  1      0.0000       0.00000       A     2.42029e-01     8.74327e-02
 h50bf                                  1      0.0000       0.00000       A     2.42002e-01     8.70017e-02
 h51bf                                  1      0.0000       0.00000       A     2.42002e-01     8.70017e-02

[ moleculetype ]
;name             nrexcl
 16352_1e              3

[ atoms ]
;       nr            type      resi   res      atom      cgnr      charge          mass ; qtot
         1           cl0bf         1   UNL       cl0         1    -0.21134       35.4530 ; qtot   -0.211
         2            c1bf         1   UNL        c1         2     0.13061       12.0110 ; qtot   -0.081
         3            c2bf         1   UNL        c2         3    -0.06954       12.0110 ; qtot   -0.150
         4            c3bf         1   UNL        c3         4    -0.12697       12.0110 ; qtot   -0.277
         5            c4bf         1   UNL        c4         5    -0.10474       12.0110 ; qtot   -0.382
         6            c5bf         1   UNL        c5         6    -0.02422       12.0110 ; qtot   -0.406
         7            c6bf         1   UNL        c6         7    -0.04374       12.0110 ; qtot   -0.450
         8            c7bf         1   UNL        c7         8    -0.10617       12.0110 ; qtot   -0.556
         9            c8bf         1   UNL        c8         9    -0.24961       12.0110 ; qtot   -0.806
        10            s9bf         1   UNL        s9        10     1.11789       32.0670 ; qtot    0.312
        11           o10bf         1   UNL       o10        11    -0.51839       15.9990 ; qtot   -0.206
        12           o11bf         1   UNL       o11        12    -0.51839       15.9990 ; qtot   -0.725
        13           n12bf         1   UNL       n12        13    -0.82296       14.0070 ; qtot   -1.548
        14           c13bf         1   UNL       c13        14     0.12223       12.0110 ; qtot   -1.425
        15           c14bf         1   UNL       c14        15    -0.09526       12.0110 ; qtot   -1.521
        16           c15bf         1   UNL       c15        16     0.09495       12.0110 ; qtot   -1.426
        17           c16bf         1   UNL       c16        17     0.54926       12.0110 ; qtot   -0.876
        18           o17bf         1   UNL       o17        18    -0.54655       15.9990 ; qtot   -1.423
        19           n18bf         1   UNL       n18        19    -0.40098       14.0070 ; qtot   -1.824
        20           c19bf         1   UNL       c19        20     0.05721       12.0110 ; qtot   -1.767
        21           c20bf         1   UNL       c20        21    -0.09612       12.0110 ; qtot   -1.863
        22           c21bf         1   UNL       c21        22     0.58704       12.0110 ; qtot   -1.276
        23           o22bf         1   UNL       o22        23    -0.59786       15.9990 ; qtot   -1.874
        24           n23bf         1   UNL       n23        24    -0.41249       14.0070 ; qtot   -2.286
        25           c24bf         1   UNL       c24        25     0.06521       12.0110 ; qtot   -2.221
        26           c25bf         1   UNL       c25        26     0.13811       12.0110 ; qtot   -2.083
        27           o26bf         1   UNL       o26        27    -0.45725       15.9990 ; qtot   -2.540
        28           c27bf         1   UNL       c27        28     0.13811       12.0110 ; qtot   -2.402
        29           c28bf         1   UNL       c28        29     0.06521       12.0110 ; qtot   -2.337
        30           s29bf         1   UNL       s29        30     0.16339       32.0670 ; qtot   -2.173
        31           h30bf         1   UNL       h30        31     0.13931        1.0080 ; qtot   -2.034
        32           h31bf         1   UNL       h31        32     0.22059        1.0080 ; qtot   -1.813
        33           h32bf         1   UNL       h32        33     0.12697        1.0080 ; qtot   -1.686
        34           h33bf         1   UNL       h33        34     0.13339        1.0080 ; qtot   -1.553
        35           h34bf         1   UNL       h34        35     0.48768        1.0080 ; qtot   -1.065
        36           h35bf         1   UNL       h35        36     0.09157        1.0080 ; qtot   -0.974
        37           h36bf         1   UNL       h36        37     0.07214        1.0080 ; qtot   -0.902
        38           h37bf         1   UNL       h37        38     0.07214        1.0080 ; qtot   -0.830
        39           h38bf         1   UNL       h38        39     0.05454        1.0080 ; qtot   -0.775
        40           h39bf         1   UNL       h39        40     0.05454        1.0080 ; qtot   -0.720
        41           h40bf         1   UNL       h40        41     0.08228        1.0080 ; qtot   -0.638
        42           h41bf         1   UNL       h41        42     0.05105        1.0080 ; qtot   -0.587
        43           h42bf         1   UNL       h42        43     0.05105        1.0080 ; qtot   -0.536
        44           h43bf         1   UNL       h43        44     0.05105        1.0080 ; qtot   -0.485
        45           h44bf         1   UNL       h44        45     0.06485        1.0080 ; qtot   -0.420
        46           h45bf         1   UNL       h45        46     0.06485        1.0080 ; qtot   -0.355
        47           h46bf         1   UNL       h46        47     0.05641        1.0080 ; qtot   -0.299
        48           h47bf         1   UNL       h47        48     0.05641        1.0080 ; qtot   -0.243
        49           h48bf         1   UNL       h48        49     0.05641        1.0080 ; qtot   -0.186
        50           h49bf         1   UNL       h49        50     0.05641        1.0080 ; qtot   -0.130
        51           h50bf         1   UNL       h50        51     0.06485        1.0080 ; qtot   -0.065
        52           h51bf         1   UNL       h51        52     0.06487        1.0080 ; qtot    0.000

[ bonds ]
;       ai        aj funct               r               k
         1         2     1        0.175897   147428.477661
         2         3     1        0.139171   310613.939160
         2         8     1        0.140758   279692.662256
         3         4     1        0.140015   304617.519434
         3        31     1        0.108452   324238.804199
         4         5     1        0.142130   248478.168262
         4        30     1        0.175235   151115.167993
         5         6     1        0.143724   247906.903125
         5         7     1        0.140922   291274.558545
         6         9     1        0.136391   394943.169092
         6        32     1        0.108378   329803.340332
         7         8     1        0.138873   332210.493799
         7        33     1        0.108596   320512.097217
         8        34     1        0.108457   325033.187061
         9        10     1        0.178029   143516.256348
         9        30     1        0.175354   146811.028662
        10        11     1        0.146398   521558.276953
        10        12     1        0.146398   521558.276953
        10        13     1        0.169145   147737.183008
        13        14     1        0.146749   191880.936719
        13        35     1        0.101970   399856.508936
        14        15     1        0.153763   166543.144482
        14        17     1        0.153780   143807.328320
        14        36     1        0.109521   296269.029785
        15        16     1        0.153943   173404.046436
        15        37     1        0.109161   311817.962793
        15        38     1        0.109161   311817.962793
        16        19     1        0.146731   190108.993311
        16        39     1        0.109491   295731.856689
        16        40     1        0.109491   295731.831152
        17        18     1        0.123040   609921.067773
        17        19     1        0.135997   293600.427393
        19        20     1        0.146082   191522.676611
        20        21     1        0.153522   178794.113037
        20        22     1        0.154579   145088.563403
        20        41     1        0.109199   304154.608252
        21        42     1        0.109216   305763.446143
        21        43     1        0.109216   305763.446143
        21        44     1        0.109216   305763.446143
        22        23     1        0.123348   593715.218164
        22        24     1        0.136666   294032.796191
        24        25     1        0.146801   191022.353564
        24        29     1        0.146801   191022.340796
        25        26     1        0.152763   185011.786279
        25        45     1        0.109338   299004.896924
        25        46     1        0.109338   299004.896924
        26        27     1        0.142906   199750.452344
        26        47     1        0.109582   293226.104443
        26        48     1        0.109582   293226.104443
        27        28     1        0.142906   199750.452344
        28        29     1        0.152763   185011.786279
        28        49     1        0.109582   293226.104443
        28        50     1        0.109582   293226.104443
        29        51     1        0.109338   299004.947998
        29        52     1        0.109338   299004.947998

[ angles ]
;       ai        aj        ak funct           theta             cth
         1         2         3     1      119.104164      333.077262
         1         2         8     1      118.821571      397.401090
         2         3         4     1      117.519066      648.679798
         2         3        31     1      120.622658      427.918734
         2         8         7     1      119.756187      607.973455
         2         8        34     1      119.508690      434.824543
         3         2         8     1      122.115601      596.885306
         3         4         5     1      121.588791      672.496090
         3         4        30     1      126.677902      374.187922
         4         3        31     1      121.765953      410.579420
         4         5         6     1      111.915421      507.049011
         4         5         7     1      118.965317      688.387194
         4        30         9     1       89.870605      441.019239
         5         4        30     1      111.860764      167.360000
         5         6         9     1      112.115067      380.307762
         5         6        32     1      125.196365      369.069200
         5         7         8     1      119.725304      690.363192
         5         7        33     1      120.081619      428.476018
         6         5         7     1      129.148819      446.701916
         6         9        10     1      124.816544      400.018453
         6         9        30     1      114.353470      167.360000
         7         8        34     1      120.882912      423.348900
         8         7        33     1      120.027306      436.441872
         9         6        32     1      122.991287      346.218977
         9        10        11     1      107.323891      593.452160
         9        10        12     1      107.323891      593.452160
         9        10        13     1      102.927811      497.179684
        10         9        30     1      120.618454      485.669598
        10        13        14     1      117.922180      564.967494
        10        13        35     1      108.727188      613.204221
        11        10        12     1      121.763451      713.938030
        11        10        13     1      107.277603      660.413781
        12        10        13     1      107.277603      660.413781
        13        14        15     1      114.651184      537.641063
        13        14        17     1      109.660690      536.687380
        13        14        36     1      109.303307      452.394074
        14        13        35     1      112.736290      495.544128
        14        15        16     1      103.618835      585.422974
        14        15        37     1      110.848923      481.543057
        14        15        38     1      110.848923      481.543057
        14        17        18     1      125.132507      420.544160
        14        17        19     1      107.967346      353.379647
        15        14        17     1      103.510841      547.371723
        15        14        36     1      110.870461      433.513053
        15        16        19     1      103.270203      586.268188
        15        16        39     1      112.132156      454.176533
        15        16        40     1      112.132156      454.176533
        16        15        37     1      111.340355      481.524989
        16        15        38     1      111.340355      481.524989
        16        19        17     1      113.311218      437.943709
        16        19        20     1      122.047386      514.268798
        17        14        36     1      107.652794      517.382155
        17        19        20     1      122.368851      545.953137
        18        17        19     1      126.699257      600.468992
        19        16        39     1      110.468552      450.026433
        19        16        40     1      110.468552      450.026369
        19        20        21     1      112.462791      689.158032
        19        20        22     1      109.734154      557.845194
        19        20        41     1      105.272728      542.259577
        20        21        42     1      110.287804      499.972359
        20        21        43     1      110.287804      499.972359
        20        21        44     1      110.287804      499.972359
        20        22        23     1      119.634476      398.868868
        20        22        24     1      118.134972      452.290649
        21        20        22     1      111.384232      621.169373
        21        20        41     1      108.504562      483.302978
        22        20        41     1      108.414406      479.417763
        22        24        25     1      122.242836      522.086889
        22        24        29     1      122.242836      522.086889
        23        22        24     1      121.980515      642.918371
        24        25        26     1      109.468040      691.740408
        24        25        45     1      109.737137      455.037229
        24        25        46     1      109.737137      455.037229
        24        29        28     1      109.468040      691.740408
        24        29        51     1      109.737137      455.037229
        24        29        52     1      109.737137      455.037229
        25        24        29     1      114.681778      504.716898
        25        26        27     1      112.231979      634.459778
        25        26        47     1      109.793846      487.937804
        25        26        48     1      109.793846      487.937804
        26        25        45     1      110.007591      488.286801
        26        25        46     1      110.007591      488.286801
        26        27        28     1      112.590408      587.596246
        27        26        47     1      108.218735      463.772740
        27        26        48     1      108.218735      463.772740
        27        28        29     1      112.231979      634.459778
        27        28        49     1      108.218735      463.772708
        27        28        50     1      108.218735      463.772708
        28        29        51     1      110.007591      488.286801
        28        29        52     1      110.007591      488.286801
        29        28        49     1      109.793846      487.937804
        29        28        50     1      109.793846      487.937804
        37        15        38     1      108.513290      354.940156
        39        16        40     1      108.141113      343.643432
        42        21        43     1      108.696800      357.638183
        42        21        44     1      108.696800      357.638183
        43        21        44     1      108.696815      357.638151
        45        25        46     1      107.943527      345.985281
        47        26        48     1      108.332138      339.167192
        49        28        50     1      108.332138      339.167160
        51        29        52     1      107.943527      345.985281

[ dihedrals ] ; propers for gromacs 4.5 or higher, use funct 9
;       ai        aj        ak        al funct           phase               k        pn
         1         2         3         4     9        0.000000        0.262941         1
         1         2         3         4     9      180.000000       21.431415         2
         1         2         3         4     9        0.000000        0.244858         3
         1         2         3         4     9      180.000000       -0.924323         4
         1         2         3        31     9        0.000000        0.160600         1
         1         2         3        31     9      180.000000       13.770846         2
         1         2         3        31     9        0.000000       -0.099603         3
         1         2         3        31     9      180.000000        0.272773         4
         1         2         8         7     9        0.000000        0.319836         1
         1         2         8         7     9      180.000000       17.216722         2
         1         2         8         7     9        0.000000        0.220201         3
         1         2         8         7     9      180.000000       -0.419567         4
         1         2         8        34     9        0.000000        0.129301         1
         1         2         8        34     9      180.000000       12.723794         2
         1         2         8        34     9        0.000000       -0.131519         3
         1         2         8        34     9      180.000000        0.224455         4
         2         3         4         5     9        0.000000        0.028994         1
         2         3         4         5     9      180.000000       17.573671         2
         2         3         4         5     9        0.000000       -1.300587         3
         2         3         4         5     9      180.000000       -0.314575         4
         2         3         4        30     9        0.000000       -0.145201         1
         2         3         4        30     9      180.000000       13.688676         2
         2         3         4        30     9        0.000000       -0.342644         3
         2         3         4        30     9      180.000000       -0.283022         4
         2         8         7         5     9        0.000000       -0.133698         1
         2         8         7         5     9      180.000000       20.833828         2
         2         8         7         5     9        0.000000       -1.522985         3
         2         8         7         5     9      180.000000       -0.483025         4
         2         8         7        33     9        0.000000        0.038985         1
         2         8         7        33     9      180.000000       15.165566         2
         2         8         7        33     9        0.000000       -0.471653         3
         2         8         7        33     9      180.000000        0.143977         4
         3         2         8         7     9        0.000000       -0.159634         1
         3         2         8         7     9      180.000000       16.390845         2
         3         2         8         7     9        0.000000       -1.228157         3
         3         2         8         7     9      180.000000       -0.266325         4
         3         2         8        34     9        0.000000        0.000866         1
         3         2         8        34     9      180.000000       12.763163         2
         3         2         8        34     9        0.000000       -0.541580         3
         3         2         8        34     9      180.000000        0.141623         4
         3         4         5         6     9        0.000000        0.453122         1
         3         4         5         6     9      180.000000       13.003614         2
         3         4         5         6     9        0.000000       -1.505177         3
         3         4         5         6     9      180.000000       -0.239092         4
         3         4         5         7     9        0.000000        0.210022         1
         3         4         5         7     9      180.000000       12.860797         2
         3         4         5         7     9        0.000000       -1.339319         3
         3         4         5         7     9      180.000000       -0.221185         4
         3         4        30         9     9        0.000000        0.432878         1
         3         4        30         9     9      180.000000        4.753608         2
         3         4        30         9     9        0.000000       -0.187118         3
         3         4        30         9     9      180.000000        0.239268         4
         4         3         2         8     9        0.000000       -0.190827         1
         4         3         2         8     9      180.000000       19.171065         2
         4         3         2         8     9        0.000000       -1.570960         3
         4         3         2         8     9      180.000000       -0.459644         4
         4         5         6         9     9        0.000000        0.325022         1
         4         5         6         9     9      180.000000       19.326133         2
         4         5         6         9     9        0.000000       -4.674761         3
         4         5         6         9     9      180.000000       -0.334851         4
         4         5         6        32     9        0.000000        1.337721         1
         4         5         6        32     9      180.000000       10.866091         2
         4         5         6        32     9        0.000000        0.416772         3
         4         5         6        32     9      180.000000       -0.125247         4
         4         5         7         8     9        0.000000       -0.181663         1
         4         5         7         8     9      180.000000       18.321749         2
         4         5         7         8     9        0.000000       -1.632438         3
         4         5         7         8     9      180.000000       -0.415239         4
         4         5         7        33     9        0.000000        0.135814         1
         4         5         7        33     9      180.000000       13.402907         2
         4         5         7        33     9        0.000000       -0.287875         3
         4         5         7        33     9      180.000000       -0.041837         4
         4        30         9         6     9        0.000000        0.216727         1
         4        30         9         6     9      180.000000       24.753637         2
         4        30         9         6     9        0.000000       -5.621710         3
         4        30         9         6     9      180.000000       -0.467745         4
         4        30         9        10     9        0.000000        0.889954         1
         4        30         9        10     9      180.000000        9.319339         2
         4        30         9        10     9        0.000000        0.606104         3
         4        30         9        10     9      180.000000       -0.249783         4
         5         4         3        31     9        0.000000        0.209309         1
         5         4         3        31     9      180.000000       12.538015         2
         5         4         3        31     9        0.000000       -0.227224         3
         5         4         3        31     9      180.000000        0.024842         4
         5         4        30         9     9        0.000000       -0.396837         1
         5         4        30         9     9      180.000000       22.361672         2
         5         4        30         9     9        0.000000       -4.719042         3
         5         4        30         9     9      180.000000        0.013040         4
         5         6         9        10     9        0.000000        0.006742         1
         5         6         9        10     9      180.000000       17.533666         2
         5         6         9        10     9        0.000000        0.213084         3
         5         6         9        10     9      180.000000       -1.142565         4
         5         6         9        30     9        0.000000       -0.360807         1
         5         6         9        30     9      180.000000       27.220655         2
         5         6         9        30     9        0.000000       -4.822832         3
         5         6         9        30     9      180.000000       -0.897070         4
         5         7         8        34     9        0.000000       -0.040549         1
         5         7         8        34     9      180.000000       16.001984         2
         5         7         8        34     9        0.000000       -0.589983         3
         5         7         8        34     9      180.000000        0.003311         4
         6         5         4        30     9        0.000000        0.304815         1
         6         5         4        30     9      180.000000       15.966525         2
         6         5         4        30     9        0.000000       -2.694861         3
         6         5         4        30     9      180.000000       -0.612547         4
         6         5         7         8     9        0.000000       -0.010944         1
         6         5         7         8     9      180.000000       14.161713         2
         6         5         7         8     9        0.000000       -0.754274         3
         6         5         7         8     9      180.000000       -0.156399         4
         6         5         7        33     9        0.000000       -0.139113         1
         6         5         7        33     9      180.000000       11.601791         2
         6         5         7        33     9        0.000000       -0.273604         3
         6         5         7        33     9      180.000000        0.009593         4
         6         9        10        11     9        0.000000        0.010341         1
         6         9        10        11     9      180.000000        0.136566         2
         6         9        10        11     9        0.000000        0.070130         3
         6         9        10        11     9      180.000000        0.023889         4
         6         9        10        12     9        0.000000        0.010341         1
         6         9        10        12     9      180.000000        0.136566         2
         6         9        10        12     9        0.000000        0.070130         3
         6         9        10        12     9      180.000000        0.023889         4
         6         9        10        13     9        0.000000        1.199315         1
         6         9        10        13     9      180.000000       -0.201766         2
         6         9        10        13     9        0.000000        0.143111         3
         6         9        10        13     9      180.000000       -0.121937         4
         7         5         4        30     9        0.000000        0.397627         1
         7         5         4        30     9      180.000000       12.136649         2
         7         5         4        30     9        0.000000       -0.984707         3
         7         5         4        30     9      180.000000       -0.270097         4
         7         5         6         9     9        0.000000        0.006043         1
         7         5         6         9     9      180.000000        4.921763         2
         7         5         6         9     9        0.000000       -0.588926         3
         7         5         6         9     9      180.000000        0.236708         4
         7         5         6        32     9        0.000000       -0.596628         1
         7         5         6        32     9      180.000000        5.764736         2
         7         5         6        32     9        0.000000       -0.041630         3
         7         5         6        32     9      180.000000        0.169035         4
         8         2         3        31     9        0.000000        0.032361         1
         8         2         3        31     9      180.000000       13.901315         2
         8         2         3        31     9        0.000000       -0.503151         3
         8         2         3        31     9      180.000000        0.121595         4
         9        10        13        14     9        0.000000       -2.504796         1
         9        10        13        14     9      180.000000       -7.736278         2
         9        10        13        14     9        0.000000        3.106248         3
         9        10        13        14     9      180.000000        0.646986         4
         9        10        13        35     9        0.000000       -8.818530         1
         9        10        13        35     9      180.000000       -5.051580         2
         9        10        13        35     9        0.000000       -0.278326         3
         9        10        13        35     9      180.000000        0.459607         4
        10         9         6        32     9        0.000000        0.353258         1
        10         9         6        32     9      180.000000       12.761059         2
        10         9         6        32     9        0.000000        0.129040         3
        10         9         6        32     9      180.000000       -0.177452         4
        10        13        14        15     9        0.000000       -2.612679         1
        10        13        14        15     9      180.000000       -0.504228         2
        10        13        14        15     9        0.000000        0.676649         3
        10        13        14        15     9      180.000000       -0.079929         4
        10        13        14        17     9        0.000000        5.562339         1
        10        13        14        17     9      180.000000       -1.275017         2
        10        13        14        17     9        0.000000        0.393829         3
        10        13        14        17     9      180.000000       -0.022810         4
        10        13        14        36     9        0.000000        0.961041         1
        10        13        14        36     9      180.000000       -0.325973         2
        10        13        14        36     9        0.000000        0.519600         3
        10        13        14        36     9      180.000000        0.122665         4
        11        10         9        30     9        0.000000       -0.152066         1
        11        10         9        30     9      180.000000        0.717187         2
        11        10         9        30     9        0.000000        0.292732         3
        11        10         9        30     9      180.000000        0.094433         4
        11        10        13        14     9        0.000000        0.942347         1
        11        10        13        14     9      180.000000        0.592041         2
        11        10        13        14     9        0.000000        1.789194         3
        11        10        13        14     9      180.000000        0.036572         4
        11        10        13        35     9        0.000000        0.672542         1
        11        10        13        35     9      180.000000       -0.014940         2
        11        10        13        35     9        0.000000       -1.075163         3
        11        10        13        35     9      180.000000       -0.176386         4
        12        10         9        30     9        0.000000       -0.152066         1
        12        10         9        30     9      180.000000        0.717187         2
        12        10         9        30     9        0.000000        0.292732         3
        12        10         9        30     9      180.000000        0.094433         4
        12        10        13        14     9        0.000000        0.942347         1
        12        10        13        14     9      180.000000        0.592041         2
        12        10        13        14     9        0.000000        1.789194         3
        12        10        13        14     9      180.000000        0.036572         4
        12        10        13        35     9        0.000000        0.672542         1
        12        10        13        35     9      180.000000       -0.014940         2
        12        10        13        35     9        0.000000       -1.075163         3
        12        10        13        35     9      180.000000       -0.176386         4
        13        10         9        30     9        0.000000       -1.383288         1
        13        10         9        30     9      180.000000        0.305802         2
        13        10         9        30     9        0.000000        0.800647         3
        13        10         9        30     9      180.000000       -0.168193         4
        13        14        15        16     9        0.000000       -2.321121         1
        13        14        15        16     9      180.000000        0.482413         2
        13        14        15        16     9        0.000000        0.201938         3
        13        14        15        16     9      180.000000        0.054180         4
        13        14        15        37     9        0.000000        0.107068         1
        13        14        15        37     9      180.000000        0.107372         2
        13        14        15        37     9        0.000000        0.333903         3
        13        14        15        37     9      180.000000       -0.053477         4
        13        14        15        38     9        0.000000        0.107068         1
        13        14        15        38     9      180.000000        0.107372         2
        13        14        15        38     9        0.000000        0.333903         3
        13        14        15        38     9      180.000000       -0.053477         4
        13        14        17        18     9        0.000000       -0.412094         1
        13        14        17        18     9      180.000000        2.678135         2
        13        14        17        18     9        0.000000        0.086392         3
        13        14        17        18     9      180.000000        0.227349         4
        13        14        17        19     9        0.000000       -0.476622         1
        13        14        17        19     9      180.000000        3.094663         2
        13        14        17        19     9        0.000000        0.335654         3
        13        14        17        19     9      180.000000        0.266510         4
        14        15        16        19     9        0.000000       -0.038388         1
        14        15        16        19     9      180.000000        4.395980         2
        14        15        16        19     9        0.000000       -0.123564         3
        14        15        16        19     9      180.000000       -1.806881         4
        14        15        16        39     9        0.000000        0.014370         1
        14        15        16        39     9      180.000000       -0.073116         2
        14        15        16        39     9        0.000000        0.024077         3
        14        15        16        39     9      180.000000        0.124384         4
        14        15        16        40     9        0.000000        0.014370         1
        14        15        16        40     9      180.000000       -0.073115         2
        14        15        16        40     9        0.000000        0.024077         3
        14        15        16        40     9      180.000000        0.124384         4
        14        17        19        16     9        0.000000       -0.586205         1
        14        17        19        16     9      180.000000       17.846300         2
        14        17        19        16     9        0.000000       -0.107111         3
        14        17        19        16     9      180.000000       -1.517731         4
        14        17        19        20     9        0.000000        1.748478         1
        14        17        19        20     9      180.000000       10.879480         2
        14        17        19        20     9        0.000000        0.806594         3
        14        17        19        20     9      180.000000       -0.625476         4
        15        14        13        35     9        0.000000       -1.689475         1
        15        14        13        35     9      180.000000       -0.875495         2
        15        14        13        35     9        0.000000        0.099057         3
        15        14        13        35     9      180.000000       -0.157741         4
        15        14        17        18     9        0.000000        4.526654         1
        15        14        17        18     9      180.000000        4.473567         2
        15        14        17        18     9        0.000000       -0.389454         3
        15        14        17        18     9      180.000000       -0.426924         4
        15        14        17        19     9        0.000000       -0.428806         1
        15        14        17        19     9      180.000000        6.746923         2
        15        14        17        19     9        0.000000       -1.117923         3
        15        14        17        19     9      180.000000       -0.747999         4
        15        16        19        17     9        0.000000       -1.786134         1
        15        16        19        17     9      180.000000        5.578944         2
        15        16        19        17     9        0.000000       -0.334713         3
        15        16        19        17     9      180.000000       -1.019729         4
        15        16        19        20     9        0.000000       -0.982164         1
        15        16        19        20     9      180.000000        1.118137         2
        15        16        19        20     9        0.000000        0.643596         3
        15        16        19        20     9      180.000000       -0.269745         4
        16        15        14        17     9        0.000000       -1.059894         1
        16        15        14        17     9      180.000000        6.292193         2
        16        15        14        17     9        0.000000       -0.314512         3
        16        15        14        17     9      180.000000       -1.473083         4
        16        15        14        36     9        0.000000       -0.039652         1
        16        15        14        36     9      180.000000        0.136392         2
        16        15        14        36     9        0.000000        0.140459         3
        16        15        14        36     9      180.000000        0.194813         4
        16        19        17        18     9        0.000000        1.670021         1
        16        19        17        18     9      180.000000       22.709838         2
        16        19        17        18     9        0.000000        0.650788         3
        16        19        17        18     9      180.000000       -1.143129         4
        16        19        20        21     9        0.000000        1.056288         1
        16        19        20        21     9      180.000000        0.248433         2
        16        19        20        21     9        0.000000        1.020115         3
        16        19        20        21     9      180.000000        0.035708         4
        16        19        20        22     9        0.000000       -0.006752         1
        16        19        20        22     9      180.000000       -0.687001         2
        16        19        20        22     9        0.000000        0.965898         3
        16        19        20        22     9      180.000000        0.047408         4
        16        19        20        41     9        0.000000       -1.324653         1
        16        19        20        41     9      180.000000       -0.237460         2
        16        19        20        41     9        0.000000        0.923646         3
        16        19        20        41     9      180.000000       -0.060215         4
        17        14        13        35     9        0.000000        4.571780         1
        17        14        13        35     9      180.000000       -1.268763         2
        17        14        13        35     9        0.000000        0.152952         3
        17        14        13        35     9      180.000000       -0.020514         4
        17        14        15        37     9        0.000000       -0.054611         1
        17        14        15        37     9      180.000000       -0.042548         2
        17        14        15        37     9        0.000000       -0.087538         3
        17        14        15        37     9      180.000000        0.153489         4
        17        14        15        38     9        0.000000       -0.054611         1
        17        14        15        38     9      180.000000       -0.042548         2
        17        14        15        38     9        0.000000       -0.087538         3
        17        14        15        38     9      180.000000        0.153489         4
        17        19        16        39     9        0.000000        0.108553         1
        17        19        16        39     9      180.000000       -0.000440         2
        17        19        16        39     9        0.000000       -0.019981         3
        17        19        16        39     9      180.000000        0.146580         4
        17        19        16        40     9        0.000000        0.108552         1
        17        19        16        40     9      180.000000       -0.000441         2
        17        19        16        40     9        0.000000       -0.019981         3
        17        19        16        40     9      180.000000        0.146580         4
        17        19        20        21     9        0.000000        0.922000         1
        17        19        20        21     9      180.000000       -0.058052         2
        17        19        20        21     9        0.000000        0.548524         3
        17        19        20        21     9      180.000000        0.035455         4
        17        19        20        22     9        0.000000       -0.527072         1
        17        19        20        22     9      180.000000        0.559860         2
        17        19        20        22     9        0.000000       -0.136893         3
        17        19        20        22     9      180.000000        0.221963         4
        17        19        20        41     9        0.000000       -0.542437         1
        17        19        20        41     9      180.000000       -0.062983         2
        17        19        20        41     9        0.000000       -0.120262         3
        17        19        20        41     9      180.000000        0.202540         4
        18        17        14        36     9        0.000000        0.328981         1
        18        17        14        36     9      180.000000        0.440377         2
        18        17        14        36     9        0.000000       -0.229265         3
        18        17        14        36     9      180.000000        0.148233         4
        18        17        19        20     9        0.000000        1.661571         1
        18        17        19        20     9      180.000000       14.445686         2
        18        17        19        20     9        0.000000        0.543062         3
        18        17        19        20     9      180.000000       -0.577490         4
        19        16        15        37     9        0.000000       -0.019400         1
        19        16        15        37     9      180.000000        0.004663         2
        19        16        15        37     9        0.000000        0.107646         3
        19        16        15        37     9      180.000000        0.111993         4
        19        16        15        38     9        0.000000       -0.019400         1
        19        16        15        38     9      180.000000        0.004663         2
        19        16        15        38     9        0.000000        0.107646         3
        19        16        15        38     9      180.000000        0.111993         4
        19        17        14        36     9        0.000000        1.084651         1
        19        17        14        36     9      180.000000       -0.109915         2
        19        17        14        36     9        0.000000       -0.011079         3
        19        17        14        36     9      180.000000        0.625760         4
        19        20        21        42     9        0.000000        0.027932         1
        19        20        21        42     9      180.000000        0.048555         2
        19        20        21        42     9        0.000000        0.571346         3
        19        20        21        42     9      180.000000        0.019893         4
        19        20        21        43     9        0.000000        0.027932         1
        19        20        21        43     9      180.000000        0.048555         2
        19        20        21        43     9        0.000000        0.571346         3
        19        20        21        43     9      180.000000        0.019893         4
        19        20        21        44     9        0.000000        0.027932         1
        19        20        21        44     9      180.000000        0.048555         2
        19        20        21        44     9        0.000000        0.571346         3
        19        20        21        44     9      180.000000        0.019893         4
        19        20        22        23     9        0.000000       -3.403668         1
        19        20        22        23     9      180.000000        1.746720         2
        19        20        22        23     9        0.000000       -0.045864         3
        19        20        22        23     9      180.000000       -0.140913         4
        19        20        22        24     9        0.000000        1.279096         1
        19        20        22        24     9      180.000000        2.095355         2
        19        20        22        24     9        0.000000        0.014931         3
        19        20        22        24     9      180.000000       -0.193603         4
        20        19        16        39     9        0.000000       -0.030206         1
        20        19        16        39     9      180.000000       -0.404530         2
        20        19        16        39     9        0.000000        1.182118         3
        20        19        16        39     9      180.000000        0.004763         4
        20        19        16        40     9        0.000000       -0.030205         1
        20        19        16        40     9      180.000000       -0.404530         2
        20        19        16        40     9        0.000000        1.182118         3
        20        19        16        40     9      180.000000        0.004762         4
        20        22        24        25     9        0.000000        8.087900         1
        20        22        24        25     9      180.000000       10.076018         2
        20        22        24        25     9        0.000000        0.319309         3
        20        22        24        25     9      180.000000       -0.471963         4
        20        22        24        29     9        0.000000        8.087900         1
        20        22        24        29     9      180.000000       10.076019         2
        20        22        24        29     9        0.000000        0.319308         3
        20        22        24        29     9      180.000000       -0.471964         4
        21        20        22        23     9        0.000000       -0.685838         1
        21        20        22        23     9      180.000000        1.236800         2
        21        20        22        23     9        0.000000        0.098838         3
        21        20        22        23     9      180.000000        0.381403         4
        21        20        22        24     9        0.000000        0.141944         1
        21        20        22        24     9      180.000000        0.745404         2
        21        20        22        24     9        0.000000       -0.234290         3
        21        20        22        24     9      180.000000        0.174722         4
        22        20        21        42     9        0.000000        0.033524         1
        22        20        21        42     9      180.000000        0.089526         2
        22        20        21        42     9        0.000000        0.344680         3
        22        20        21        42     9      180.000000        0.003302         4
        22        20        21        43     9        0.000000        0.033524         1
        22        20        21        43     9      180.000000        0.089526         2
        22        20        21        43     9        0.000000        0.344680         3
        22        20        21        43     9      180.000000        0.003302         4
        22        20        21        44     9        0.000000        0.033524         1
        22        20        21        44     9      180.000000        0.089526         2
        22        20        21        44     9        0.000000        0.344680         3
        22        20        21        44     9      180.000000        0.003302         4
        22        24        25        26     9        0.000000        0.440908         1
        22        24        25        26     9      180.000000        0.444606         2
        22        24        25        26     9        0.000000        0.059412         3
        22        24        25        26     9      180.000000        0.206044         4
        22        24        25        45     9        0.000000       -0.028685         1
        22        24        25        45     9      180.000000       -0.001927         2
        22        24        25        45     9        0.000000        0.252664         3
        22        24        25        45     9      180.000000       -0.014307         4
        22        24        25        46     9        0.000000       -0.028685         1
        22        24        25        46     9      180.000000       -0.001927         2
        22        24        25        46     9        0.000000        0.252664         3
        22        24        25        46     9      180.000000       -0.014307         4
        22        24        29        28     9        0.000000        0.440908         1
        22        24        29        28     9      180.000000        0.444606         2
        22        24        29        28     9        0.000000        0.059412         3
        22        24        29        28     9      180.000000        0.206044         4
        22        24        29        51     9        0.000000       -0.028685         1
        22        24        29        51     9      180.000000       -0.001926         2
        22        24        29        51     9        0.000000        0.252664         3
        22        24        29        51     9      180.000000       -0.014306         4
        22        24        29        52     9        0.000000       -0.028685         1
        22        24        29        52     9      180.000000       -0.001926         2
        22        24        29        52     9        0.000000        0.252664         3
        22        24        29        52     9      180.000000       -0.014306         4
        23        22        20        41     9        0.000000        1.726652         1
        23        22        20        41     9      180.000000       -0.446050         2
        23        22        20        41     9        0.000000        0.259084         3
        23        22        20        41     9      180.000000       -0.318237         4
        23        22        24        25     9        0.000000       -0.829972         1
        23        22        24        25     9      180.000000       15.136697         2
        23        22        24        25     9        0.000000       -1.389194         3
        23        22        24        25     9      180.000000       -0.252977         4
        23        22        24        29     9        0.000000       -0.829973         1
        23        22        24        29     9      180.000000       15.136697         2
        23        22        24        29     9        0.000000       -1.389193         3
        23        22        24        29     9      180.000000       -0.252976         4
        24        22        20        41     9        0.000000       -0.568349         1
        24        22        20        41     9      180.000000       -0.182975         2
        24        22        20        41     9        0.000000       -0.162224         3
        24        22        20        41     9      180.000000       -0.005958         4
        24        25        26        27     9        0.000000        0.131837         1
        24        25        26        27     9      180.000000       -1.297547         2
        24        25        26        27     9        0.000000        0.387839         3
        24        25        26        27     9      180.000000       -0.141180         4
        24        25        26        47     9        0.000000       -0.102106         1
        24        25        26        47     9      180.000000        0.154514         2
        24        25        26        47     9        0.000000        0.456513         3
        24        25        26        47     9      180.000000        0.019598         4
        24        25        26        48     9        0.000000       -0.102106         1
        24        25        26        48     9      180.000000        0.154514         2
        24        25        26        48     9        0.000000        0.456513         3
        24        25        26        48     9      180.000000        0.019598         4
        24        29        28        27     9        0.000000        0.131838         1
        24        29        28        27     9      180.000000       -1.297547         2
        24        29        28        27     9        0.000000        0.387840         3
        24        29        28        27     9      180.000000       -0.141180         4
        24        29        28        49     9        0.000000       -0.102106         1
        24        29        28        49     9      180.000000        0.154513         2
        24        29        28        49     9        0.000000        0.456514         3
        24        29        28        49     9      180.000000        0.019598         4
        24        29        28        50     9        0.000000       -0.102106         1
        24        29        28        50     9      180.000000        0.154513         2
        24        29        28        50     9        0.000000        0.456514         3
        24        29        28        50     9      180.000000        0.019598         4
        25        24        29        28     9        0.000000       -0.005449         1
        25        24        29        28     9      180.000000       -2.867471         2
        25        24        29        28     9        0.000000        1.361352         3
        25        24        29        28     9      180.000000        0.109220         4
        25        24        29        51     9        0.000000       -0.081970         1
        25        24        29        51     9      180.000000        0.115740         2
        25        24        29        51     9        0.000000        1.147305         3
        25        24        29        51     9      180.000000       -0.023844         4
        25        24        29        52     9        0.000000       -0.081970         1
        25        24        29        52     9      180.000000        0.115740         2
        25        24        29        52     9        0.000000        1.147305         3
        25        24        29        52     9      180.000000       -0.023844         4
        25        26        27        28     9        0.000000        0.703463         1
        25        26        27        28     9      180.000000       -1.437896         2
        25        26        27        28     9        0.000000        0.641877         3
        25        26        27        28     9      180.000000        0.056741         4
        26        25        24        29     9        0.000000       -0.005450         1
        26        25        24        29     9      180.000000       -2.867471         2
        26        25        24        29     9        0.000000        1.361352         3
        26        25        24        29     9      180.000000        0.109220         4
        26        27        28        29     9        0.000000        0.703463         1
        26        27        28        29     9      180.000000       -1.437895         2
        26        27        28        29     9        0.000000        0.641877         3
        26        27        28        29     9      180.000000        0.056741         4
        26        27        28        49     9        0.000000       -0.063647         1
        26        27        28        49     9      180.000000        0.078884         2
        26        27        28        49     9        0.000000        0.431540         3
        26        27        28        49     9      180.000000       -0.001696         4
        26        27        28        50     9        0.000000       -0.063647         1
        26        27        28        50     9      180.000000        0.078884         2
        26        27        28        50     9        0.000000        0.431540         3
        26        27        28        50     9      180.000000       -0.001696         4
        27        26        25        45     9        0.000000       -0.026085         1
        27        26        25        45     9      180.000000        0.094479         2
        27        26        25        45     9        0.000000        0.296379         3
        27        26        25        45     9      180.000000        0.001937         4
        27        26        25        46     9        0.000000       -0.026085         1
        27        26        25        46     9      180.000000        0.094479         2
        27        26        25        46     9        0.000000        0.296379         3
        27        26        25        46     9      180.000000        0.001937         4
        27        28        29        51     9        0.000000       -0.026085         1
        27        28        29        51     9      180.000000        0.094480         2
        27        28        29        51     9        0.000000        0.296378         3
        27        28        29        51     9      180.000000        0.001937         4
        27        28        29        52     9        0.000000       -0.026085         1
        27        28        29        52     9      180.000000        0.094480         2
        27        28        29        52     9        0.000000        0.296378         3
        27        28        29        52     9      180.000000        0.001937         4
        28        27        26        47     9        0.000000       -0.063647         1
        28        27        26        47     9      180.000000        0.078883         2
        28        27        26        47     9        0.000000        0.431540         3
        28        27        26        47     9      180.000000       -0.001696         4
        28        27        26        48     9        0.000000       -0.063647         1
        28        27        26        48     9      180.000000        0.078883         2
        28        27        26        48     9        0.000000        0.431540         3
        28        27        26        48     9      180.000000       -0.001696         4
        29        24        25        45     9        0.000000       -0.081970         1
        29        24        25        45     9      180.000000        0.115739         2
        29        24        25        45     9        0.000000        1.147304         3
        29        24        25        45     9      180.000000       -0.023843         4
        29        24        25        46     9        0.000000       -0.081970         1
        29        24        25        46     9      180.000000        0.115739         2
        29        24        25        46     9        0.000000        1.147304         3
        29        24        25        46     9      180.000000       -0.023843         4
        30         4         3        31     9        0.000000       -0.015405         1
        30         4         3        31     9      180.000000       11.027975         2
        30         4         3        31     9        0.000000       -0.164053         3
        30         4         3        31     9      180.000000        0.019237         4
        30         9         6        32     9        0.000000        0.206611         1
        30         9         6        32     9      180.000000       16.240516         2
        30         9         6        32     9        0.000000        0.105349         3
        30         9         6        32     9      180.000000       -0.568000         4
        33         7         8        34     9        0.000000       -0.167847         1
        33         7         8        34     9      180.000000       12.483537         2
        33         7         8        34     9        0.000000       -0.744493         3
        33         7         8        34     9      180.000000        0.300837         4
        35        13        14        36     9        0.000000       -0.804433         1
        35        13        14        36     9      180.000000       -0.767275         2
        35        13        14        36     9        0.000000        0.336929         3
        35        13        14        36     9      180.000000        0.015905         4
        36        14        15        37     9        0.000000       -0.111057         1
        36        14        15        37     9      180.000000        0.002771         2
        36        14        15        37     9        0.000000        0.368056         3
        36        14        15        37     9      180.000000       -0.073907         4
        36        14        15        38     9        0.000000       -0.111057         1
        36        14        15        38     9      180.000000        0.002771         2
        36        14        15        38     9        0.000000        0.368056         3
        36        14        15        38     9      180.000000       -0.073907         4
        37        15        16        39     9        0.000000       -0.042687         1
        37        15        16        39     9      180.000000        0.012428         2
        37        15        16        39     9        0.000000        0.280825         3
        37        15        16        39     9      180.000000       -0.016081         4
        37        15        16        40     9        0.000000       -0.042687         1
        37        15        16        40     9      180.000000        0.012428         2
        37        15        16        40     9        0.000000        0.280825         3
        37        15        16        40     9      180.000000       -0.016080         4
        38        15        16        39     9        0.000000       -0.042687         1
        38        15        16        39     9      180.000000        0.012428         2
        38        15        16        39     9        0.000000        0.280825         3
        38        15        16        39     9      180.000000       -0.016081         4
        38        15        16        40     9        0.000000       -0.042687         1
        38        15        16        40     9      180.000000        0.012428         2
        38        15        16        40     9        0.000000        0.280825         3
        38        15        16        40     9      180.000000       -0.016080         4
        41        20        21        42     9        0.000000       -0.021877         1
        41        20        21        42     9      180.000000        0.068248         2
        41        20        21        42     9        0.000000        0.576275         3
        41        20        21        42     9      180.000000       -0.025914         4
        41        20        21        43     9        0.000000       -0.021877         1
        41        20        21        43     9      180.000000        0.068248         2
        41        20        21        43     9        0.000000        0.576275         3
        41        20        21        43     9      180.000000       -0.025914         4
        41        20        21        44     9        0.000000       -0.021877         1
        41        20        21        44     9      180.000000        0.068248         2
        41        20        21        44     9        0.000000        0.576275         3
        41        20        21        44     9      180.000000       -0.025914         4
        45        25        26        47     9        0.000000       -0.023964         1
        45        25        26        47     9      180.000000        0.011206         2
        45        25        26        47     9        0.000000        0.270678         3
        45        25        26        47     9      180.000000        0.028411         4
        45        25        26        48     9        0.000000       -0.023964         1
        45        25        26        48     9      180.000000        0.011206         2
        45        25        26        48     9        0.000000        0.270678         3
        45        25        26        48     9      180.000000        0.028411         4
        46        25        26        47     9        0.000000       -0.023964         1
        46        25        26        47     9      180.000000        0.011206         2
        46        25        26        47     9        0.000000        0.270678         3
        46        25        26        47     9      180.000000        0.028411         4
        46        25        26        48     9        0.000000       -0.023964         1
        46        25        26        48     9      180.000000        0.011206         2
        46        25        26        48     9        0.000000        0.270678         3
        46        25        26        48     9      180.000000        0.028411         4
        49        28        29        51     9        0.000000       -0.023962         1
        49        28        29        51     9      180.000000        0.011207         2
        49        28        29        51     9        0.000000        0.270678         3
        49        28        29        51     9      180.000000        0.028410         4
        49        28        29        52     9        0.000000       -0.023962         1
        49        28        29        52     9      180.000000        0.011207         2
        49        28        29        52     9        0.000000        0.270678         3
        49        28        29        52     9      180.000000        0.028410         4
        50        28        29        51     9        0.000000       -0.023962         1
        50        28        29        51     9      180.000000        0.011207         2
        50        28        29        51     9        0.000000        0.270678         3
        50        28        29        51     9      180.000000        0.028410         4
        50        28        29        52     9        0.000000       -0.023962         1
        50        28        29        52     9      180.000000        0.011207         2
        50        28        29        52     9        0.000000        0.270678         3
        50        28        29        52     9      180.000000        0.028410         4

[ dihedrals ] ; impropers
;       ai        aj        ak        al funct           phase               k        pn
         6         5         9        32     4      180.000000        0.059672         2
         6         9        32         5     4      180.000000        0.059672         2
         6        32         5         9     4      180.000000        0.059672         2
         7         5         8        33     4      180.000000        0.714444         2
         7         8        33         5     4      180.000000        0.714444         2
         7        33         5         8     4      180.000000        0.714444         2
        17        14        18        19     4      180.000000       13.231339         2
        17        18        19        14     4      180.000000       13.231339         2
        17        19        14        18     4      180.000000       13.231339         2
        22        20        23        24     4      180.000000        9.205954         2
        22        23        24        20     4      180.000000        9.205954         2
        22        24        20        23     4      180.000000        9.205954         2

[ pairs ]
;       ai        aj funct
         1         4     1
         1         7     1
         1        31     1
         1        34     1
         2         5     1
         2        30     1
         2        33     1
         3         6     1
         3         7     1
         3         9     1
         3        34     1
         4         8     1
         4        10     1
         4        32     1
         4        33     1
         5        10     1
         5        31     1
         5        34     1
         6         8     1
         6        11     1
         6        12     1
         6        13     1
         6        33     1
         7         9     1
         7        30     1
         7        32     1
         8        31     1
         9        14     1
         9        35     1
        10        15     1
        10        17     1
        10        32     1
        10        36     1
        11        14     1
        11        30     1
        11        35     1
        12        14     1
        12        30     1
        12        35     1
        13        16     1
        13        18     1
        13        19     1
        13        30     1
        13        37     1
        13        38     1
        14        20     1
        14        39     1
        14        40     1
        15        18     1
        15        20     1
        15        35     1
        16        18     1
        16        21     1
        16        22     1
        16        36     1
        16        41     1
        17        21     1
        17        22     1
        17        35     1
        17        37     1
        17        38     1
        17        39     1
        17        40     1
        17        41     1
        18        20     1
        18        36     1
        19        23     1
        19        24     1
        19        36     1
        19        37     1
        19        38     1
        19        42     1
        19        43     1
        19        44     1
        20        25     1
        20        29     1
        20        39     1
        20        40     1
        21        23     1
        21        24     1
        22        26     1
        22        28     1
        22        42     1
        22        43     1
        22        44     1
        22        45     1
        22        46     1
        22        51     1
        22        52     1
        23        25     1
        23        29     1
        23        41     1
        24        27     1
        24        41     1
        24        47     1
        24        48     1
        24        49     1
        24        50     1
        25        28     1
        25        51     1
        25        52     1
        26        29     1
        26        49     1
        26        50     1
        27        45     1
        27        46     1
        27        51     1
        27        52     1
        28        47     1
        28        48     1
        29        45     1
        29        46     1
        30        31     1
        30        32     1
        33        34     1
        35        36     1
        36        37     1
        36        38     1
        37        39     1
        37        40     1
        38        39     1
        38        40     1
        41        42     1
        41        43     1
        41        44     1
        45        47     1
        45        48     1
        46        47     1
        46        48     1
        49        51     1
        49        52     1
        50        51     1
        50        52     1
