; ITP file created by ByteFF-ML, 2025-12-06 08:02:14.135625

[ atomtypes ]
;name           bonded.type        at.num        mass        charge   ptype           sigma         epsilon
 cl0bf                                 17      0.0000       0.00000       A     3.46758e-01     1.10611e+00
 c1bf                                   6      0.0000       0.00000       A     3.31525e-01     4.13109e-01
 c2bf                                   6      0.0000       0.00000       A     3.31461e-01     4.13202e-01
 c3bf                                   6      0.0000       0.00000       A     3.31402e-01     4.13096e-01
 c4bf                                   6      0.0000       0.00000       A     3.31695e-01     4.12306e-01
 n5bf                                   7      0.0000       0.00000       A     3.20559e-01     8.47781e-01
 c6bf                                   6      0.0000       0.00000       A     3.31424e-01     4.13340e-01
 c7bf                                   6      0.0000       0.00000       A     3.31509e-01     4.12670e-01
 c8bf                                   6      0.0000       0.00000       A     3.31500e-01     4.15201e-01
 s9bf                                  16      0.0000       0.00000       A     4.06150e-01     2.51895e-01
 o10bf                                  8      0.0000       0.00000       A     3.04893e-01     6.12051e-01
 o11bf                                  8      0.0000       0.00000       A     3.04893e-01     6.12051e-01
 n12bf                                  7      0.0000       0.00000       A     3.50455e-01     2.19592e-01
 c13bf                                  6      0.0000       0.00000       A     3.40107e-01     4.49740e-01
 c14bf                                  6      0.0000       0.00000       A     3.39888e-01     4.51758e-01
 c15bf                                  6      0.0000       0.00000       A     3.39876e-01     4.51158e-01
 c16bf                                  6      0.0000       0.00000       A     3.31760e-01     4.12573e-01
 o17bf                                  8      0.0000       0.00000       A     3.04794e-01     6.15556e-01
 n18bf                                  7      0.0000       0.00000       A     3.18260e-01     6.88160e-01
 c19bf                                  6      0.0000       0.00000       A     3.39757e-01     4.50874e-01
 c20bf                                  6      0.0000       0.00000       A     3.39605e-01     4.49879e-01
 c21bf                                  6      0.0000       0.00000       A     3.31657e-01     4.13830e-01
 o22bf                                  8      0.0000       0.00000       A     3.04754e-01     6.13558e-01
 n23bf                                  7      0.0000       0.00000       A     3.17857e-01     6.84912e-01
 c24bf                                  6      0.0000       0.00000       A     3.39840e-01     4.50763e-01
 c25bf                                  6      0.0000       0.00000       A     3.39665e-01     4.51065e-01
 o26bf                                  8      0.0000       0.00000       A     3.15559e-01     3.02369e-01
 c27bf                                  6      0.0000       0.00000       A     3.39665e-01     4.51065e-01
 c28bf                                  6      0.0000       0.00000       A     3.39840e-01     4.50763e-01
 c29bf                                  6      0.0000       0.00000       A     3.31268e-01     4.12534e-01
 h30bf                                  1      0.0000       0.00000       A     2.62444e-01     6.71307e-02
 h31bf                                  1      0.0000       0.00000       A     2.62516e-01     6.70844e-02
 h32bf                                  1      0.0000       0.00000       A     2.62487e-01     6.71929e-02
 h33bf                                  1      0.0000       0.00000       A     1.10173e-01     4.03774e-02
 h34bf                                  1      0.0000       0.00000       A     2.41336e-01     8.93895e-02
 h35bf                                  1      0.0000       0.00000       A     2.59998e-01     8.72188e-02
 h36bf                                  1      0.0000       0.00000       A     2.59998e-01     8.72188e-02
 h37bf                                  1      0.0000       0.00000       A     2.42182e-01     8.67208e-02
 h38bf                                  1      0.0000       0.00000       A     2.42182e-01     8.67208e-02
 h39bf                                  1      0.0000       0.00000       A     2.42267e-01     8.78125e-02
 h40bf                                  1      0.0000       0.00000       A     2.59883e-01     8.72300e-02
 h41bf                                  1      0.0000       0.00000       A     2.59883e-01     8.72300e-02
 h42bf                                  1      0.0000       0.00000       A     2.59883e-01     8.72300e-02
 h43bf                                  1      0.0000       0.00000       A     2.42002e-01     8.70017e-02
 h44bf                                  1      0.0000       0.00000       A     2.42002e-01     8.70017e-02
 h45bf                                  1      0.0000       0.00000       A     2.42029e-01     8.74327e-02
 h46bf                                  1      0.0000       0.00000       A     2.42029e-01     8.74327e-02
 h47bf                                  1      0.0000       0.00000       A     2.42029e-01     8.74327e-02
 h48bf                                  1      0.0000       0.00000       A     2.42029e-01     8.74327e-02
 h49bf                                  1      0.0000       0.00000       A     2.42002e-01     8.70017e-02
 h50bf                                  1      0.0000       0.00000       A     2.42002e-01     8.70017e-02
 h51bf                                  1      0.0000       0.00000       A     1.10905e-01     4.15888e-02
 h52bf                                  1      0.0000       0.00000       A     2.62708e-01     6.65513e-02

[ moleculetype ]
;name             nrexcl
 1s                    3

[ atoms ]
;       nr            type      resi   res      atom      cgnr      charge          mass ; qtot
         1           cl0bf         1   UNL       cl0         1    -0.22051       35.4530 ; qtot   -0.221
         2            c1bf         1   UNL        c1         2     0.09697       12.0110 ; qtot   -0.124
         3            c2bf         1   UNL        c2         3    -0.03848       12.0110 ; qtot   -0.162
         4            c3bf         1   UNL        c3         4    -0.11531       12.0110 ; qtot   -0.277
         5            c4bf         1   UNL        c4         5    -0.01866       12.0110 ; qtot   -0.296
         6            n5bf         1   UNL        n5         6    -0.18576       14.0070 ; qtot   -0.482
         7            c6bf         1   UNL        c6         7    -0.11155       12.0110 ; qtot   -0.593
         8            c7bf         1   UNL        c7         8    -0.08318       12.0110 ; qtot   -0.676
         9            c8bf         1   UNL        c8         9    -0.25734       12.0110 ; qtot   -0.934
        10            s9bf         1   UNL        s9        10     1.11606       32.0670 ; qtot    0.182
        11           o10bf         1   UNL       o10        11    -0.52051       15.9990 ; qtot   -0.338
        12           o11bf         1   UNL       o11        12    -0.52051       15.9990 ; qtot   -0.859
        13           n12bf         1   UNL       n12        13    -0.82020       14.0070 ; qtot   -1.679
        14           c13bf         1   UNL       c13        14     0.12236       12.0110 ; qtot   -1.557
        15           c14bf         1   UNL       c14        15    -0.09519       12.0110 ; qtot   -1.652
        16           c15bf         1   UNL       c15        16     0.09495       12.0110 ; qtot   -1.557
        17           c16bf         1   UNL       c16        17     0.54947       12.0110 ; qtot   -1.007
        18           o17bf         1   UNL       o17        18    -0.54655       15.9990 ; qtot   -1.554
        19           n18bf         1   UNL       n18        19    -0.40098       14.0070 ; qtot   -1.955
        20           c19bf         1   UNL       c19        20     0.05721       12.0110 ; qtot   -1.898
        21           c20bf         1   UNL       c20        21    -0.09612       12.0110 ; qtot   -1.994
        22           c21bf         1   UNL       c21        22     0.58704       12.0110 ; qtot   -1.407
        23           o22bf         1   UNL       o22        23    -0.59786       15.9990 ; qtot   -2.005
        24           n23bf         1   UNL       n23        24    -0.41249       14.0070 ; qtot   -2.417
        25           c24bf         1   UNL       c24        25     0.06521       12.0110 ; qtot   -2.352
        26           c25bf         1   UNL       c25        26     0.13811       12.0110 ; qtot   -2.214
        27           o26bf         1   UNL       o26        27    -0.45725       15.9990 ; qtot   -2.671
        28           c27bf         1   UNL       c27        28     0.13811       12.0110 ; qtot   -2.533
        29           c28bf         1   UNL       c28        29     0.06521       12.0110 ; qtot   -2.468
        30           c29bf         1   UNL       c29        30    -0.07209       12.0110 ; qtot   -2.540
        31           h30bf         1   UNL       h30        31     0.13647        1.0080 ; qtot   -2.403
        32           h31bf         1   UNL       h31        32     0.12158        1.0080 ; qtot   -2.282
        33           h32bf         1   UNL       h32        33     0.13094        1.0080 ; qtot   -2.151
        34           h33bf         1   UNL       h33        34     0.48974        1.0080 ; qtot   -1.661
        35           h34bf         1   UNL       h34        35     0.09180        1.0080 ; qtot   -1.569
        36           h35bf         1   UNL       h35        36     0.07214        1.0080 ; qtot   -1.497
        37           h36bf         1   UNL       h36        37     0.07214        1.0080 ; qtot   -1.425
        38           h37bf         1   UNL       h37        38     0.05454        1.0080 ; qtot   -1.370
        39           h38bf         1   UNL       h38        39     0.05454        1.0080 ; qtot   -1.316
        40           h39bf         1   UNL       h39        40     0.08228        1.0080 ; qtot   -1.234
        41           h40bf         1   UNL       h40        41     0.05105        1.0080 ; qtot   -1.183
        42           h41bf         1   UNL       h41        42     0.05105        1.0080 ; qtot   -1.132
        43           h42bf         1   UNL       h42        43     0.05105        1.0080 ; qtot   -1.081
        44           h43bf         1   UNL       h43        44     0.06485        1.0080 ; qtot   -1.016
        45           h44bf         1   UNL       h44        45     0.06485        1.0080 ; qtot   -0.951
        46           h45bf         1   UNL       h45        46     0.05641        1.0080 ; qtot   -0.894
        47           h46bf         1   UNL       h46        47     0.05641        1.0080 ; qtot   -0.838
        48           h47bf         1   UNL       h47        48     0.05641        1.0080 ; qtot   -0.782
        49           h48bf         1   UNL       h48        49     0.05641        1.0080 ; qtot   -0.725
        50           h49bf         1   UNL       h49        50     0.06485        1.0080 ; qtot   -0.660
        51           h50bf         1   UNL       h50        51     0.06485        1.0080 ; qtot   -0.595
        52           h51bf         1   UNL       h51        52     0.37162        1.0080 ; qtot   -0.224
        53           h52bf         1   UNL       h52        53     0.22386        1.0080 ; qtot    0.000

[ bonds ]
;       ai        aj funct               r               k
         1         2     1        0.176372   143742.719434
         2         3     1        0.138773   318162.912988
         2         8     1        0.141059   273318.855127
         3         4     1        0.140902   298513.511865
         3        31     1        0.108478   323756.816797
         4         5     1        0.142833   237720.099121
         4        30     1        0.143661   249360.730762
         5         6     1        0.138190   274609.372949
         5         7     1        0.140043   307585.340137
         6         9     1        0.138429   284550.254590
         6        52     1        0.101236   423761.975781
         7         8     1        0.139283   325078.872949
         7        32     1        0.108610   319157.098193
         8        33     1        0.108435   325442.138330
         9        10     1        0.176497   153300.110303
         9        30     1        0.137428   372030.278613
        10        11     1        0.146483   517890.790527
        10        12     1        0.146483   517890.790527
        10        13     1        0.169183   146703.376978
        13        14     1        0.146803   191121.897217
        13        34     1        0.101975   399906.970264
        14        15     1        0.153762   166546.975049
        14        17     1        0.153789   143652.496826
        14        35     1        0.109518   296329.195215
        15        16     1        0.153943   173404.046436
        15        36     1        0.109161   311817.962793
        15        37     1        0.109161   311817.962793
        16        19     1        0.146731   190108.993311
        16        38     1        0.109491   295731.856689
        16        39     1        0.109491   295731.856689
        17        18     1        0.123040   609921.067773
        17        19     1        0.135997   293600.427393
        19        20     1        0.146082   191522.676611
        20        21     1        0.153522   178794.113037
        20        22     1        0.154579   145088.563403
        20        40     1        0.109199   304154.608252
        21        41     1        0.109216   305763.446143
        21        42     1        0.109216   305763.446143
        21        43     1        0.109216   305763.446143
        22        23     1        0.123348   593715.218164
        22        24     1        0.136666   294032.796191
        24        25     1        0.146801   191022.353564
        24        29     1        0.146801   191022.340796
        25        26     1        0.152763   185011.786279
        25        44     1        0.109338   299004.896924
        25        45     1        0.109338   299004.896924
        26        27     1        0.142906   199750.452344
        26        46     1        0.109582   293226.104443
        26        47     1        0.109582   293226.104443
        27        28     1        0.142906   199750.477881
        28        29     1        0.152763   185011.786279
        28        48     1        0.109582   293226.104443
        28        49     1        0.109582   293226.104443
        29        50     1        0.109338   299004.947998
        29        51     1        0.109338   299004.947998
        30        53     1        0.108101   339296.096777

[ angles ]
;       ai        aj        ak funct           theta             cth
         1         2         3     1      119.229630      328.478443
         1         2         8     1      118.255295      393.095119
         2         3         4     1      117.873032      629.399664
         2         3        31     1      120.723267      421.616814
         2         8         7     1      120.236183      568.985503
         2         8        33     1      119.469444      430.540086
         3         2         8     1      122.538536      583.651529
         3         4         5     1      119.364296      737.736573
         3         4        30     1      133.411377      445.022852
         4         3        31     1      121.263382      427.535869
         4         5         6     1      107.607323      248.022312
         4         5         7     1      122.062843      629.095645
         4        30         9     1      106.311203      401.863573
         4        30        53     1      128.047272      371.721931
         5         4        30     1      107.115623      433.944279
         5         6         9     1      108.348083      420.660960
         5         6        52     1      127.084106      378.133405
         5         7         8     1      117.795265      790.810603
         5         7        32     1      121.706581      436.846795
         6         5         7     1      130.349609      468.423462
         6         9        10     1      119.170433      377.183648
         6         9        30     1      110.758911      167.360000
         7         8        33     1      120.424728      418.922521
         8         7        32     1      120.386398      438.729231
         9         6        52     1      123.129089      367.213514
         9        10        11     1      107.430099      587.571156
         9        10        12     1      107.430099      587.571219
         9        10        13     1      102.466675      497.333864
         9        30        53     1      125.777237      369.925427
        10         9        30     1      129.738892      358.707773
        10        13        14     1      117.787979      567.965615
        10        13        34     1      108.476074      617.195990
        11        10        12     1      121.634743      719.842976
        11        10        13     1      107.419655      662.230044
        12        10        13     1      107.419655      662.230044
        13        14        15     1      114.606224      537.636977
        13        14        17     1      109.682396      534.673619
        13        14        35     1      109.228836      452.924129
        14        13        34     1      112.696304      496.087558
        14        15        16     1      103.621536      585.271539
        14        15        36     1      110.849350      481.501080
        14        15        37     1      110.849350      481.501080
        14        17        18     1      125.121971      420.324317
        14        17        19     1      107.968849      353.959914
        15        14        17     1      103.511047      547.046381
        15        14        35     1      110.870338      433.337613
        15        16        19     1      103.270203      586.268188
        15        16        38     1      112.132156      454.176533
        15        16        39     1      112.132156      454.176533
        16        15        36     1      111.340355      481.524989
        16        15        37     1      111.340355      481.524989
        16        19        17     1      113.311218      437.943709
        16        19        20     1      122.047386      514.268798
        17        14        35     1      107.659401      517.216355
        17        19        20     1      122.368851      545.953137
        18        17        19     1      126.699257      600.468992
        19        16        38     1      110.468552      450.026433
        19        16        39     1      110.468552      450.026433
        19        20        21     1      112.462791      689.158032
        19        20        22     1      109.734154      557.845194
        19        20        40     1      105.272728      542.259577
        20        21        41     1      110.287804      499.972359
        20        21        42     1      110.287804      499.972359
        20        21        43     1      110.287804      499.972359
        20        22        23     1      119.634476      398.868804
        20        22        24     1      118.134972      452.290649
        21        20        22     1      111.384232      621.169373
        21        20        40     1      108.504562      483.302978
        22        20        40     1      108.414406      479.417763
        22        24        25     1      122.242836      522.086889
        22        24        29     1      122.242836      522.086889
        23        22        24     1      121.980515      642.918371
        24        25        26     1      109.468040      691.740408
        24        25        44     1      109.737137      455.037229
        24        25        45     1      109.737137      455.037229
        24        29        28     1      109.468040      691.740408
        24        29        50     1      109.737137      455.037229
        24        29        51     1      109.737137      455.037229
        25        24        29     1      114.681778      504.716898
        25        26        27     1      112.231979      634.459778
        25        26        46     1      109.793846      487.937804
        25        26        47     1      109.793846      487.937804
        26        25        44     1      110.007591      488.286801
        26        25        45     1      110.007591      488.286801
        26        27        28     1      112.590408      587.596246
        27        26        46     1      108.218735      463.772708
        27        26        47     1      108.218735      463.772708
        27        28        29     1      112.231979      634.459778
        27        28        48     1      108.218735      463.772708
        27        28        49     1      108.218735      463.772708
        28        29        50     1      110.007607      488.286801
        28        29        51     1      110.007591      488.286801
        29        28        48     1      109.793846      487.937804
        29        28        49     1      109.793846      487.937804
        36        15        37     1      108.513290      354.940156
        38        16        39     1      108.141113      343.643464
        41        21        42     1      108.696815      357.638151
        41        21        43     1      108.696815      357.638151
        42        21        43     1      108.696815      357.638151
        44        25        45     1      107.943527      345.985281
        46        26        47     1      108.332138      339.167192
        48        28        49     1      108.332138      339.167160
        50        29        51     1      107.943527      345.985281

[ dihedrals ] ; propers for gromacs 4.5 or higher, use funct 9
;       ai        aj        ak        al funct           phase               k        pn
         1         2         3         4     9        0.000000        0.147985         1
         1         2         3         4     9      180.000000       22.592092         2
         1         2         3         4     9        0.000000        0.314339         3
         1         2         3         4     9      180.000000       -1.013235         4
         1         2         3        31     9        0.000000        0.143819         1
         1         2         3        31     9      180.000000       14.129735         2
         1         2         3        31     9        0.000000       -0.036763         3
         1         2         3        31     9      180.000000        0.272817         4
         1         2         8         7     9        0.000000        0.302774         1
         1         2         8         7     9      180.000000       17.460073         2
         1         2         8         7     9        0.000000        0.202944         3
         1         2         8         7     9      180.000000       -0.456743         4
         1         2         8        33     9        0.000000        0.135236         1
         1         2         8        33     9      180.000000       12.671068         2
         1         2         8        33     9        0.000000       -0.096016         3
         1         2         8        33     9      180.000000        0.200367         4
         2         3         4         5     9        0.000000        0.021745         1
         2         3         4         5     9      180.000000       18.409658         2
         2         3         4         5     9        0.000000       -1.727110         3
         2         3         4         5     9      180.000000       -0.397359         4
         2         3         4        30     9        0.000000        0.222436         1
         2         3         4        30     9      180.000000       13.349999         2
         2         3         4        30     9        0.000000       -0.545309         3
         2         3         4        30     9      180.000000       -0.277171         4
         2         8         7         5     9        0.000000       -0.014680         1
         2         8         7         5     9      180.000000       20.619336         2
         2         8         7         5     9        0.000000       -1.481336         3
         2         8         7         5     9      180.000000       -0.454881         4
         2         8         7        32     9        0.000000        0.106448         1
         2         8         7        32     9      180.000000       14.503203         2
         2         8         7        32     9        0.000000       -0.397652         3
         2         8         7        32     9      180.000000        0.138914         4
         3         2         8         7     9        0.000000       -0.082509         1
         3         2         8         7     9      180.000000       16.483125         2
         3         2         8         7     9        0.000000       -1.221867         3
         3         2         8         7     9      180.000000       -0.288305         4
         3         2         8        33     9        0.000000       -0.053182         1
         3         2         8        33     9      180.000000       12.631114         2
         3         2         8        33     9        0.000000       -0.636567         3
         3         2         8        33     9      180.000000        0.133155         4
         3         4         5         6     9        0.000000        0.367641         1
         3         4         5         6     9      180.000000       11.546164         2
         3         4         5         6     9        0.000000       -1.979492         3
         3         4         5         6     9      180.000000       -0.110246         4
         3         4         5         7     9        0.000000        0.036640         1
         3         4         5         7     9      180.000000       10.892692         2
         3         4         5         7     9        0.000000       -1.384245         3
         3         4         5         7     9      180.000000       -0.111770         4
         3         4        30         9     9        0.000000        0.024022         1
         3         4        30         9     9      180.000000        4.996107         2
         3         4        30         9     9        0.000000       -0.649760         3
         3         4        30         9     9      180.000000        0.079539         4
         3         4        30        53     9        0.000000       -0.456436         1
         3         4        30        53     9      180.000000        4.829265         2
         3         4        30        53     9        0.000000       -0.089937         3
         3         4        30        53     9      180.000000        0.136343         4
         4         3         2         8     9        0.000000       -0.095013         1
         4         3         2         8     9      180.000000       19.619662         2
         4         3         2         8     9        0.000000       -1.430396         3
         4         3         2         8     9      180.000000       -0.460551         4
         4         5         6         9     9        0.000000        0.046928         1
         4         5         6         9     9      180.000000       19.727247         2
         4         5         6         9     9        0.000000       -4.394519         3
         4         5         6         9     9      180.000000       -0.471218         4
         4         5         6        52     9        0.000000        0.480364         1
         4         5         6        52     9      180.000000        1.501244         2
         4         5         6        52     9        0.000000        0.380418         3
         4         5         6        52     9      180.000000        0.122741         4
         4         5         7         8     9        0.000000       -0.090697         1
         4         5         7         8     9      180.000000       17.645181         2
         4         5         7         8     9        0.000000       -1.566905         3
         4         5         7         8     9      180.000000       -0.328016         4
         4         5         7        32     9        0.000000        0.162177         1
         4         5         7        32     9      180.000000       12.167102         2
         4         5         7        32     9        0.000000       -0.159393         3
         4         5         7        32     9      180.000000       -0.006292         4
         4        30         9         6     9        0.000000       -0.174733         1
         4        30         9         6     9      180.000000       30.819273         2
         4        30         9         6     9        0.000000       -6.482707         3
         4        30         9         6     9      180.000000       -0.540308         4
         4        30         9        10     9        0.000000        0.265364         1
         4        30         9        10     9      180.000000       14.706261         2
         4        30         9        10     9        0.000000        0.067700         3
         4        30         9        10     9      180.000000       -1.007708         4
         5         4         3        31     9        0.000000        0.314644         1
         5         4         3        31     9      180.000000       13.198945         2
         5         4         3        31     9        0.000000       -0.380020         3
         5         4         3        31     9      180.000000       -0.051046         4
         5         4        30         9     9        0.000000       -0.135796         1
         5         4        30         9     9      180.000000       24.595652         2
         5         4        30         9     9        0.000000       -7.804844         3
         5         4        30         9     9      180.000000       -0.218738         4
         5         4        30        53     9        0.000000        1.714313         1
         5         4        30        53     9      180.000000       10.117693         2
         5         4        30        53     9        0.000000        0.361108         3
         5         4        30        53     9      180.000000       -0.146759         4
         5         6         9        10     9        0.000000        0.014878         1
         5         6         9        10     9      180.000000        4.138434         2
         5         6         9        10     9        0.000000        0.920809         3
         5         6         9        10     9      180.000000        0.055020         4
         5         6         9        30     9        0.000000       -0.001359         1
         5         6         9        30     9      180.000000       20.242193         2
         5         6         9        30     9        0.000000       -5.658239         3
         5         6         9        30     9      180.000000       -0.604750         4
         5         7         8        33     9        0.000000        0.016700         1
         5         7         8        33     9      180.000000       15.858315         2
         5         7         8        33     9        0.000000       -0.647739         3
         5         7         8        33     9      180.000000        0.006204         4
         6         5         4        30     9        0.000000        0.430315         1
         6         5         4        30     9      180.000000       18.899111         2
         6         5         4        30     9        0.000000       -5.566157         3
         6         5         4        30     9      180.000000       -0.529571         4
         6         5         7         8     9        0.000000        0.231939         1
         6         5         7         8     9      180.000000       15.402171         2
         6         5         7         8     9        0.000000       -0.137759         3
         6         5         7         8     9      180.000000       -0.215945         4
         6         5         7        32     9        0.000000       -0.176264         1
         6         5         7        32     9      180.000000       11.357254         2
         6         5         7        32     9        0.000000       -0.096050         3
         6         5         7        32     9      180.000000        0.082250         4
         6         9        10        11     9        0.000000       -0.964819         1
         6         9        10        11     9      180.000000        0.978539         2
         6         9        10        11     9        0.000000        0.585793         3
         6         9        10        11     9      180.000000       -0.076315         4
         6         9        10        12     9        0.000000       -0.964819         1
         6         9        10        12     9      180.000000        0.978539         2
         6         9        10        12     9        0.000000        0.585793         3
         6         9        10        12     9      180.000000       -0.076315         4
         6         9        10        13     9        0.000000        1.250628         1
         6         9        10        13     9      180.000000       -0.268672         2
         6         9        10        13     9        0.000000        1.094646         3
         6         9        10        13     9      180.000000       -0.332708         4
         6         9        30        53     9        0.000000       -0.014067         1
         6         9        30        53     9      180.000000       16.234925         2
         6         9        30        53     9        0.000000       -0.388010         3
         6         9        30        53     9      180.000000       -0.396465         4
         7         5         4        30     9        0.000000        0.237699         1
         7         5         4        30     9      180.000000       10.687423         2
         7         5         4        30     9        0.000000       -1.946950         3
         7         5         4        30     9      180.000000       -0.021638         4
         7         5         6         9     9        0.000000       -0.014582         1
         7         5         6         9     9      180.000000        4.108894         2
         7         5         6         9     9        0.000000       -0.128031         3
         7         5         6         9     9      180.000000        0.079621         4
         7         5         6        52     9        0.000000       -0.340995         1
         7         5         6        52     9      180.000000        0.837155         2
         7         5         6        52     9        0.000000        0.151775         3
         7         5         6        52     9      180.000000       -0.082268         4
         8         2         3        31     9        0.000000        0.023887         1
         8         2         3        31     9      180.000000       14.053665         2
         8         2         3        31     9        0.000000       -0.549977         3
         8         2         3        31     9      180.000000        0.079548         4
         9        10        13        14     9        0.000000       -1.367116         1
         9        10        13        14     9      180.000000       -7.829021         2
         9        10        13        14     9        0.000000        3.024915         3
         9        10        13        14     9      180.000000        0.712554         4
         9        10        13        34     9        0.000000       -6.531374         1
         9        10        13        34     9      180.000000       -5.252648         2
         9        10        13        34     9        0.000000       -0.241412         3
         9        10        13        34     9      180.000000        0.577214         4
        10         9         6        52     9        0.000000       -0.488956         1
        10         9         6        52     9      180.000000        0.603047         2
        10         9         6        52     9        0.000000        0.125241         3
        10         9         6        52     9      180.000000        0.002636         4
        10         9        30        53     9        0.000000        0.323154         1
        10         9        30        53     9      180.000000       10.366113         2
        10         9        30        53     9        0.000000       -0.041599         3
        10         9        30        53     9      180.000000       -0.160570         4
        10        13        14        15     9        0.000000       -2.516767         1
        10        13        14        15     9      180.000000       -0.512478         2
        10        13        14        15     9        0.000000        0.704213         3
        10        13        14        15     9      180.000000       -0.087872         4
        10        13        14        17     9        0.000000        5.494638         1
        10        13        14        17     9      180.000000       -1.245441         2
        10        13        14        17     9        0.000000        0.385591         3
        10        13        14        17     9      180.000000       -0.078733         4
        10        13        14        35     9        0.000000        1.070855         1
        10        13        14        35     9      180.000000       -0.321924         2
        10        13        14        35     9        0.000000        0.510870         3
        10        13        14        35     9      180.000000        0.104254         4
        11        10         9        30     9        0.000000       -0.090073         1
        11        10         9        30     9      180.000000        0.208583         2
        11        10         9        30     9        0.000000        0.179754         3
        11        10         9        30     9      180.000000       -0.046929         4
        11        10        13        14     9        0.000000        0.698535         1
        11        10        13        14     9      180.000000        0.685689         2
        11        10        13        14     9        0.000000        1.800930         3
        11        10        13        14     9      180.000000        0.066016         4
        11        10        13        34     9        0.000000        0.584735         1
        11        10        13        34     9      180.000000       -0.039261         2
        11        10        13        34     9        0.000000       -1.102301         3
        11        10        13        34     9      180.000000       -0.174228         4
        12        10         9        30     9        0.000000       -0.090073         1
        12        10         9        30     9      180.000000        0.208583         2
        12        10         9        30     9        0.000000        0.179754         3
        12        10         9        30     9      180.000000       -0.046929         4
        12        10        13        14     9        0.000000        0.698535         1
        12        10        13        14     9      180.000000        0.685689         2
        12        10        13        14     9        0.000000        1.800930         3
        12        10        13        14     9      180.000000        0.066016         4
        12        10        13        34     9        0.000000        0.584735         1
        12        10        13        34     9      180.000000       -0.039261         2
        12        10        13        34     9        0.000000       -1.102301         3
        12        10        13        34     9      180.000000       -0.174228         4
        13        10         9        30     9        0.000000        0.130536         1
        13        10         9        30     9      180.000000       -0.279803         2
        13        10         9        30     9        0.000000        0.331501         3
        13        10         9        30     9      180.000000       -0.222780         4
        13        14        15        16     9        0.000000       -2.371028         1
        13        14        15        16     9      180.000000        0.493302         2
        13        14        15        16     9        0.000000        0.219696         3
        13        14        15        16     9      180.000000        0.039404         4
        13        14        15        36     9        0.000000        0.115839         1
        13        14        15        36     9      180.000000        0.103985         2
        13        14        15        36     9        0.000000        0.320567         3
        13        14        15        36     9      180.000000       -0.055432         4
        13        14        15        37     9        0.000000        0.115839         1
        13        14        15        37     9      180.000000        0.103985         2
        13        14        15        37     9        0.000000        0.320567         3
        13        14        15        37     9      180.000000       -0.055432         4
        13        14        17        18     9        0.000000       -0.276440         1
        13        14        17        18     9      180.000000        2.724076         2
        13        14        17        18     9        0.000000        0.081228         3
        13        14        17        18     9      180.000000        0.235950         4
        13        14        17        19     9        0.000000       -0.530098         1
        13        14        17        19     9      180.000000        3.183645         2
        13        14        17        19     9        0.000000        0.342514         3
        13        14        17        19     9      180.000000        0.275461         4
        14        15        16        19     9        0.000000       -0.042835         1
        14        15        16        19     9      180.000000        4.374557         2
        14        15        16        19     9        0.000000       -0.123584         3
        14        15        16        19     9      180.000000       -1.799846         4
        14        15        16        38     9        0.000000        0.014455         1
        14        15        16        38     9      180.000000       -0.073723         2
        14        15        16        38     9        0.000000        0.024391         3
        14        15        16        38     9      180.000000        0.124156         4
        14        15        16        39     9        0.000000        0.014455         1
        14        15        16        39     9      180.000000       -0.073723         2
        14        15        16        39     9        0.000000        0.024391         3
        14        15        16        39     9      180.000000        0.124156         4
        14        17        19        16     9        0.000000       -0.588060         1
        14        17        19        16     9      180.000000       17.816234         2
        14        17        19        16     9        0.000000       -0.120065         3
        14        17        19        16     9      180.000000       -1.517294         4
        14        17        19        20     9        0.000000        1.760551         1
        14        17        19        20     9      180.000000       10.870790         2
        14        17        19        20     9        0.000000        0.810696         3
        14        17        19        20     9      180.000000       -0.623590         4
        15        14        13        34     9        0.000000       -1.594770         1
        15        14        13        34     9      180.000000       -0.894177         2
        15        14        13        34     9        0.000000        0.112002         3
        15        14        13        34     9      180.000000       -0.148199         4
        15        14        17        18     9        0.000000        4.568640         1
        15        14        17        18     9      180.000000        4.484743         2
        15        14        17        18     9        0.000000       -0.393270         3
        15        14        17        18     9      180.000000       -0.434644         4
        15        14        17        19     9        0.000000       -0.433847         1
        15        14        17        19     9      180.000000        6.763137         2
        15        14        17        19     9        0.000000       -1.121879         3
        15        14        17        19     9      180.000000       -0.750957         4
        15        16        19        17     9        0.000000       -1.786134         1
        15        16        19        17     9      180.000000        5.578944         2
        15        16        19        17     9        0.000000       -0.334713         3
        15        16        19        17     9      180.000000       -1.019729         4
        15        16        19        20     9        0.000000       -0.982164         1
        15        16        19        20     9      180.000000        1.118137         2
        15        16        19        20     9        0.000000        0.643596         3
        15        16        19        20     9      180.000000       -0.269745         4
        16        15        14        17     9        0.000000       -1.067433         1
        16        15        14        17     9      180.000000        6.288297         2
        16        15        14        17     9        0.000000       -0.312525         3
        16        15        14        17     9      180.000000       -1.475941         4
        16        15        14        35     9        0.000000       -0.046566         1
        16        15        14        35     9      180.000000        0.135027         2
        16        15        14        35     9        0.000000        0.141486         3
        16        15        14        35     9      180.000000        0.194668         4
        16        19        17        18     9        0.000000        1.670021         1
        16        19        17        18     9      180.000000       22.709838         2
        16        19        17        18     9        0.000000        0.650788         3
        16        19        17        18     9      180.000000       -1.143129         4
        16        19        20        21     9        0.000000        1.056288         1
        16        19        20        21     9      180.000000        0.248433         2
        16        19        20        21     9        0.000000        1.020115         3
        16        19        20        21     9      180.000000        0.035708         4
        16        19        20        22     9        0.000000       -0.006752         1
        16        19        20        22     9      180.000000       -0.687001         2
        16        19        20        22     9        0.000000        0.965898         3
        16        19        20        22     9      180.000000        0.047408         4
        16        19        20        40     9        0.000000       -1.324653         1
        16        19        20        40     9      180.000000       -0.237459         2
        16        19        20        40     9        0.000000        0.923645         3
        16        19        20        40     9      180.000000       -0.060214         4
        17        14        13        34     9        0.000000        4.635840         1
        17        14        13        34     9      180.000000       -1.304509         2
        17        14        13        34     9        0.000000        0.164201         3
        17        14        13        34     9      180.000000       -0.035261         4
        17        14        15        36     9        0.000000       -0.054561         1
        17        14        15        36     9      180.000000       -0.043691         2
        17        14        15        36     9        0.000000       -0.088429         3
        17        14        15        36     9      180.000000        0.153840         4
        17        14        15        37     9        0.000000       -0.054561         1
        17        14        15        37     9      180.000000       -0.043691         2
        17        14        15        37     9        0.000000       -0.088429         3
        17        14        15        37     9      180.000000        0.153840         4
        17        19        16        38     9        0.000000        0.108553         1
        17        19        16        38     9      180.000000       -0.000440         2
        17        19        16        38     9        0.000000       -0.019981         3
        17        19        16        38     9      180.000000        0.146580         4
        17        19        16        39     9        0.000000        0.108553         1
        17        19        16        39     9      180.000000       -0.000440         2
        17        19        16        39     9        0.000000       -0.019981         3
        17        19        16        39     9      180.000000        0.146580         4
        17        19        20        21     9        0.000000        0.922000         1
        17        19        20        21     9      180.000000       -0.058052         2
        17        19        20        21     9        0.000000        0.548524         3
        17        19        20        21     9      180.000000        0.035455         4
        17        19        20        22     9        0.000000       -0.527072         1
        17        19        20        22     9      180.000000        0.559860         2
        17        19        20        22     9        0.000000       -0.136893         3
        17        19        20        22     9      180.000000        0.221963         4
        17        19        20        40     9        0.000000       -0.542437         1
        17        19        20        40     9      180.000000       -0.062984         2
        17        19        20        40     9        0.000000       -0.120263         3
        17        19        20        40     9      180.000000        0.202540         4
        18        17        14        35     9        0.000000        0.321641         1
        18        17        14        35     9      180.000000        0.436630         2
        18        17        14        35     9        0.000000       -0.229916         3
        18        17        14        35     9      180.000000        0.146208         4
        18        17        19        20     9        0.000000        1.661571         1
        18        17        19        20     9      180.000000       14.445686         2
        18        17        19        20     9        0.000000        0.543062         3
        18        17        19        20     9      180.000000       -0.577490         4
        19        16        15        36     9        0.000000       -0.019400         1
        19        16        15        36     9      180.000000        0.004663         2
        19        16        15        36     9        0.000000        0.107646         3
        19        16        15        36     9      180.000000        0.111993         4
        19        16        15        37     9        0.000000       -0.019400         1
        19        16        15        37     9      180.000000        0.004663         2
        19        16        15        37     9        0.000000        0.107646         3
        19        16        15        37     9      180.000000        0.111993         4
        19        17        14        35     9        0.000000        1.080243         1
        19        17        14        35     9      180.000000       -0.101643         2
        19        17        14        35     9        0.000000       -0.010666         3
        19        17        14        35     9      180.000000        0.629830         4
        19        20        21        41     9        0.000000        0.027932         1
        19        20        21        41     9      180.000000        0.048555         2
        19        20        21        41     9        0.000000        0.571346         3
        19        20        21        41     9      180.000000        0.019893         4
        19        20        21        42     9        0.000000        0.027932         1
        19        20        21        42     9      180.000000        0.048555         2
        19        20        21        42     9        0.000000        0.571346         3
        19        20        21        42     9      180.000000        0.019893         4
        19        20        21        43     9        0.000000        0.027932         1
        19        20        21        43     9      180.000000        0.048555         2
        19        20        21        43     9        0.000000        0.571346         3
        19        20        21        43     9      180.000000        0.019893         4
        19        20        22        23     9        0.000000       -3.403668         1
        19        20        22        23     9      180.000000        1.746720         2
        19        20        22        23     9        0.000000       -0.045864         3
        19        20        22        23     9      180.000000       -0.140913         4
        19        20        22        24     9        0.000000        1.279096         1
        19        20        22        24     9      180.000000        2.095355         2
        19        20        22        24     9        0.000000        0.014931         3
        19        20        22        24     9      180.000000       -0.193603         4
        20        19        16        38     9        0.000000       -0.030206         1
        20        19        16        38     9      180.000000       -0.404530         2
        20        19        16        38     9        0.000000        1.182118         3
        20        19        16        38     9      180.000000        0.004763         4
        20        19        16        39     9        0.000000       -0.030206         1
        20        19        16        39     9      180.000000       -0.404530         2
        20        19        16        39     9        0.000000        1.182118         3
        20        19        16        39     9      180.000000        0.004763         4
        20        22        24        25     9        0.000000        8.087900         1
        20        22        24        25     9      180.000000       10.076018         2
        20        22        24        25     9        0.000000        0.319309         3
        20        22        24        25     9      180.000000       -0.471963         4
        20        22        24        29     9        0.000000        8.087900         1
        20        22        24        29     9      180.000000       10.076019         2
        20        22        24        29     9        0.000000        0.319308         3
        20        22        24        29     9      180.000000       -0.471964         4
        21        20        22        23     9        0.000000       -0.685838         1
        21        20        22        23     9      180.000000        1.236800         2
        21        20        22        23     9        0.000000        0.098838         3
        21        20        22        23     9      180.000000        0.381403         4
        21        20        22        24     9        0.000000        0.141944         1
        21        20        22        24     9      180.000000        0.745404         2
        21        20        22        24     9        0.000000       -0.234290         3
        21        20        22        24     9      180.000000        0.174722         4
        22        20        21        41     9        0.000000        0.033524         1
        22        20        21        41     9      180.000000        0.089526         2
        22        20        21        41     9        0.000000        0.344680         3
        22        20        21        41     9      180.000000        0.003302         4
        22        20        21        42     9        0.000000        0.033524         1
        22        20        21        42     9      180.000000        0.089526         2
        22        20        21        42     9        0.000000        0.344680         3
        22        20        21        42     9      180.000000        0.003302         4
        22        20        21        43     9        0.000000        0.033524         1
        22        20        21        43     9      180.000000        0.089526         2
        22        20        21        43     9        0.000000        0.344680         3
        22        20        21        43     9      180.000000        0.003302         4
        22        24        25        26     9        0.000000        0.440908         1
        22        24        25        26     9      180.000000        0.444606         2
        22        24        25        26     9        0.000000        0.059412         3
        22        24        25        26     9      180.000000        0.206044         4
        22        24        25        44     9        0.000000       -0.028685         1
        22        24        25        44     9      180.000000       -0.001927         2
        22        24        25        44     9        0.000000        0.252664         3
        22        24        25        44     9      180.000000       -0.014307         4
        22        24        25        45     9        0.000000       -0.028685         1
        22        24        25        45     9      180.000000       -0.001927         2
        22        24        25        45     9        0.000000        0.252664         3
        22        24        25        45     9      180.000000       -0.014307         4
        22        24        29        28     9        0.000000        0.440908         1
        22        24        29        28     9      180.000000        0.444606         2
        22        24        29        28     9        0.000000        0.059412         3
        22        24        29        28     9      180.000000        0.206044         4
        22        24        29        50     9        0.000000       -0.028685         1
        22        24        29        50     9      180.000000       -0.001926         2
        22        24        29        50     9        0.000000        0.252664         3
        22        24        29        50     9      180.000000       -0.014306         4
        22        24        29        51     9        0.000000       -0.028685         1
        22        24        29        51     9      180.000000       -0.001926         2
        22        24        29        51     9        0.000000        0.252664         3
        22        24        29        51     9      180.000000       -0.014306         4
        23        22        20        40     9        0.000000        1.726652         1
        23        22        20        40     9      180.000000       -0.446051         2
        23        22        20        40     9        0.000000        0.259084         3
        23        22        20        40     9      180.000000       -0.318237         4
        23        22        24        25     9        0.000000       -0.829972         1
        23        22        24        25     9      180.000000       15.136697         2
        23        22        24        25     9        0.000000       -1.389194         3
        23        22        24        25     9      180.000000       -0.252977         4
        23        22        24        29     9        0.000000       -0.829973         1
        23        22        24        29     9      180.000000       15.136697         2
        23        22        24        29     9        0.000000       -1.389193         3
        23        22        24        29     9      180.000000       -0.252976         4
        24        22        20        40     9        0.000000       -0.568349         1
        24        22        20        40     9      180.000000       -0.182975         2
        24        22        20        40     9        0.000000       -0.162224         3
        24        22        20        40     9      180.000000       -0.005958         4
        24        25        26        27     9        0.000000        0.131838         1
        24        25        26        27     9      180.000000       -1.297547         2
        24        25        26        27     9        0.000000        0.387839         3
        24        25        26        27     9      180.000000       -0.141180         4
        24        25        26        46     9        0.000000       -0.102106         1
        24        25        26        46     9      180.000000        0.154514         2
        24        25        26        46     9        0.000000        0.456513         3
        24        25        26        46     9      180.000000        0.019598         4
        24        25        26        47     9        0.000000       -0.102106         1
        24        25        26        47     9      180.000000        0.154514         2
        24        25        26        47     9        0.000000        0.456513         3
        24        25        26        47     9      180.000000        0.019598         4
        24        29        28        27     9        0.000000        0.131838         1
        24        29        28        27     9      180.000000       -1.297547         2
        24        29        28        27     9        0.000000        0.387840         3
        24        29        28        27     9      180.000000       -0.141180         4
        24        29        28        48     9        0.000000       -0.102106         1
        24        29        28        48     9      180.000000        0.154513         2
        24        29        28        48     9        0.000000        0.456514         3
        24        29        28        48     9      180.000000        0.019598         4
        24        29        28        49     9        0.000000       -0.102106         1
        24        29        28        49     9      180.000000        0.154513         2
        24        29        28        49     9        0.000000        0.456514         3
        24        29        28        49     9      180.000000        0.019598         4
        25        24        29        28     9        0.000000       -0.005449         1
        25        24        29        28     9      180.000000       -2.867471         2
        25        24        29        28     9        0.000000        1.361352         3
        25        24        29        28     9      180.000000        0.109220         4
        25        24        29        50     9        0.000000       -0.081970         1
        25        24        29        50     9      180.000000        0.115740         2
        25        24        29        50     9        0.000000        1.147305         3
        25        24        29        50     9      180.000000       -0.023844         4
        25        24        29        51     9        0.000000       -0.081970         1
        25        24        29        51     9      180.000000        0.115740         2
        25        24        29        51     9        0.000000        1.147305         3
        25        24        29        51     9      180.000000       -0.023844         4
        25        26        27        28     9        0.000000        0.703463         1
        25        26        27        28     9      180.000000       -1.437895         2
        25        26        27        28     9        0.000000        0.641877         3
        25        26        27        28     9      180.000000        0.056740         4
        26        25        24        29     9        0.000000       -0.005450         1
        26        25        24        29     9      180.000000       -2.867471         2
        26        25        24        29     9        0.000000        1.361352         3
        26        25        24        29     9      180.000000        0.109220         4
        26        27        28        29     9        0.000000        0.703463         1
        26        27        28        29     9      180.000000       -1.437895         2
        26        27        28        29     9        0.000000        0.641877         3
        26        27        28        29     9      180.000000        0.056741         4
        26        27        28        48     9        0.000000       -0.063647         1
        26        27        28        48     9      180.000000        0.078883         2
        26        27        28        48     9        0.000000        0.431540         3
        26        27        28        48     9      180.000000       -0.001696         4
        26        27        28        49     9        0.000000       -0.063647         1
        26        27        28        49     9      180.000000        0.078883         2
        26        27        28        49     9        0.000000        0.431540         3
        26        27        28        49     9      180.000000       -0.001696         4
        27        26        25        44     9        0.000000       -0.026085         1
        27        26        25        44     9      180.000000        0.094480         2
        27        26        25        44     9        0.000000        0.296378         3
        27        26        25        44     9      180.000000        0.001937         4
        27        26        25        45     9        0.000000       -0.026085         1
        27        26        25        45     9      180.000000        0.094480         2
        27        26        25        45     9        0.000000        0.296378         3
        27        26        25        45     9      180.000000        0.001937         4
        27        28        29        50     9        0.000000       -0.026085         1
        27        28        29        50     9      180.000000        0.094480         2
        27        28        29        50     9        0.000000        0.296379         3
        27        28        29        50     9      180.000000        0.001937         4
        27        28        29        51     9        0.000000       -0.026085         1
        27        28        29        51     9      180.000000        0.094480         2
        27        28        29        51     9        0.000000        0.296379         3
        27        28        29        51     9      180.000000        0.001937         4
        28        27        26        46     9        0.000000       -0.063647         1
        28        27        26        46     9      180.000000        0.078882         2
        28        27        26        46     9        0.000000        0.431540         3
        28        27        26        46     9      180.000000       -0.001696         4
        28        27        26        47     9        0.000000       -0.063647         1
        28        27        26        47     9      180.000000        0.078882         2
        28        27        26        47     9        0.000000        0.431540         3
        28        27        26        47     9      180.000000       -0.001696         4
        29        24        25        44     9        0.000000       -0.081970         1
        29        24        25        44     9      180.000000        0.115739         2
        29        24        25        44     9        0.000000        1.147304         3
        29        24        25        44     9      180.000000       -0.023843         4
        29        24        25        45     9        0.000000       -0.081970         1
        29        24        25        45     9      180.000000        0.115739         2
        29        24        25        45     9        0.000000        1.147304         3
        29        24        25        45     9      180.000000       -0.023843         4
        30         4         3        31     9        0.000000       -0.163816         1
        30         4         3        31     9      180.000000       10.515626         2
        30         4         3        31     9        0.000000       -0.062519         3
        30         4         3        31     9      180.000000        0.075121         4
        30         9         6        52     9        0.000000       -0.420005         1
        30         9         6        52     9      180.000000        3.022444         2
        30         9         6        52     9        0.000000        0.447889         3
        30         9         6        52     9      180.000000        0.133853         4
        32         7         8        33     9        0.000000       -0.106872         1
        32         7         8        33     9      180.000000       12.211601         2
        32         7         8        33     9        0.000000       -0.723494         3
        32         7         8        33     9      180.000000        0.257687         4
        34        13        14        35     9        0.000000       -0.790569         1
        34        13        14        35     9      180.000000       -0.760495         2
        34        13        14        35     9        0.000000        0.343501         3
        34        13        14        35     9      180.000000        0.017529         4
        35        14        15        36     9        0.000000       -0.109110         1
        35        14        15        36     9      180.000000        0.002805         2
        35        14        15        36     9        0.000000        0.369205         3
        35        14        15        36     9      180.000000       -0.073895         4
        35        14        15        37     9        0.000000       -0.109110         1
        35        14        15        37     9      180.000000        0.002805         2
        35        14        15        37     9        0.000000        0.369205         3
        35        14        15        37     9      180.000000       -0.073895         4
        36        15        16        38     9        0.000000       -0.042687         1
        36        15        16        38     9      180.000000        0.012428         2
        36        15        16        38     9        0.000000        0.280825         3
        36        15        16        38     9      180.000000       -0.016081         4
        36        15        16        39     9        0.000000       -0.042687         1
        36        15        16        39     9      180.000000        0.012428         2
        36        15        16        39     9        0.000000        0.280825         3
        36        15        16        39     9      180.000000       -0.016081         4
        37        15        16        38     9        0.000000       -0.042687         1
        37        15        16        38     9      180.000000        0.012428         2
        37        15        16        38     9        0.000000        0.280825         3
        37        15        16        38     9      180.000000       -0.016081         4
        37        15        16        39     9        0.000000       -0.042687         1
        37        15        16        39     9      180.000000        0.012428         2
        37        15        16        39     9        0.000000        0.280825         3
        37        15        16        39     9      180.000000       -0.016081         4
        40        20        21        41     9        0.000000       -0.021877         1
        40        20        21        41     9      180.000000        0.068247         2
        40        20        21        41     9        0.000000        0.576275         3
        40        20        21        41     9      180.000000       -0.025914         4
        40        20        21        42     9        0.000000       -0.021877         1
        40        20        21        42     9      180.000000        0.068247         2
        40        20        21        42     9        0.000000        0.576275         3
        40        20        21        42     9      180.000000       -0.025914         4
        40        20        21        43     9        0.000000       -0.021877         1
        40        20        21        43     9      180.000000        0.068247         2
        40        20        21        43     9        0.000000        0.576275         3
        40        20        21        43     9      180.000000       -0.025914         4
        44        25        26        46     9        0.000000       -0.023964         1
        44        25        26        46     9      180.000000        0.011206         2
        44        25        26        46     9        0.000000        0.270678         3
        44        25        26        46     9      180.000000        0.028411         4
        44        25        26        47     9        0.000000       -0.023964         1
        44        25        26        47     9      180.000000        0.011206         2
        44        25        26        47     9        0.000000        0.270678         3
        44        25        26        47     9      180.000000        0.028411         4
        45        25        26        46     9        0.000000       -0.023964         1
        45        25        26        46     9      180.000000        0.011206         2
        45        25        26        46     9        0.000000        0.270678         3
        45        25        26        46     9      180.000000        0.028411         4
        45        25        26        47     9        0.000000       -0.023964         1
        45        25        26        47     9      180.000000        0.011206         2
        45        25        26        47     9        0.000000        0.270678         3
        45        25        26        47     9      180.000000        0.028411         4
        48        28        29        50     9        0.000000       -0.023962         1
        48        28        29        50     9      180.000000        0.011207         2
        48        28        29        50     9        0.000000        0.270678         3
        48        28        29        50     9      180.000000        0.028410         4
        48        28        29        51     9        0.000000       -0.023962         1
        48        28        29        51     9      180.000000        0.011207         2
        48        28        29        51     9        0.000000        0.270678         3
        48        28        29        51     9      180.000000        0.028410         4
        49        28        29        50     9        0.000000       -0.023962         1
        49        28        29        50     9      180.000000        0.011207         2
        49        28        29        50     9        0.000000        0.270678         3
        49        28        29        50     9      180.000000        0.028410         4
        49        28        29        51     9        0.000000       -0.023962         1
        49        28        29        51     9      180.000000        0.011207         2
        49        28        29        51     9        0.000000        0.270678         3
        49        28        29        51     9      180.000000        0.028410         4

[ dihedrals ] ; impropers
;       ai        aj        ak        al funct           phase               k        pn
         3         2         4        31     4      180.000000        0.235574         2
         3         4        31         2     4      180.000000        0.235574         2
         3        31         2         4     4      180.000000        0.235574         2
        17        14        18        19     4      180.000000       12.659429         2
        17        18        19        14     4      180.000000       12.659429         2
        17        19        14        18     4      180.000000       12.659429         2
        22        20        23        24     4      180.000000        9.205954         2
        22        23        24        20     4      180.000000        9.205954         2
        22        24        20        23     4      180.000000        9.205954         2

[ pairs ]
;       ai        aj funct
         1         4     1
         1         7     1
         1        31     1
         1        33     1
         2         5     1
         2        30     1
         2        32     1
         3         6     1
         3         7     1
         3         9     1
         3        33     1
         3        53     1
         4         8     1
         4        10     1
         4        32     1
         4        52     1
         5        10     1
         5        31     1
         5        33     1
         5        53     1
         6         8     1
         6        11     1
         6        12     1
         6        13     1
         6        32     1
         6        53     1
         7         9     1
         7        30     1
         7        52     1
         8        31     1
         9        14     1
         9        34     1
        10        15     1
        10        17     1
        10        35     1
        10        52     1
        10        53     1
        11        14     1
        11        30     1
        11        34     1
        12        14     1
        12        30     1
        12        34     1
        13        16     1
        13        18     1
        13        19     1
        13        30     1
        13        36     1
        13        37     1
        14        20     1
        14        38     1
        14        39     1
        15        18     1
        15        20     1
        15        34     1
        16        18     1
        16        21     1
        16        22     1
        16        35     1
        16        40     1
        17        21     1
        17        22     1
        17        34     1
        17        36     1
        17        37     1
        17        38     1
        17        39     1
        17        40     1
        18        20     1
        18        35     1
        19        23     1
        19        24     1
        19        35     1
        19        36     1
        19        37     1
        19        41     1
        19        42     1
        19        43     1
        20        25     1
        20        29     1
        20        38     1
        20        39     1
        21        23     1
        21        24     1
        22        26     1
        22        28     1
        22        41     1
        22        42     1
        22        43     1
        22        44     1
        22        45     1
        22        50     1
        22        51     1
        23        25     1
        23        29     1
        23        40     1
        24        27     1
        24        40     1
        24        46     1
        24        47     1
        24        48     1
        24        49     1
        25        28     1
        25        50     1
        25        51     1
        26        29     1
        26        48     1
        26        49     1
        27        44     1
        27        45     1
        27        50     1
        27        51     1
        28        46     1
        28        47     1
        29        44     1
        29        45     1
        30        31     1
        30        52     1
        32        33     1
        34        35     1
        35        36     1
        35        37     1
        36        38     1
        36        39     1
        37        38     1
        37        39     1
        40        41     1
        40        42     1
        40        43     1
        44        46     1
        44        47     1
        45        46     1
        45        47     1
        48        50     1
        48        51     1
        49        50     1
        49        51     1
