; ITP file created by ByteFF-ML, 2025-12-06 08:01:25.246730

[ atomtypes ]
;name           bonded.type        at.num        mass        charge   ptype           sigma         epsilon
 cl0bf                                 17      0.0000       0.00000       A     3.46744e-01     1.10459e+00
 c1bf                                   6      0.0000       0.00000       A     3.31507e-01     4.12884e-01
 c2bf                                   6      0.0000       0.00000       A     3.31434e-01     4.12908e-01
 c3bf                                   6      0.0000       0.00000       A     3.31654e-01     4.12365e-01
 c4bf                                   6      0.0000       0.00000       A     3.31486e-01     4.12609e-01
 c5bf                                   6      0.0000       0.00000       A     3.31278e-01     4.12528e-01
 c6bf                                   6      0.0000       0.00000       A     3.31478e-01     4.13455e-01
 c7bf                                   6      0.0000       0.00000       A     3.31498e-01     4.12439e-01
 c8bf                                   6      0.0000       0.00000       A     3.31500e-01     4.15201e-01
 s9bf                                  16      0.0000       0.00000       A     4.06150e-01     2.51895e-01
 o10bf                                  8      0.0000       0.00000       A     3.04893e-01     6.12051e-01
 o11bf                                  8      0.0000       0.00000       A     3.04893e-01     6.12051e-01
 n12bf                                  7      0.0000       0.00000       A     3.50455e-01     2.19592e-01
 c13bf                                  6      0.0000       0.00000       A     3.40107e-01     4.49740e-01
 c14bf                                  6      0.0000       0.00000       A     3.39888e-01     4.51758e-01
 c15bf                                  6      0.0000       0.00000       A     3.39876e-01     4.51158e-01
 c16bf                                  6      0.0000       0.00000       A     3.31760e-01     4.12573e-01
 o17bf                                  8      0.0000       0.00000       A     3.04794e-01     6.15556e-01
 n18bf                                  7      0.0000       0.00000       A     3.18260e-01     6.88160e-01
 c19bf                                  6      0.0000       0.00000       A     3.39757e-01     4.50874e-01
 c20bf                                  6      0.0000       0.00000       A     3.39605e-01     4.49879e-01
 c21bf                                  6      0.0000       0.00000       A     3.31657e-01     4.13830e-01
 o22bf                                  8      0.0000       0.00000       A     3.04754e-01     6.13558e-01
 n23bf                                  7      0.0000       0.00000       A     3.17857e-01     6.84912e-01
 c24bf                                  6      0.0000       0.00000       A     3.39840e-01     4.50763e-01
 c25bf                                  6      0.0000       0.00000       A     3.39665e-01     4.51065e-01
 o26bf                                  8      0.0000       0.00000       A     3.15559e-01     3.02369e-01
 c27bf                                  6      0.0000       0.00000       A     3.39665e-01     4.51065e-01
 c28bf                                  6      0.0000       0.00000       A     3.39840e-01     4.50763e-01
 n29bf                                  7      0.0000       0.00000       A     3.20546e-01     8.45987e-01
 h30bf                                  1      0.0000       0.00000       A     2.62418e-01     6.71849e-02
 h31bf                                  1      0.0000       0.00000       A     2.62708e-01     6.65513e-02
 h32bf                                  1      0.0000       0.00000       A     2.62532e-01     6.68897e-02
 h33bf                                  1      0.0000       0.00000       A     2.62494e-01     6.72839e-02
 h34bf                                  1      0.0000       0.00000       A     1.10173e-01     4.03774e-02
 h35bf                                  1      0.0000       0.00000       A     2.41336e-01     8.93895e-02
 h36bf                                  1      0.0000       0.00000       A     2.59998e-01     8.72188e-02
 h37bf                                  1      0.0000       0.00000       A     2.59998e-01     8.72188e-02
 h38bf                                  1      0.0000       0.00000       A     2.42182e-01     8.67208e-02
 h39bf                                  1      0.0000       0.00000       A     2.42182e-01     8.67208e-02
 h40bf                                  1      0.0000       0.00000       A     2.42267e-01     8.78125e-02
 h41bf                                  1      0.0000       0.00000       A     2.59883e-01     8.72300e-02
 h42bf                                  1      0.0000       0.00000       A     2.59883e-01     8.72300e-02
 h43bf                                  1      0.0000       0.00000       A     2.59883e-01     8.72300e-02
 h44bf                                  1      0.0000       0.00000       A     2.42002e-01     8.70017e-02
 h45bf                                  1      0.0000       0.00000       A     2.42002e-01     8.70017e-02
 h46bf                                  1      0.0000       0.00000       A     2.42029e-01     8.74327e-02
 h47bf                                  1      0.0000       0.00000       A     2.42029e-01     8.74327e-02
 h48bf                                  1      0.0000       0.00000       A     2.42029e-01     8.74327e-02
 h49bf                                  1      0.0000       0.00000       A     2.42029e-01     8.74327e-02
 h50bf                                  1      0.0000       0.00000       A     2.42002e-01     8.70017e-02
 h51bf                                  1      0.0000       0.00000       A     2.42002e-01     8.70017e-02
 h52bf                                  1      0.0000       0.00000       A     1.10905e-01     4.15888e-02

[ moleculetype ]
;name             nrexcl
 1t                    3

[ atoms ]
;       nr            type      resi   res      atom      cgnr      charge          mass ; qtot
         1           cl0bf         1   UNL       cl0         1    -0.21734       35.4530 ; qtot   -0.217
         2            c1bf         1   UNL        c1         2     0.14339       12.0110 ; qtot   -0.074
         3            c2bf         1   UNL        c2         3    -0.11582       12.0110 ; qtot   -0.190
         4            c3bf         1   UNL        c3         4    -0.01119       12.0110 ; qtot   -0.201
         5            c4bf         1   UNL        c4         5    -0.12170       12.0110 ; qtot   -0.323
         6            c5bf         1   UNL        c5         6    -0.07502       12.0110 ; qtot   -0.398
         7            c6bf         1   UNL        c6         7    -0.03619       12.0110 ; qtot   -0.434
         8            c7bf         1   UNL        c7         8    -0.13025       12.0110 ; qtot   -0.564
         9            c8bf         1   UNL        c8         9    -0.26001       12.0110 ; qtot   -0.824
        10            s9bf         1   UNL        s9        10     1.11606       32.0670 ; qtot    0.292
        11           o10bf         1   UNL       o10        11    -0.52051       15.9990 ; qtot   -0.229
        12           o11bf         1   UNL       o11        12    -0.52051       15.9990 ; qtot   -0.749
        13           n12bf         1   UNL       n12        13    -0.82020       14.0070 ; qtot   -1.569
        14           c13bf         1   UNL       c13        14     0.12236       12.0110 ; qtot   -1.447
        15           c14bf         1   UNL       c14        15    -0.09519       12.0110 ; qtot   -1.542
        16           c15bf         1   UNL       c15        16     0.09495       12.0110 ; qtot   -1.447
        17           c16bf         1   UNL       c16        17     0.54947       12.0110 ; qtot   -0.898
        18           o17bf         1   UNL       o17        18    -0.54655       15.9990 ; qtot   -1.444
        19           n18bf         1   UNL       n18        19    -0.40098       14.0070 ; qtot   -1.845
        20           c19bf         1   UNL       c19        20     0.05721       12.0110 ; qtot   -1.788
        21           c20bf         1   UNL       c20        21    -0.09612       12.0110 ; qtot   -1.884
        22           c21bf         1   UNL       c21        22     0.58704       12.0110 ; qtot   -1.297
        23           o22bf         1   UNL       o22        23    -0.59786       15.9990 ; qtot   -1.895
        24           n23bf         1   UNL       n23        24    -0.41249       14.0070 ; qtot   -2.307
        25           c24bf         1   UNL       c24        25     0.06521       12.0110 ; qtot   -2.242
        26           c25bf         1   UNL       c25        26     0.13811       12.0110 ; qtot   -2.104
        27           o26bf         1   UNL       o26        27    -0.45725       15.9990 ; qtot   -2.561
        28           c27bf         1   UNL       c27        28     0.13811       12.0110 ; qtot   -2.423
        29           c28bf         1   UNL       c28        29     0.06521       12.0110 ; qtot   -2.358
        30           n29bf         1   UNL       n29        30    -0.18193       14.0070 ; qtot   -2.540
        31           h30bf         1   UNL       h30        31     0.13395        1.0080 ; qtot   -2.406
        32           h31bf         1   UNL       h31        32     0.22176        1.0080 ; qtot   -2.184
        33           h32bf         1   UNL       h32        33     0.12399        1.0080 ; qtot   -2.060
        34           h33bf         1   UNL       h33        34     0.13131        1.0080 ; qtot   -1.929
        35           h34bf         1   UNL       h34        35     0.48974        1.0080 ; qtot   -1.439
        36           h35bf         1   UNL       h35        36     0.09180        1.0080 ; qtot   -1.347
        37           h36bf         1   UNL       h36        37     0.07214        1.0080 ; qtot   -1.275
        38           h37bf         1   UNL       h37        38     0.07214        1.0080 ; qtot   -1.203
        39           h38bf         1   UNL       h38        39     0.05454        1.0080 ; qtot   -1.149
        40           h39bf         1   UNL       h39        40     0.05454        1.0080 ; qtot   -1.094
        41           h40bf         1   UNL       h40        41     0.08228        1.0080 ; qtot   -1.012
        42           h41bf         1   UNL       h41        42     0.05105        1.0080 ; qtot   -0.961
        43           h42bf         1   UNL       h42        43     0.05105        1.0080 ; qtot   -0.910
        44           h43bf         1   UNL       h43        44     0.05105        1.0080 ; qtot   -0.859
        45           h44bf         1   UNL       h44        45     0.06485        1.0080 ; qtot   -0.794
        46           h45bf         1   UNL       h45        46     0.06485        1.0080 ; qtot   -0.729
        47           h46bf         1   UNL       h46        47     0.05641        1.0080 ; qtot   -0.673
        48           h47bf         1   UNL       h47        48     0.05641        1.0080 ; qtot   -0.616
        49           h48bf         1   UNL       h48        49     0.05641        1.0080 ; qtot   -0.560
        50           h49bf         1   UNL       h49        50     0.05641        1.0080 ; qtot   -0.503
        51           h50bf         1   UNL       h50        51     0.06485        1.0080 ; qtot   -0.438
        52           h51bf         1   UNL       h51        52     0.06485        1.0080 ; qtot   -0.374
        53           h52bf         1   UNL       h52        53     0.37361        1.0080 ; qtot    0.000

[ bonds ]
;       ai        aj funct               r               k
         1         2     1        0.176153   145201.667261
         2         3     1        0.139121   313938.845264
         2         8     1        0.141096   273636.792139
         3         4     1        0.140080   306827.092285
         3        31     1        0.108494   322573.018555
         4         5     1        0.142831   237474.457666
         4        30     1        0.138109   276604.842676
         5         6     1        0.143599   249874.001123
         5         7     1        0.140854   298926.932129
         6         9     1        0.137442   371849.475879
         6        32     1        0.108111   338524.773926
         7         8     1        0.139029   328224.738379
         7        33     1        0.108608   319731.632080
         8        34     1        0.108443   324987.501172
         9        10     1        0.176497   153300.110303
         9        30     1        0.138492   283365.766846
        10        11     1        0.146483   517890.790527
        10        12     1        0.146483   517890.790527
        10        13     1        0.169183   146703.402515
        13        14     1        0.146803   191121.871680
        13        35     1        0.101975   399906.919189
        14        15     1        0.153762   166546.975049
        14        17     1        0.153789   143652.496826
        14        36     1        0.109518   296329.195215
        15        16     1        0.153943   173404.046436
        15        37     1        0.109161   311817.962793
        15        38     1        0.109161   311817.962793
        16        19     1        0.146731   190108.993311
        16        39     1        0.109491   295731.856689
        16        40     1        0.109491   295731.856689
        17        18     1        0.123040   609921.067773
        17        19     1        0.135997   293600.427393
        19        20     1        0.146082   191522.676611
        20        21     1        0.153522   178794.113037
        20        22     1        0.154579   145088.563403
        20        41     1        0.109199   304154.608252
        21        42     1        0.109216   305763.446143
        21        43     1        0.109216   305763.446143
        21        44     1        0.109216   305763.446143
        22        23     1        0.123348   593715.218164
        22        24     1        0.136666   294032.796191
        24        25     1        0.146801   191022.353564
        24        29     1        0.146801   191022.340796
        25        26     1        0.152763   185011.786279
        25        45     1        0.109338   299004.896924
        25        46     1        0.109338   299004.896924
        26        27     1        0.142906   199750.452344
        26        47     1        0.109582   293226.104443
        26        48     1        0.109582   293226.104443
        27        28     1        0.142906   199750.477881
        28        29     1        0.152763   185011.786279
        28        49     1        0.109582   293226.104443
        28        50     1        0.109582   293226.104443
        29        51     1        0.109338   299004.947998
        29        52     1        0.109338   299004.947998
        30        53     1        0.101249   423723.619043

[ angles ]
;       ai        aj        ak funct           theta             cth
         1         2         3     1      118.821495      327.920489
         1         2         8     1      118.510963      396.926196
         2         3         4     1      116.526039      718.364569
         2         3        31     1      121.028099      425.844674
         2         8         7     1      120.036026      576.990684
         2         8        34     1      119.341942      436.105484
         3         2         8     1      122.618225      566.971710
         3         4         5     1      122.494034      626.476495
         3         4        30     1      129.809631      461.701233
         4         3        31     1      122.361328      433.090414
         4         5         6     1      107.083092      450.745111
         4         5         7     1      118.843704      735.372858
         4        30         9     1      108.351669      418.010336
         4        30        53     1      127.088234      378.568589
         5         4        30     1      107.632507      243.468550
         5         6         9     1      106.320084      395.661566
         5         6        32     1      128.091797      370.435786
         5         7         8     1      119.270752      710.770215
         5         7        33     1      120.631935      434.793228
         6         5         7     1      134.047638      456.321139
         6         9        10     1      129.804932      359.575715
         6         9        30     1      110.712502      167.360000
         7         8        34     1      120.819374      425.625534
         8         7        33     1      120.003258      436.070467
         9         6        32     1      125.726463      370.521623
         9        10        11     1      107.430099      587.571219
         9        10        12     1      107.430099      587.571156
         9        10        13     1      102.466675      497.333928
         9        30        53     1      123.148239      366.750334
        10         9        30     1      119.128273      377.238074
        10        13        14     1      117.787979      567.965615
        10        13        35     1      108.476074      617.195990
        11        10        12     1      121.634743      719.842912
        11        10        13     1      107.419655      662.229980
        12        10        13     1      107.419655      662.229980
        13        14        15     1      114.606224      537.636977
        13        14        17     1      109.682396      534.673715
        13        14        36     1      109.228836      452.924129
        14        13        35     1      112.696304      496.087558
        14        15        16     1      103.621536      585.271539
        14        15        37     1      110.849350      481.501080
        14        15        38     1      110.849350      481.501080
        14        17        18     1      125.121964      420.324317
        14        17        19     1      107.968872      353.959914
        15        14        17     1      103.511047      547.046381
        15        14        36     1      110.870346      433.337613
        15        16        19     1      103.270203      586.268188
        15        16        39     1      112.132156      454.176533
        15        16        40     1      112.132156      454.176533
        16        15        37     1      111.340355      481.524989
        16        15        38     1      111.340355      481.524989
        16        19        17     1      113.311218      437.943709
        16        19        20     1      122.047386      514.268798
        17        14        36     1      107.659401      517.216292
        17        19        20     1      122.368851      545.953137
        18        17        19     1      126.699257      600.468992
        19        16        39     1      110.468552      450.026433
        19        16        40     1      110.468552      450.026433
        19        20        21     1      112.462791      689.158032
        19        20        22     1      109.734154      557.845194
        19        20        41     1      105.272728      542.259577
        20        21        42     1      110.287804      499.972359
        20        21        43     1      110.287804      499.972359
        20        21        44     1      110.287804      499.972359
        20        22        23     1      119.634476      398.868804
        20        22        24     1      118.134972      452.290649
        21        20        22     1      111.384232      621.169373
        21        20        41     1      108.504562      483.302978
        22        20        41     1      108.414406      479.417763
        22        24        25     1      122.242836      522.086889
        22        24        29     1      122.242836      522.086889
        23        22        24     1      121.980515      642.918371
        24        25        26     1      109.468040      691.740408
        24        25        45     1      109.737137      455.037229
        24        25        46     1      109.737137      455.037229
        24        29        28     1      109.468040      691.740408
        24        29        51     1      109.737137      455.037229
        24        29        52     1      109.737137      455.037229
        25        24        29     1      114.681778      504.716898
        25        26        27     1      112.231979      634.459778
        25        26        47     1      109.793846      487.937804
        25        26        48     1      109.793846      487.937804
        26        25        45     1      110.007591      488.286801
        26        25        46     1      110.007591      488.286801
        26        27        28     1      112.590408      587.596246
        27        26        47     1      108.218735      463.772708
        27        26        48     1      108.218735      463.772708
        27        28        29     1      112.231979      634.459778
        27        28        49     1      108.218735      463.772708
        27        28        50     1      108.218735      463.772708
        28        29        51     1      110.007607      488.286801
        28        29        52     1      110.007591      488.286801
        29        28        49     1      109.793846      487.937804
        29        28        50     1      109.793846      487.937804
        37        15        38     1      108.513290      354.940156
        39        16        40     1      108.141113      343.643464
        42        21        43     1      108.696815      357.638151
        42        21        44     1      108.696815      357.638151
        43        21        44     1      108.696815      357.638151
        45        25        46     1      107.943527      345.985281
        47        26        48     1      108.332138      339.167192
        49        28        50     1      108.332138      339.167160
        51        29        52     1      107.943527      345.985281

[ dihedrals ] ; propers for gromacs 4.5 or higher, use funct 9
;       ai        aj        ak        al funct           phase               k        pn
         1         2         3         4     9        0.000000        0.251572         1
         1         2         3         4     9      180.000000       22.713828         2
         1         2         3         4     9        0.000000        0.298659         3
         1         2         3         4     9      180.000000       -1.060834         4
         1         2         3        31     9        0.000000        0.200503         1
         1         2         3        31     9      180.000000       14.037880         2
         1         2         3        31     9        0.000000        0.040389         3
         1         2         3        31     9      180.000000        0.240300         4
         1         2         8         7     9        0.000000        0.335934         1
         1         2         8         7     9      180.000000       17.206078         2
         1         2         8         7     9        0.000000        0.249143         3
         1         2         8         7     9      180.000000       -0.430045         4
         1         2         8        34     9        0.000000        0.108420         1
         1         2         8        34     9      180.000000       12.693023         2
         1         2         8        34     9        0.000000       -0.097494         3
         1         2         8        34     9      180.000000        0.203691         4
         2         3         4         5     9        0.000000       -0.152391         1
         2         3         4         5     9      180.000000       16.969447         2
         2         3         4         5     9        0.000000       -1.488573         3
         2         3         4         5     9      180.000000       -0.306048         4
         2         3         4        30     9        0.000000        0.233167         1
         2         3         4        30     9      180.000000       14.811509         2
         2         3         4        30     9        0.000000       -0.131571         3
         2         3         4        30     9      180.000000       -0.360819         4
         2         8         7         5     9        0.000000       -0.084668         1
         2         8         7         5     9      180.000000       20.687110         2
         2         8         7         5     9        0.000000       -1.494032         3
         2         8         7         5     9      180.000000       -0.379144         4
         2         8         7        33     9        0.000000        0.052642         1
         2         8         7        33     9      180.000000       14.999418         2
         2         8         7        33     9        0.000000       -0.483190         3
         2         8         7        33     9      180.000000        0.168793         4
         3         2         8         7     9        0.000000       -0.100058         1
         3         2         8         7     9      180.000000       16.389075         2
         3         2         8         7     9        0.000000       -1.276419         3
         3         2         8         7     9      180.000000       -0.274401         4
         3         2         8        34     9        0.000000        0.028731         1
         3         2         8        34     9      180.000000       12.589629         2
         3         2         8        34     9        0.000000       -0.577442         3
         3         2         8        34     9      180.000000        0.124314         4
         3         4         5         6     9        0.000000        0.354414         1
         3         4         5         6     9      180.000000       11.128263         2
         3         4         5         6     9        0.000000       -1.929077         3
         3         4         5         6     9      180.000000       -0.116480         4
         3         4         5         7     9        0.000000        0.121028         1
         3         4         5         7     9      180.000000       11.338056         2
         3         4         5         7     9        0.000000       -1.409751         3
         3         4         5         7     9      180.000000       -0.146355         4
         3         4        30         9     9        0.000000        0.093076         1
         3         4        30         9     9      180.000000        4.347818         2
         3         4        30         9     9        0.000000       -0.015220         3
         3         4        30         9     9      180.000000        0.053468         4
         3         4        30        53     9        0.000000       -0.250063         1
         3         4        30        53     9      180.000000        0.893660         2
         3         4        30        53     9        0.000000        0.202929         3
         3         4        30        53     9      180.000000       -0.139658         4
         4         3         2         8     9        0.000000       -0.097675         1
         4         3         2         8     9      180.000000       20.238897         2
         4         3         2         8     9        0.000000       -1.557334         3
         4         3         2         8     9      180.000000       -0.510531         4
         4         5         6         9     9        0.000000       -0.139343         1
         4         5         6         9     9      180.000000       24.744571         2
         4         5         6         9     9        0.000000       -7.921159         3
         4         5         6         9     9      180.000000       -0.198647         4
         4         5         6        32     9        0.000000        1.551506         1
         4         5         6        32     9      180.000000       10.086302         2
         4         5         6        32     9        0.000000        0.414527         3
         4         5         6        32     9      180.000000       -0.154071         4
         4         5         7         8     9        0.000000       -0.066682         1
         4         5         7         8     9      180.000000       19.252455         2
         4         5         7         8     9        0.000000       -1.954303         3
         4         5         7         8     9      180.000000       -0.414620         4
         4         5         7        33     9        0.000000        0.215500         1
         4         5         7        33     9      180.000000       13.722744         2
         4         5         7        33     9        0.000000       -0.415674         3
         4         5         7        33     9      180.000000       -0.077435         4
         4        30         9         6     9        0.000000       -0.015318         1
         4        30         9         6     9      180.000000       20.126255         2
         4        30         9         6     9        0.000000       -5.562860         3
         4        30         9         6     9      180.000000       -0.620871         4
         4        30         9        10     9        0.000000       -0.110962         1
         4        30         9        10     9      180.000000        4.187201         2
         4        30         9        10     9        0.000000        0.941501         3
         4        30         9        10     9      180.000000        0.062761         4
         5         4         3        31     9        0.000000        0.097640         1
         5         4         3        31     9      180.000000       11.833274         2
         5         4         3        31     9        0.000000       -0.185757         3
         5         4         3        31     9      180.000000        0.082356         4
         5         4        30         9     9        0.000000        0.167566         1
         5         4        30         9     9      180.000000       19.773029         2
         5         4        30         9     9        0.000000       -4.473026         3
         5         4        30         9     9      180.000000       -0.542281         4
         5         4        30        53     9        0.000000        0.253232         1
         5         4        30        53     9      180.000000        1.536225         2
         5         4        30        53     9        0.000000        0.352637         3
         5         4        30        53     9      180.000000        0.113896         4
         5         6         9        10     9        0.000000        0.296973         1
         5         6         9        10     9      180.000000       14.573931         2
         5         6         9        10     9        0.000000        0.106068         3
         5         6         9        10     9      180.000000       -1.026491         4
         5         6         9        30     9        0.000000       -0.121537         1
         5         6         9        30     9      180.000000       30.627683         2
         5         6         9        30     9        0.000000       -6.514901         3
         5         6         9        30     9      180.000000       -0.522317         4
         5         7         8        34     9        0.000000       -0.023916         1
         5         7         8        34     9      180.000000       15.978250         2
         5         7         8        34     9        0.000000       -0.567116         3
         5         7         8        34     9      180.000000        0.030056         4
         6         5         4        30     9        0.000000        0.376365         1
         6         5         4        30     9      180.000000       18.778584         2
         6         5         4        30     9        0.000000       -5.532205         3
         6         5         4        30     9      180.000000       -0.505070         4
         6         5         7         8     9        0.000000        0.092000         1
         6         5         7         8     9      180.000000       13.795140         2
         6         5         7         8     9        0.000000       -0.705739         3
         6         5         7         8     9      180.000000       -0.163885         4
         6         5         7        33     9        0.000000       -0.141588         1
         6         5         7        33     9      180.000000       10.742568         2
         6         5         7        33     9        0.000000       -0.128912         3
         6         5         7        33     9      180.000000        0.035851         4
         6         9        10        11     9        0.000000       -0.114862         1
         6         9        10        11     9      180.000000        0.239103         2
         6         9        10        11     9        0.000000        0.187489         3
         6         9        10        11     9      180.000000       -0.045529         4
         6         9        10        12     9        0.000000       -0.114862         1
         6         9        10        12     9      180.000000        0.239103         2
         6         9        10        12     9        0.000000        0.187489         3
         6         9        10        12     9      180.000000       -0.045529         4
         6         9        10        13     9        0.000000        0.167032         1
         6         9        10        13     9      180.000000       -0.301755         2
         6         9        10        13     9        0.000000        0.356671         3
         6         9        10        13     9      180.000000       -0.221702         4
         6         9        30        53     9        0.000000       -0.284270         1
         6         9        30        53     9      180.000000        3.048860         2
         6         9        30        53     9        0.000000        0.453723         3
         6         9        30        53     9      180.000000        0.142497         4
         7         5         4        30     9        0.000000        0.293070         1
         7         5         4        30     9      180.000000       11.140931         2
         7         5         4        30     9        0.000000       -2.058034         3
         7         5         4        30     9      180.000000       -0.080026         4
         7         5         6         9     9        0.000000        0.061021         1
         7         5         6         9     9      180.000000        4.899166         2
         7         5         6         9     9        0.000000       -0.685684         3
         7         5         6         9     9      180.000000        0.062039         4
         7         5         6        32     9        0.000000       -0.596471         1
         7         5         6        32     9      180.000000        4.759568         2
         7         5         6        32     9        0.000000       -0.176282         3
         7         5         6        32     9      180.000000        0.137001         4
         8         2         3        31     9        0.000000        0.088522         1
         8         2         3        31     9      180.000000       13.980676         2
         8         2         3        31     9        0.000000       -0.464372         3
         8         2         3        31     9      180.000000        0.086409         4
         9        10        13        14     9        0.000000       -1.367116         1
         9        10        13        14     9      180.000000       -7.829018         2
         9        10        13        14     9        0.000000        3.024914         3
         9        10        13        14     9      180.000000        0.712554         4
         9        10        13        35     9        0.000000       -6.531372         1
         9        10        13        35     9      180.000000       -5.252649         2
         9        10        13        35     9        0.000000       -0.241412         3
         9        10        13        35     9      180.000000        0.577215         4
        10         9         6        32     9        0.000000        0.322538         1
        10         9         6        32     9      180.000000       10.319871         2
        10         9         6        32     9        0.000000       -0.063521         3
        10         9         6        32     9      180.000000       -0.162698         4
        10         9        30        53     9        0.000000       -0.504008         1
        10         9        30        53     9      180.000000        0.655212         2
        10         9        30        53     9        0.000000        0.136206         3
        10         9        30        53     9      180.000000       -0.004406         4
        10        13        14        15     9        0.000000       -2.516769         1
        10        13        14        15     9      180.000000       -0.512478         2
        10        13        14        15     9        0.000000        0.704213         3
        10        13        14        15     9      180.000000       -0.087873         4
        10        13        14        17     9        0.000000        5.494639         1
        10        13        14        17     9      180.000000       -1.245440         2
        10        13        14        17     9        0.000000        0.385591         3
        10        13        14        17     9      180.000000       -0.078734         4
        10        13        14        36     9        0.000000        1.070853         1
        10        13        14        36     9      180.000000       -0.321924         2
        10        13        14        36     9        0.000000        0.510870         3
        10        13        14        36     9      180.000000        0.104253         4
        11        10         9        30     9        0.000000       -0.906599         1
        11        10         9        30     9      180.000000        0.986739         2
        11        10         9        30     9        0.000000        0.580478         3
        11        10         9        30     9      180.000000       -0.075317         4
        11        10        13        14     9        0.000000        0.698535         1
        11        10        13        14     9      180.000000        0.685691         2
        11        10        13        14     9        0.000000        1.800929         3
        11        10        13        14     9      180.000000        0.066016         4
        11        10        13        35     9        0.000000        0.584738         1
        11        10        13        35     9      180.000000       -0.039260         2
        11        10        13        35     9        0.000000       -1.102302         3
        11        10        13        35     9      180.000000       -0.174229         4
        12        10         9        30     9        0.000000       -0.906599         1
        12        10         9        30     9      180.000000        0.986739         2
        12        10         9        30     9        0.000000        0.580478         3
        12        10         9        30     9      180.000000       -0.075317         4
        12        10        13        14     9        0.000000        0.698535         1
        12        10        13        14     9      180.000000        0.685691         2
        12        10        13        14     9        0.000000        1.800929         3
        12        10        13        14     9      180.000000        0.066016         4
        12        10        13        35     9        0.000000        0.584738         1
        12        10        13        35     9      180.000000       -0.039260         2
        12        10        13        35     9        0.000000       -1.102302         3
        12        10        13        35     9      180.000000       -0.174229         4
        13        10         9        30     9        0.000000        1.268770         1
        13        10         9        30     9      180.000000       -0.249980         2
        13        10         9        30     9        0.000000        1.102623         3
        13        10         9        30     9      180.000000       -0.332783         4
        13        14        15        16     9        0.000000       -2.371027         1
        13        14        15        16     9      180.000000        0.493303         2
        13        14        15        16     9        0.000000        0.219695         3
        13        14        15        16     9      180.000000        0.039404         4
        13        14        15        37     9        0.000000        0.115839         1
        13        14        15        37     9      180.000000        0.103984         2
        13        14        15        37     9        0.000000        0.320567         3
        13        14        15        37     9      180.000000       -0.055431         4
        13        14        15        38     9        0.000000        0.115839         1
        13        14        15        38     9      180.000000        0.103984         2
        13        14        15        38     9        0.000000        0.320567         3
        13        14        15        38     9      180.000000       -0.055431         4
        13        14        17        18     9        0.000000       -0.276441         1
        13        14        17        18     9      180.000000        2.724075         2
        13        14        17        18     9        0.000000        0.081229         3
        13        14        17        18     9      180.000000        0.235950         4
        13        14        17        19     9        0.000000       -0.530099         1
        13        14        17        19     9      180.000000        3.183647         2
        13        14        17        19     9        0.000000        0.342515         3
        13        14        17        19     9      180.000000        0.275461         4
        14        15        16        19     9        0.000000       -0.042836         1
        14        15        16        19     9      180.000000        4.374558         2
        14        15        16        19     9        0.000000       -0.123584         3
        14        15        16        19     9      180.000000       -1.799846         4
        14        15        16        39     9        0.000000        0.014455         1
        14        15        16        39     9      180.000000       -0.073723         2
        14        15        16        39     9        0.000000        0.024392         3
        14        15        16        39     9      180.000000        0.124156         4
        14        15        16        40     9        0.000000        0.014455         1
        14        15        16        40     9      180.000000       -0.073723         2
        14        15        16        40     9        0.000000        0.024392         3
        14        15        16        40     9      180.000000        0.124156         4
        14        17        19        16     9        0.000000       -0.588059         1
        14        17        19        16     9      180.000000       17.816238         2
        14        17        19        16     9        0.000000       -0.120065         3
        14        17        19        16     9      180.000000       -1.517294         4
        14        17        19        20     9        0.000000        1.760550         1
        14        17        19        20     9      180.000000       10.870791         2
        14        17        19        20     9        0.000000        0.810696         3
        14        17        19        20     9      180.000000       -0.623590         4
        15        14        13        35     9        0.000000       -1.594770         1
        15        14        13        35     9      180.000000       -0.894178         2
        15        14        13        35     9        0.000000        0.112002         3
        15        14        13        35     9      180.000000       -0.148199         4
        15        14        17        18     9        0.000000        4.568640         1
        15        14        17        18     9      180.000000        4.484743         2
        15        14        17        18     9        0.000000       -0.393270         3
        15        14        17        18     9      180.000000       -0.434644         4
        15        14        17        19     9        0.000000       -0.433849         1
        15        14        17        19     9      180.000000        6.763139         2
        15        14        17        19     9        0.000000       -1.121879         3
        15        14        17        19     9      180.000000       -0.750957         4
        15        16        19        17     9        0.000000       -1.786134         1
        15        16        19        17     9      180.000000        5.578944         2
        15        16        19        17     9        0.000000       -0.334713         3
        15        16        19        17     9      180.000000       -1.019729         4
        15        16        19        20     9        0.000000       -0.982164         1
        15        16        19        20     9      180.000000        1.118137         2
        15        16        19        20     9        0.000000        0.643596         3
        15        16        19        20     9      180.000000       -0.269745         4
        16        15        14        17     9        0.000000       -1.067432         1
        16        15        14        17     9      180.000000        6.288297         2
        16        15        14        17     9        0.000000       -0.312524         3
        16        15        14        17     9      180.000000       -1.475942         4
        16        15        14        36     9        0.000000       -0.046566         1
        16        15        14        36     9      180.000000        0.135027         2
        16        15        14        36     9        0.000000        0.141486         3
        16        15        14        36     9      180.000000        0.194668         4
        16        19        17        18     9        0.000000        1.670021         1
        16        19        17        18     9      180.000000       22.709838         2
        16        19        17        18     9        0.000000        0.650788         3
        16        19        17        18     9      180.000000       -1.143129         4
        16        19        20        21     9        0.000000        1.056288         1
        16        19        20        21     9      180.000000        0.248433         2
        16        19        20        21     9        0.000000        1.020115         3
        16        19        20        21     9      180.000000        0.035708         4
        16        19        20        22     9        0.000000       -0.006752         1
        16        19        20        22     9      180.000000       -0.687001         2
        16        19        20        22     9        0.000000        0.965898         3
        16        19        20        22     9      180.000000        0.047408         4
        16        19        20        41     9        0.000000       -1.324653         1
        16        19        20        41     9      180.000000       -0.237460         2
        16        19        20        41     9        0.000000        0.923646         3
        16        19        20        41     9      180.000000       -0.060215         4
        17        14        13        35     9        0.000000        4.635840         1
        17        14        13        35     9      180.000000       -1.304509         2
        17        14        13        35     9        0.000000        0.164201         3
        17        14        13        35     9      180.000000       -0.035261         4
        17        14        15        37     9        0.000000       -0.054561         1
        17        14        15        37     9      180.000000       -0.043690         2
        17        14        15        37     9        0.000000       -0.088429         3
        17        14        15        37     9      180.000000        0.153839         4
        17        14        15        38     9        0.000000       -0.054561         1
        17        14        15        38     9      180.000000       -0.043690         2
        17        14        15        38     9        0.000000       -0.088429         3
        17        14        15        38     9      180.000000        0.153839         4
        17        19        16        39     9        0.000000        0.108553         1
        17        19        16        39     9      180.000000       -0.000440         2
        17        19        16        39     9        0.000000       -0.019981         3
        17        19        16        39     9      180.000000        0.146580         4
        17        19        16        40     9        0.000000        0.108553         1
        17        19        16        40     9      180.000000       -0.000440         2
        17        19        16        40     9        0.000000       -0.019981         3
        17        19        16        40     9      180.000000        0.146580         4
        17        19        20        21     9        0.000000        0.922000         1
        17        19        20        21     9      180.000000       -0.058052         2
        17        19        20        21     9        0.000000        0.548524         3
        17        19        20        21     9      180.000000        0.035455         4
        17        19        20        22     9        0.000000       -0.527072         1
        17        19        20        22     9      180.000000        0.559860         2
        17        19        20        22     9        0.000000       -0.136893         3
        17        19        20        22     9      180.000000        0.221963         4
        17        19        20        41     9        0.000000       -0.542437         1
        17        19        20        41     9      180.000000       -0.062983         2
        17        19        20        41     9        0.000000       -0.120262         3
        17        19        20        41     9      180.000000        0.202540         4
        18        17        14        36     9        0.000000        0.321641         1
        18        17        14        36     9      180.000000        0.436631         2
        18        17        14        36     9        0.000000       -0.229917         3
        18        17        14        36     9      180.000000        0.146208         4
        18        17        19        20     9        0.000000        1.661571         1
        18        17        19        20     9      180.000000       14.445686         2
        18        17        19        20     9        0.000000        0.543062         3
        18        17        19        20     9      180.000000       -0.577490         4
        19        16        15        37     9        0.000000       -0.019400         1
        19        16        15        37     9      180.000000        0.004663         2
        19        16        15        37     9        0.000000        0.107646         3
        19        16        15        37     9      180.000000        0.111993         4
        19        16        15        38     9        0.000000       -0.019400         1
        19        16        15        38     9      180.000000        0.004663         2
        19        16        15        38     9        0.000000        0.107646         3
        19        16        15        38     9      180.000000        0.111993         4
        19        17        14        36     9        0.000000        1.080242         1
        19        17        14        36     9      180.000000       -0.101643         2
        19        17        14        36     9        0.000000       -0.010666         3
        19        17        14        36     9      180.000000        0.629830         4
        19        20        21        42     9        0.000000        0.027932         1
        19        20        21        42     9      180.000000        0.048555         2
        19        20        21        42     9        0.000000        0.571346         3
        19        20        21        42     9      180.000000        0.019893         4
        19        20        21        43     9        0.000000        0.027932         1
        19        20        21        43     9      180.000000        0.048555         2
        19        20        21        43     9        0.000000        0.571346         3
        19        20        21        43     9      180.000000        0.019893         4
        19        20        21        44     9        0.000000        0.027932         1
        19        20        21        44     9      180.000000        0.048555         2
        19        20        21        44     9        0.000000        0.571346         3
        19        20        21        44     9      180.000000        0.019893         4
        19        20        22        23     9        0.000000       -3.403668         1
        19        20        22        23     9      180.000000        1.746720         2
        19        20        22        23     9        0.000000       -0.045864         3
        19        20        22        23     9      180.000000       -0.140913         4
        19        20        22        24     9        0.000000        1.279096         1
        19        20        22        24     9      180.000000        2.095355         2
        19        20        22        24     9        0.000000        0.014931         3
        19        20        22        24     9      180.000000       -0.193603         4
        20        19        16        39     9        0.000000       -0.030206         1
        20        19        16        39     9      180.000000       -0.404530         2
        20        19        16        39     9        0.000000        1.182118         3
        20        19        16        39     9      180.000000        0.004763         4
        20        19        16        40     9        0.000000       -0.030206         1
        20        19        16        40     9      180.000000       -0.404530         2
        20        19        16        40     9        0.000000        1.182118         3
        20        19        16        40     9      180.000000        0.004763         4
        20        22        24        25     9        0.000000        8.087900         1
        20        22        24        25     9      180.000000       10.076018         2
        20        22        24        25     9        0.000000        0.319309         3
        20        22        24        25     9      180.000000       -0.471963         4
        20        22        24        29     9        0.000000        8.087900         1
        20        22        24        29     9      180.000000       10.076019         2
        20        22        24        29     9        0.000000        0.319308         3
        20        22        24        29     9      180.000000       -0.471964         4
        21        20        22        23     9        0.000000       -0.685838         1
        21        20        22        23     9      180.000000        1.236800         2
        21        20        22        23     9        0.000000        0.098838         3
        21        20        22        23     9      180.000000        0.381403         4
        21        20        22        24     9        0.000000        0.141944         1
        21        20        22        24     9      180.000000        0.745404         2
        21        20        22        24     9        0.000000       -0.234290         3
        21        20        22        24     9      180.000000        0.174722         4
        22        20        21        42     9        0.000000        0.033524         1
        22        20        21        42     9      180.000000        0.089526         2
        22        20        21        42     9        0.000000        0.344680         3
        22        20        21        42     9      180.000000        0.003302         4
        22        20        21        43     9        0.000000        0.033524         1
        22        20        21        43     9      180.000000        0.089526         2
        22        20        21        43     9        0.000000        0.344680         3
        22        20        21        43     9      180.000000        0.003302         4
        22        20        21        44     9        0.000000        0.033524         1
        22        20        21        44     9      180.000000        0.089526         2
        22        20        21        44     9        0.000000        0.344680         3
        22        20        21        44     9      180.000000        0.003302         4
        22        24        25        26     9        0.000000        0.440908         1
        22        24        25        26     9      180.000000        0.444606         2
        22        24        25        26     9        0.000000        0.059412         3
        22        24        25        26     9      180.000000        0.206044         4
        22        24        25        45     9        0.000000       -0.028685         1
        22        24        25        45     9      180.000000       -0.001927         2
        22        24        25        45     9        0.000000        0.252664         3
        22        24        25        45     9      180.000000       -0.014307         4
        22        24        25        46     9        0.000000       -0.028685         1
        22        24        25        46     9      180.000000       -0.001927         2
        22        24        25        46     9        0.000000        0.252664         3
        22        24        25        46     9      180.000000       -0.014307         4
        22        24        29        28     9        0.000000        0.440908         1
        22        24        29        28     9      180.000000        0.444606         2
        22        24        29        28     9        0.000000        0.059412         3
        22        24        29        28     9      180.000000        0.206044         4
        22        24        29        51     9        0.000000       -0.028685         1
        22        24        29        51     9      180.000000       -0.001926         2
        22        24        29        51     9        0.000000        0.252664         3
        22        24        29        51     9      180.000000       -0.014306         4
        22        24        29        52     9        0.000000       -0.028685         1
        22        24        29        52     9      180.000000       -0.001926         2
        22        24        29        52     9        0.000000        0.252664         3
        22        24        29        52     9      180.000000       -0.014306         4
        23        22        20        41     9        0.000000        1.726652         1
        23        22        20        41     9      180.000000       -0.446050         2
        23        22        20        41     9        0.000000        0.259084         3
        23        22        20        41     9      180.000000       -0.318237         4
        23        22        24        25     9        0.000000       -0.829972         1
        23        22        24        25     9      180.000000       15.136697         2
        23        22        24        25     9        0.000000       -1.389194         3
        23        22        24        25     9      180.000000       -0.252977         4
        23        22        24        29     9        0.000000       -0.829973         1
        23        22        24        29     9      180.000000       15.136697         2
        23        22        24        29     9        0.000000       -1.389193         3
        23        22        24        29     9      180.000000       -0.252976         4
        24        22        20        41     9        0.000000       -0.568349         1
        24        22        20        41     9      180.000000       -0.182975         2
        24        22        20        41     9        0.000000       -0.162224         3
        24        22        20        41     9      180.000000       -0.005958         4
        24        25        26        27     9        0.000000        0.131838         1
        24        25        26        27     9      180.000000       -1.297547         2
        24        25        26        27     9        0.000000        0.387839         3
        24        25        26        27     9      180.000000       -0.141180         4
        24        25        26        47     9        0.000000       -0.102106         1
        24        25        26        47     9      180.000000        0.154514         2
        24        25        26        47     9        0.000000        0.456513         3
        24        25        26        47     9      180.000000        0.019598         4
        24        25        26        48     9        0.000000       -0.102106         1
        24        25        26        48     9      180.000000        0.154514         2
        24        25        26        48     9        0.000000        0.456513         3
        24        25        26        48     9      180.000000        0.019598         4
        24        29        28        27     9        0.000000        0.131838         1
        24        29        28        27     9      180.000000       -1.297547         2
        24        29        28        27     9        0.000000        0.387840         3
        24        29        28        27     9      180.000000       -0.141180         4
        24        29        28        49     9        0.000000       -0.102106         1
        24        29        28        49     9      180.000000        0.154513         2
        24        29        28        49     9        0.000000        0.456514         3
        24        29        28        49     9      180.000000        0.019598         4
        24        29        28        50     9        0.000000       -0.102106         1
        24        29        28        50     9      180.000000        0.154513         2
        24        29        28        50     9        0.000000        0.456514         3
        24        29        28        50     9      180.000000        0.019598         4
        25        24        29        28     9        0.000000       -0.005449         1
        25        24        29        28     9      180.000000       -2.867471         2
        25        24        29        28     9        0.000000        1.361352         3
        25        24        29        28     9      180.000000        0.109220         4
        25        24        29        51     9        0.000000       -0.081970         1
        25        24        29        51     9      180.000000        0.115740         2
        25        24        29        51     9        0.000000        1.147305         3
        25        24        29        51     9      180.000000       -0.023844         4
        25        24        29        52     9        0.000000       -0.081970         1
        25        24        29        52     9      180.000000        0.115740         2
        25        24        29        52     9        0.000000        1.147305         3
        25        24        29        52     9      180.000000       -0.023844         4
        25        26        27        28     9        0.000000        0.703463         1
        25        26        27        28     9      180.000000       -1.437895         2
        25        26        27        28     9        0.000000        0.641877         3
        25        26        27        28     9      180.000000        0.056740         4
        26        25        24        29     9        0.000000       -0.005450         1
        26        25        24        29     9      180.000000       -2.867471         2
        26        25        24        29     9        0.000000        1.361352         3
        26        25        24        29     9      180.000000        0.109220         4
        26        27        28        29     9        0.000000        0.703463         1
        26        27        28        29     9      180.000000       -1.437895         2
        26        27        28        29     9        0.000000        0.641877         3
        26        27        28        29     9      180.000000        0.056741         4
        26        27        28        49     9        0.000000       -0.063647         1
        26        27        28        49     9      180.000000        0.078883         2
        26        27        28        49     9        0.000000        0.431540         3
        26        27        28        49     9      180.000000       -0.001696         4
        26        27        28        50     9        0.000000       -0.063647         1
        26        27        28        50     9      180.000000        0.078883         2
        26        27        28        50     9        0.000000        0.431540         3
        26        27        28        50     9      180.000000       -0.001696         4
        27        26        25        45     9        0.000000       -0.026085         1
        27        26        25        45     9      180.000000        0.094480         2
        27        26        25        45     9        0.000000        0.296378         3
        27        26        25        45     9      180.000000        0.001937         4
        27        26        25        46     9        0.000000       -0.026085         1
        27        26        25        46     9      180.000000        0.094480         2
        27        26        25        46     9        0.000000        0.296378         3
        27        26        25        46     9      180.000000        0.001937         4
        27        28        29        51     9        0.000000       -0.026085         1
        27        28        29        51     9      180.000000        0.094480         2
        27        28        29        51     9        0.000000        0.296379         3
        27        28        29        51     9      180.000000        0.001937         4
        27        28        29        52     9        0.000000       -0.026085         1
        27        28        29        52     9      180.000000        0.094480         2
        27        28        29        52     9        0.000000        0.296379         3
        27        28        29        52     9      180.000000        0.001937         4
        28        27        26        47     9        0.000000       -0.063647         1
        28        27        26        47     9      180.000000        0.078882         2
        28        27        26        47     9        0.000000        0.431540         3
        28        27        26        47     9      180.000000       -0.001696         4
        28        27        26        48     9        0.000000       -0.063647         1
        28        27        26        48     9      180.000000        0.078882         2
        28        27        26        48     9        0.000000        0.431540         3
        28        27        26        48     9      180.000000       -0.001696         4
        29        24        25        45     9        0.000000       -0.081970         1
        29        24        25        45     9      180.000000        0.115739         2
        29        24        25        45     9        0.000000        1.147304         3
        29        24        25        45     9      180.000000       -0.023843         4
        29        24        25        46     9        0.000000       -0.081970         1
        29        24        25        46     9      180.000000        0.115739         2
        29        24        25        46     9        0.000000        1.147304         3
        29        24        25        46     9      180.000000       -0.023843         4
        30         4         3        31     9        0.000000       -0.227074         1
        30         4         3        31     9      180.000000       11.199365         2
        30         4         3        31     9        0.000000       -0.094851         3
        30         4         3        31     9      180.000000        0.126004         4
        30         9         6        32     9        0.000000       -0.009017         1
        30         9         6        32     9      180.000000       16.169986         2
        30         9         6        32     9        0.000000       -0.395844         3
        30         9         6        32     9      180.000000       -0.403141         4
        33         7         8        34     9        0.000000       -0.148888         1
        33         7         8        34     9      180.000000       12.428665         2
        33         7         8        34     9        0.000000       -0.724106         3
        33         7         8        34     9      180.000000        0.281876         4
        35        13        14        36     9        0.000000       -0.790567         1
        35        13        14        36     9      180.000000       -0.760493         2
        35        13        14        36     9        0.000000        0.343501         3
        35        13        14        36     9      180.000000        0.017529         4
        36        14        15        37     9        0.000000       -0.109109         1
        36        14        15        37     9      180.000000        0.002805         2
        36        14        15        37     9        0.000000        0.369205         3
        36        14        15        37     9      180.000000       -0.073895         4
        36        14        15        38     9        0.000000       -0.109109         1
        36        14        15        38     9      180.000000        0.002805         2
        36        14        15        38     9        0.000000        0.369205         3
        36        14        15        38     9      180.000000       -0.073895         4
        37        15        16        39     9        0.000000       -0.042687         1
        37        15        16        39     9      180.000000        0.012428         2
        37        15        16        39     9        0.000000        0.280825         3
        37        15        16        39     9      180.000000       -0.016081         4
        37        15        16        40     9        0.000000       -0.042687         1
        37        15        16        40     9      180.000000        0.012428         2
        37        15        16        40     9        0.000000        0.280825         3
        37        15        16        40     9      180.000000       -0.016081         4
        38        15        16        39     9        0.000000       -0.042687         1
        38        15        16        39     9      180.000000        0.012428         2
        38        15        16        39     9        0.000000        0.280825         3
        38        15        16        39     9      180.000000       -0.016081         4
        38        15        16        40     9        0.000000       -0.042687         1
        38        15        16        40     9      180.000000        0.012428         2
        38        15        16        40     9        0.000000        0.280825         3
        38        15        16        40     9      180.000000       -0.016081         4
        41        20        21        42     9        0.000000       -0.021877         1
        41        20        21        42     9      180.000000        0.068248         2
        41        20        21        42     9        0.000000        0.576275         3
        41        20        21        42     9      180.000000       -0.025914         4
        41        20        21        43     9        0.000000       -0.021877         1
        41        20        21        43     9      180.000000        0.068248         2
        41        20        21        43     9        0.000000        0.576275         3
        41        20        21        43     9      180.000000       -0.025914         4
        41        20        21        44     9        0.000000       -0.021877         1
        41        20        21        44     9      180.000000        0.068248         2
        41        20        21        44     9        0.000000        0.576275         3
        41        20        21        44     9      180.000000       -0.025914         4
        45        25        26        47     9        0.000000       -0.023964         1
        45        25        26        47     9      180.000000        0.011206         2
        45        25        26        47     9        0.000000        0.270678         3
        45        25        26        47     9      180.000000        0.028411         4
        45        25        26        48     9        0.000000       -0.023964         1
        45        25        26        48     9      180.000000        0.011206         2
        45        25        26        48     9        0.000000        0.270678         3
        45        25        26        48     9      180.000000        0.028411         4
        46        25        26        47     9        0.000000       -0.023964         1
        46        25        26        47     9      180.000000        0.011206         2
        46        25        26        47     9        0.000000        0.270678         3
        46        25        26        47     9      180.000000        0.028411         4
        46        25        26        48     9        0.000000       -0.023964         1
        46        25        26        48     9      180.000000        0.011206         2
        46        25        26        48     9        0.000000        0.270678         3
        46        25        26        48     9      180.000000        0.028411         4
        49        28        29        51     9        0.000000       -0.023962         1
        49        28        29        51     9      180.000000        0.011207         2
        49        28        29        51     9        0.000000        0.270678         3
        49        28        29        51     9      180.000000        0.028410         4
        49        28        29        52     9        0.000000       -0.023962         1
        49        28        29        52     9      180.000000        0.011207         2
        49        28        29        52     9        0.000000        0.270678         3
        49        28        29        52     9      180.000000        0.028410         4
        50        28        29        51     9        0.000000       -0.023962         1
        50        28        29        51     9      180.000000        0.011207         2
        50        28        29        51     9        0.000000        0.270678         3
        50        28        29        51     9      180.000000        0.028410         4
        50        28        29        52     9        0.000000       -0.023962         1
        50        28        29        52     9      180.000000        0.011207         2
        50        28        29        52     9        0.000000        0.270678         3
        50        28        29        52     9      180.000000        0.028410         4

[ dihedrals ] ; impropers
;       ai        aj        ak        al funct           phase               k        pn
        17        14        18        19     4      180.000000       12.659426         2
        17        18        19        14     4      180.000000       12.659426         2
        17        19        14        18     4      180.000000       12.659426         2
        22        20        23        24     4      180.000000        9.205954         2
        22        23        24        20     4      180.000000        9.205954         2
        22        24        20        23     4      180.000000        9.205954         2

[ pairs ]
;       ai        aj funct
         1         4     1
         1         7     1
         1        31     1
         1        34     1
         2         5     1
         2        30     1
         2        33     1
         3         6     1
         3         7     1
         3         9     1
         3        34     1
         3        53     1
         4         8     1
         4        10     1
         4        32     1
         4        33     1
         5        10     1
         5        31     1
         5        34     1
         5        53     1
         6         8     1
         6        11     1
         6        12     1
         6        13     1
         6        33     1
         6        53     1
         7         9     1
         7        30     1
         7        32     1
         8        31     1
         9        14     1
         9        35     1
        10        15     1
        10        17     1
        10        32     1
        10        36     1
        10        53     1
        11        14     1
        11        30     1
        11        35     1
        12        14     1
        12        30     1
        12        35     1
        13        16     1
        13        18     1
        13        19     1
        13        30     1
        13        37     1
        13        38     1
        14        20     1
        14        39     1
        14        40     1
        15        18     1
        15        20     1
        15        35     1
        16        18     1
        16        21     1
        16        22     1
        16        36     1
        16        41     1
        17        21     1
        17        22     1
        17        35     1
        17        37     1
        17        38     1
        17        39     1
        17        40     1
        17        41     1
        18        20     1
        18        36     1
        19        23     1
        19        24     1
        19        36     1
        19        37     1
        19        38     1
        19        42     1
        19        43     1
        19        44     1
        20        25     1
        20        29     1
        20        39     1
        20        40     1
        21        23     1
        21        24     1
        22        26     1
        22        28     1
        22        42     1
        22        43     1
        22        44     1
        22        45     1
        22        46     1
        22        51     1
        22        52     1
        23        25     1
        23        29     1
        23        41     1
        24        27     1
        24        41     1
        24        47     1
        24        48     1
        24        49     1
        24        50     1
        25        28     1
        25        51     1
        25        52     1
        26        29     1
        26        49     1
        26        50     1
        27        45     1
        27        46     1
        27        51     1
        27        52     1
        28        47     1
        28        48     1
        29        45     1
        29        46     1
        30        31     1
        30        32     1
        33        34     1
        35        36     1
        36        37     1
        36        38     1
        37        39     1
        37        40     1
        38        39     1
        38        40     1
        41        42     1
        41        43     1
        41        44     1
        45        47     1
        45        48     1
        46        47     1
        46        48     1
        49        51     1
        49        52     1
        50        51     1
        50        52     1
