; ITP file created by ByteFF-ML, 2025-12-06 08:02:34.636667

[ atomtypes ]
;name           bonded.type        at.num        mass        charge   ptype           sigma         epsilon
 cl0bf                                 17      0.0000       0.00000       A     3.46715e-01     1.10474e+00
 c1bf                                   6      0.0000       0.00000       A     3.31510e-01     4.12686e-01
 c2bf                                   6      0.0000       0.00000       A     3.31400e-01     4.12969e-01
 c3bf                                   6      0.0000       0.00000       A     3.31577e-01     4.13241e-01
 c4bf                                   6      0.0000       0.00000       A     3.31694e-01     4.13369e-01
 c5bf                                   6      0.0000       0.00000       A     3.31491e-01     4.13585e-01
 c6bf                                   6      0.0000       0.00000       A     3.31508e-01     4.13666e-01
 c7bf                                   6      0.0000       0.00000       A     3.31507e-01     4.12475e-01
 c8bf                                   6      0.0000       0.00000       A     3.31603e-01     4.13259e-01
 s9bf                                  16      0.0000       0.00000       A     4.06378e-01     2.51031e-01
 o10bf                                  8      0.0000       0.00000       A     3.05054e-01     6.10608e-01
 o11bf                                  8      0.0000       0.00000       A     3.05054e-01     6.10608e-01
 n12bf                                  7      0.0000       0.00000       A     3.50537e-01     2.21676e-01
 c13bf                                  6      0.0000       0.00000       A     3.40106e-01     4.49756e-01
 c14bf                                  6      0.0000       0.00000       A     3.39888e-01     4.51758e-01
 c15bf                                  6      0.0000       0.00000       A     3.39876e-01     4.51158e-01
 c16bf                                  6      0.0000       0.00000       A     3.31760e-01     4.12573e-01
 o17bf                                  8      0.0000       0.00000       A     3.04794e-01     6.15556e-01
 n18bf                                  7      0.0000       0.00000       A     3.18260e-01     6.88160e-01
 c19bf                                  6      0.0000       0.00000       A     3.39757e-01     4.50874e-01
 c20bf                                  6      0.0000       0.00000       A     3.39605e-01     4.49879e-01
 c21bf                                  6      0.0000       0.00000       A     3.31657e-01     4.13830e-01
 o22bf                                  8      0.0000       0.00000       A     3.04754e-01     6.13558e-01
 n23bf                                  7      0.0000       0.00000       A     3.17857e-01     6.84912e-01
 c24bf                                  6      0.0000       0.00000       A     3.39840e-01     4.50763e-01
 c25bf                                  6      0.0000       0.00000       A     3.39665e-01     4.51065e-01
 o26bf                                  8      0.0000       0.00000       A     3.15559e-01     3.02369e-01
 c27bf                                  6      0.0000       0.00000       A     3.39665e-01     4.51065e-01
 c28bf                                  6      0.0000       0.00000       A     3.39840e-01     4.50763e-01
 o29bf                                  8      0.0000       0.00000       A     3.15510e-01     3.01550e-01
 h30bf                                  1      0.0000       0.00000       A     2.62421e-01     6.72807e-02
 h31bf                                  1      0.0000       0.00000       A     2.62769e-01     6.70429e-02
 h32bf                                  1      0.0000       0.00000       A     2.62569e-01     6.69232e-02
 h33bf                                  1      0.0000       0.00000       A     2.62494e-01     6.72839e-02
 h34bf                                  1      0.0000       0.00000       A     1.10224e-01     4.02640e-02
 h35bf                                  1      0.0000       0.00000       A     2.41336e-01     8.93895e-02
 h36bf                                  1      0.0000       0.00000       A     2.59998e-01     8.72188e-02
 h37bf                                  1      0.0000       0.00000       A     2.59998e-01     8.72188e-02
 h38bf                                  1      0.0000       0.00000       A     2.42182e-01     8.67208e-02
 h39bf                                  1      0.0000       0.00000       A     2.42182e-01     8.67208e-02
 h40bf                                  1      0.0000       0.00000       A     2.42267e-01     8.78125e-02
 h41bf                                  1      0.0000       0.00000       A     2.59883e-01     8.72300e-02
 h42bf                                  1      0.0000       0.00000       A     2.59883e-01     8.72300e-02
 h43bf                                  1      0.0000       0.00000       A     2.59883e-01     8.72300e-02
 h44bf                                  1      0.0000       0.00000       A     2.42002e-01     8.70017e-02
 h45bf                                  1      0.0000       0.00000       A     2.42002e-01     8.70017e-02
 h46bf                                  1      0.0000       0.00000       A     2.42029e-01     8.74327e-02
 h47bf                                  1      0.0000       0.00000       A     2.42029e-01     8.74327e-02
 h48bf                                  1      0.0000       0.00000       A     2.42029e-01     8.74327e-02
 h49bf                                  1      0.0000       0.00000       A     2.42029e-01     8.74327e-02
 h50bf                                  1      0.0000       0.00000       A     2.42002e-01     8.70017e-02
 h51bf                                  1      0.0000       0.00000       A     2.42002e-01     8.70017e-02

[ moleculetype ]
;name             nrexcl
 21030_1o              3

[ atoms ]
;       nr            type      resi   res      atom      cgnr      charge          mass ; qtot
         1           cl0bf         1   UNL       cl0         1    -0.20856       35.4530 ; qtot   -0.209
         2            c1bf         1   UNL        c1         2     0.13800       12.0110 ; qtot   -0.071
         3            c2bf         1   UNL        c2         3    -0.08562       12.0110 ; qtot   -0.156
         4            c3bf         1   UNL        c3         4     0.08983       12.0110 ; qtot   -0.066
         5            c4bf         1   UNL        c4         5    -0.12407       12.0110 ; qtot   -0.190
         6            c5bf         1   UNL        c5         6    -0.07509       12.0110 ; qtot   -0.266
         7            c6bf         1   UNL        c6         7    -0.03672       12.0110 ; qtot   -0.302
         8            c7bf         1   UNL        c7         8    -0.12037       12.0110 ; qtot   -0.423
         9            c8bf         1   UNL        c8         9    -0.13807       12.0110 ; qtot   -0.561
        10            s9bf         1   UNL        s9        10     1.12657       32.0670 ; qtot    0.566
        11           o10bf         1   UNL       o10        11    -0.51404       15.9990 ; qtot    0.052
        12           o11bf         1   UNL       o11        12    -0.51404       15.9990 ; qtot   -0.462
        13           n12bf         1   UNL       n12        13    -0.82514       14.0070 ; qtot   -1.287
        14           c13bf         1   UNL       c13        14     0.12388       12.0110 ; qtot   -1.163
        15           c14bf         1   UNL       c14        15    -0.09522       12.0110 ; qtot   -1.259
        16           c15bf         1   UNL       c15        16     0.09495       12.0110 ; qtot   -1.164
        17           c16bf         1   UNL       c16        17     0.54935       12.0110 ; qtot   -0.614
        18           o17bf         1   UNL       o17        18    -0.54655       15.9990 ; qtot   -1.161
        19           n18bf         1   UNL       n18        19    -0.40098       14.0070 ; qtot   -1.562
        20           c19bf         1   UNL       c19        20     0.05721       12.0110 ; qtot   -1.505
        21           c20bf         1   UNL       c20        21    -0.09612       12.0110 ; qtot   -1.601
        22           c21bf         1   UNL       c21        22     0.58704       12.0110 ; qtot   -1.014
        23           o22bf         1   UNL       o22        23    -0.59786       15.9990 ; qtot   -1.612
        24           n23bf         1   UNL       n23        24    -0.41249       14.0070 ; qtot   -2.024
        25           c24bf         1   UNL       c24        25     0.06521       12.0110 ; qtot   -1.959
        26           c25bf         1   UNL       c25        26     0.13811       12.0110 ; qtot   -1.821
        27           o26bf         1   UNL       o26        27    -0.45725       15.9990 ; qtot   -2.278
        28           c27bf         1   UNL       c27        28     0.13811       12.0110 ; qtot   -2.140
        29           c28bf         1   UNL       c28        29     0.06521       12.0110 ; qtot   -2.075
        30           o29bf         1   UNL       o29        30    -0.13011       15.9990 ; qtot   -2.205
        31           h30bf         1   UNL       h30        31     0.15161        1.0080 ; qtot   -2.053
        32           h31bf         1   UNL       h31        32     0.23394        1.0080 ; qtot   -1.819
        33           h32bf         1   UNL       h32        33     0.12816        1.0080 ; qtot   -1.691
        34           h33bf         1   UNL       h33        34     0.13421        1.0080 ; qtot   -1.557
        35           h34bf         1   UNL       h34        35     0.49108        1.0080 ; qtot   -1.066
        36           h35bf         1   UNL       h35        36     0.09196        1.0080 ; qtot   -0.974
        37           h36bf         1   UNL       h36        37     0.07214        1.0080 ; qtot   -0.902
        38           h37bf         1   UNL       h37        38     0.07214        1.0080 ; qtot   -0.830
        39           h38bf         1   UNL       h38        39     0.05454        1.0080 ; qtot   -0.775
        40           h39bf         1   UNL       h39        40     0.05454        1.0080 ; qtot   -0.721
        41           h40bf         1   UNL       h40        41     0.08228        1.0080 ; qtot   -0.638
        42           h41bf         1   UNL       h41        42     0.05105        1.0080 ; qtot   -0.587
        43           h42bf         1   UNL       h42        43     0.05105        1.0080 ; qtot   -0.536
        44           h43bf         1   UNL       h43        44     0.05105        1.0080 ; qtot   -0.485
        45           h44bf         1   UNL       h44        45     0.06485        1.0080 ; qtot   -0.420
        46           h45bf         1   UNL       h45        46     0.06485        1.0080 ; qtot   -0.355
        47           h46bf         1   UNL       h46        47     0.05641        1.0080 ; qtot   -0.299
        48           h47bf         1   UNL       h47        48     0.05641        1.0080 ; qtot   -0.243
        49           h48bf         1   UNL       h48        49     0.05641        1.0080 ; qtot   -0.186
        50           h49bf         1   UNL       h49        50     0.05641        1.0080 ; qtot   -0.130
        51           h50bf         1   UNL       h50        51     0.06485        1.0080 ; qtot   -0.065
        52           h51bf         1   UNL       h51        52     0.06489        1.0080 ; qtot    0.000

[ bonds ]
;       ai        aj funct               r               k
         1         2     1        0.175859   148208.495898
         2         3     1        0.139548   303369.699658
         2         8     1        0.140812   278841.638086
         3         4     1        0.139151   319548.531006
         3        31     1        0.108384   328089.544922
         4         5     1        0.141148   262112.226660
         4        30     1        0.137434   227190.076367
         5         6     1        0.144179   245164.319727
         5         7     1        0.140668   301471.373096
         6         9     1        0.136035   405004.994482
         6        32     1        0.108115   339229.904590
         7         8     1        0.139265   321562.566211
         7        33     1        0.108576   321261.943359
         8        34     1        0.108438   325528.606982
         9        10     1        0.177550   152563.939282
         9        30     1        0.137469   226109.448047
        10        11     1        0.146244   527083.179492
        10        12     1        0.146244   527083.179492
        10        13     1        0.168425   153560.665430
        13        14     1        0.146777   191519.982446
        13        35     1        0.101976   399891.111719
        14        15     1        0.153769   166481.242529
        14        17     1        0.153794   143592.599536
        14        36     1        0.109520   296291.272607
        15        16     1        0.153943   173404.046436
        15        37     1        0.109161   311817.962793
        15        38     1        0.109161   311817.962793
        16        19     1        0.146731   190108.993311
        16        39     1        0.109491   295731.856689
        16        40     1        0.109491   295731.831152
        17        18     1        0.123040   609921.067773
        17        19     1        0.135997   293600.427393
        19        20     1        0.146082   191522.676611
        20        21     1        0.153522   178794.113037
        20        22     1        0.154579   145088.563403
        20        41     1        0.109199   304154.608252
        21        42     1        0.109216   305763.446143
        21        43     1        0.109216   305763.446143
        21        44     1        0.109216   305763.446143
        22        23     1        0.123348   593715.218164
        22        24     1        0.136666   294032.796191
        24        25     1        0.146801   191022.353564
        24        29     1        0.146801   191022.340796
        25        26     1        0.152763   185011.786279
        25        45     1        0.109338   299004.896924
        25        46     1        0.109338   299004.896924
        26        27     1        0.142906   199750.452344
        26        47     1        0.109582   293226.104443
        26        48     1        0.109582   293226.104443
        27        28     1        0.142906   199750.452344
        28        29     1        0.152763   185011.786279
        28        49     1        0.109582   293226.104443
        28        50     1        0.109582   293226.104443
        29        51     1        0.109338   299004.947998
        29        52     1        0.109338   299004.947998

[ angles ]
;       ai        aj        ak funct           theta             cth
         1         2         3     1      118.775574      334.174878
         1         2         8     1      118.710617      400.059855
         2         3         4     1      115.514465      729.723475
         2         3        31     1      122.089012      419.825003
         2         8         7     1      120.274597      587.745893
         2         8        34     1      119.300011      436.448607
         3         2         8     1      122.516296      585.610608
         3         4         5     1      123.970016      582.450263
         3         4        30     1      125.649071      522.016726
         4         3        31     1      122.294388      438.296058
         4         5         6     1      105.725815      416.220440
         4         5         7     1      118.826065      699.885469
         4        30         9     1      105.504166      587.451450
         5         4        30     1      110.254807      221.886485
         5         6         9     1      105.599808      383.205969
         5         6        32     1      128.814987      370.577326
         5         7         8     1      118.679062      726.847358
         5         7        33     1      121.096024      437.278500
         6         5         7     1      135.556625      482.170344
         6         9        10     1      130.206696      351.565267
         6         9        30     1      112.861023      167.360000
         7         8        34     1      120.657486      422.371978
         8         7        33     1      120.093399      435.959253
         9         6        32     1      125.399612      353.255026
         9        10        11     1      107.008202      573.628915
         9        10        12     1      107.008202      573.628915
         9        10        13     1      102.521133      498.604463
        10         9        30     1      117.142624      477.955763
        10        13        14     1      118.340073      559.228795
        10        13        35     1      109.000565      609.170507
        11        10        12     1      122.027443      712.135365
        11        10        13     1      107.706100      666.745069
        12        10        13     1      107.706100      666.745069
        13        14        15     1      114.610611      538.584340
        13        14        17     1      109.650040      536.411196
        13        14        36     1      109.205582      453.197472
        14        13        35     1      112.942177      491.211598
        14        15        16     1      103.619400      585.344256
        14        15        37     1      110.846176      481.495813
        14        15        38     1      110.846176      481.495813
        14        17        18     1      125.118629      419.711522
        14        17        19     1      107.968506      354.337959
        15        14        17     1      103.510155      547.335780
        15        14        36     1      110.865036      433.295094
        15        16        19     1      103.270203      586.268188
        15        16        39     1      112.132156      454.176533
        15        16        40     1      112.132156      454.176533
        16        15        37     1      111.340355      481.524989
        16        15        38     1      111.340355      481.524989
        16        19        17     1      113.311218      437.943709
        16        19        20     1      122.047386      514.268798
        17        14        36     1      107.661758      517.032999
        17        19        20     1      122.368851      545.953137
        18        17        19     1      126.699257      600.468992
        19        16        39     1      110.468552      450.026433
        19        16        40     1      110.468552      450.026369
        19        20        21     1      112.462791      689.158032
        19        20        22     1      109.734154      557.845194
        19        20        41     1      105.272728      542.259577
        20        21        42     1      110.287804      499.972359
        20        21        43     1      110.287804      499.972359
        20        21        44     1      110.287804      499.972359
        20        22        23     1      119.634476      398.868868
        20        22        24     1      118.134972      452.290649
        21        20        22     1      111.384232      621.169373
        21        20        41     1      108.504562      483.302978
        22        20        41     1      108.414406      479.417763
        22        24        25     1      122.242836      522.086889
        22        24        29     1      122.242836      522.086889
        23        22        24     1      121.980515      642.918371
        24        25        26     1      109.468040      691.740408
        24        25        45     1      109.737137      455.037229
        24        25        46     1      109.737137      455.037229
        24        29        28     1      109.468040      691.740408
        24        29        51     1      109.737137      455.037229
        24        29        52     1      109.737137      455.037229
        25        24        29     1      114.681778      504.716898
        25        26        27     1      112.231979      634.459778
        25        26        47     1      109.793846      487.937804
        25        26        48     1      109.793846      487.937804
        26        25        45     1      110.007591      488.286801
        26        25        46     1      110.007591      488.286801
        26        27        28     1      112.590408      587.596246
        27        26        47     1      108.218735      463.772740
        27        26        48     1      108.218735      463.772740
        27        28        29     1      112.231979      634.459778
        27        28        49     1      108.218735      463.772708
        27        28        50     1      108.218735      463.772708
        28        29        51     1      110.007591      488.286801
        28        29        52     1      110.007591      488.286801
        29        28        49     1      109.793846      487.937804
        29        28        50     1      109.793846      487.937804
        37        15        38     1      108.513290      354.940156
        39        16        40     1      108.141113      343.643432
        42        21        43     1      108.696800      357.638183
        42        21        44     1      108.696800      357.638183
        43        21        44     1      108.696815      357.638151
        45        25        46     1      107.943527      345.985281
        47        26        48     1      108.332138      339.167192
        49        28        50     1      108.332138      339.167160
        51        29        52     1      107.943527      345.985281

[ dihedrals ] ; propers for gromacs 4.5 or higher, use funct 9
;       ai        aj        ak        al funct           phase               k        pn
         1         2         3         4     9        0.000000        0.372501         1
         1         2         3         4     9      180.000000       21.987974         2
         1         2         3         4     9        0.000000        0.440362         3
         1         2         3         4     9      180.000000       -0.887219         4
         1         2         3        31     9        0.000000        0.208817         1
         1         2         3        31     9      180.000000       13.694289         2
         1         2         3        31     9        0.000000       -0.059621         3
         1         2         3        31     9      180.000000        0.227280         4
         1         2         8         7     9        0.000000        0.335874         1
         1         2         8         7     9      180.000000       17.440513         2
         1         2         8         7     9        0.000000        0.256511         3
         1         2         8         7     9      180.000000       -0.446303         4
         1         2         8        34     9        0.000000        0.119282         1
         1         2         8        34     9      180.000000       12.833497         2
         1         2         8        34     9        0.000000       -0.110448         3
         1         2         8        34     9      180.000000        0.219898         4
         2         3         4         5     9        0.000000       -0.283933         1
         2         3         4         5     9      180.000000       16.839002         2
         2         3         4         5     9        0.000000       -1.786242         3
         2         3         4         5     9      180.000000       -0.250966         4
         2         3         4        30     9        0.000000        0.261416         1
         2         3         4        30     9      180.000000       16.784373         2
         2         3         4        30     9        0.000000       -0.124028         3
         2         3         4        30     9      180.000000       -0.433561         4
         2         8         7         5     9        0.000000       -0.077196         1
         2         8         7         5     9      180.000000       20.703836         2
         2         8         7         5     9        0.000000       -1.610949         3
         2         8         7         5     9      180.000000       -0.370943         4
         2         8         7        33     9        0.000000        0.033664         1
         2         8         7        33     9      180.000000       14.941095         2
         2         8         7        33     9        0.000000       -0.512487         3
         2         8         7        33     9      180.000000        0.177127         4
         3         2         8         7     9        0.000000       -0.103454         1
         3         2         8         7     9      180.000000       16.653821         2
         3         2         8         7     9        0.000000       -1.267381         3
         3         2         8         7     9      180.000000       -0.268938         4
         3         2         8        34     9        0.000000        0.016070         1
         3         2         8        34     9      180.000000       13.197024         2
         3         2         8        34     9        0.000000       -0.593767         3
         3         2         8        34     9      180.000000        0.137366         4
         3         4         5         6     9        0.000000        0.358162         1
         3         4         5         6     9      180.000000       11.583150         2
         3         4         5         6     9        0.000000       -2.431673         3
         3         4         5         6     9      180.000000       -0.047540         4
         3         4         5         7     9        0.000000       -0.098187         1
         3         4         5         7     9      180.000000       11.693693         2
         3         4         5         7     9        0.000000       -1.754126         3
         3         4         5         7     9      180.000000       -0.114670         4
         3         4        30         9     9        0.000000        0.906925         1
         3         4        30         9     9      180.000000        4.515021         2
         3         4        30         9     9        0.000000       -0.028221         3
         3         4        30         9     9      180.000000        0.125832         4
         4         3         2         8     9        0.000000       -0.206393         1
         4         3         2         8     9      180.000000       19.277218         2
         4         3         2         8     9        0.000000       -1.484875         3
         4         3         2         8     9      180.000000       -0.378326         4
         4         5         6         9     9        0.000000        0.188018         1
         4         5         6         9     9      180.000000       23.788601         2
         4         5         6         9     9        0.000000       -7.802837         3
         4         5         6         9     9      180.000000       -0.363999         4
         4         5         6        32     9        0.000000        1.630300         1
         4         5         6        32     9      180.000000        9.700798         2
         4         5         6        32     9        0.000000        0.484108         3
         4         5         6        32     9      180.000000       -0.015487         4
         4         5         7         8     9        0.000000       -0.081999         1
         4         5         7         8     9      180.000000       19.349035         2
         4         5         7         8     9        0.000000       -2.113505         3
         4         5         7         8     9      180.000000       -0.399632         4
         4         5         7        33     9        0.000000        0.246739         1
         4         5         7        33     9      180.000000       13.436227         2
         4         5         7        33     9        0.000000       -0.310942         3
         4         5         7        33     9      180.000000       -0.009027         4
         4        30         9         6     9        0.000000        0.545868         1
         4        30         9         6     9      180.000000       21.398579         2
         4        30         9         6     9        0.000000       -6.032908         3
         4        30         9         6     9      180.000000       -0.190136         4
         4        30         9        10     9        0.000000        1.134178         1
         4        30         9        10     9      180.000000        2.552077         2
         4        30         9        10     9        0.000000        0.648715         3
         4        30         9        10     9      180.000000        0.207190         4
         5         4         3        31     9        0.000000        0.054449         1
         5         4         3        31     9      180.000000       11.989795         2
         5         4         3        31     9        0.000000       -0.423544         3
         5         4         3        31     9      180.000000        0.031473         4
         5         4        30         9     9        0.000000        0.362563         1
         5         4        30         9     9      180.000000       20.672059         2
         5         4        30         9     9        0.000000       -5.558966         3
         5         4        30         9     9      180.000000       -0.197698         4
         5         6         9        10     9        0.000000        0.243971         1
         5         6         9        10     9      180.000000       15.543539         2
         5         6         9        10     9        0.000000        0.259749         3
         5         6         9        10     9      180.000000       -1.070246         4
         5         6         9        30     9        0.000000       -0.228550         1
         5         6         9        30     9      180.000000       34.074831         2
         5         6         9        30     9        0.000000       -6.256988         3
         5         6         9        30     9      180.000000       -0.680823         4
         5         7         8        34     9        0.000000       -0.013242         1
         5         7         8        34     9      180.000000       16.137067         2
         5         7         8        34     9        0.000000       -0.639542         3
         5         7         8        34     9      180.000000        0.007153         4
         6         5         4        30     9        0.000000        0.321436         1
         6         5         4        30     9      180.000000       20.666608         2
         6         5         4        30     9        0.000000       -6.036850         3
         6         5         4        30     9      180.000000       -0.306709         4
         6         5         7         8     9        0.000000        0.118136         1
         6         5         7         8     9      180.000000       13.656672         2
         6         5         7         8     9        0.000000       -0.728535         3
         6         5         7         8     9      180.000000       -0.090850         4
         6         5         7        33     9        0.000000       -0.116491         1
         6         5         7        33     9      180.000000       10.722955         2
         6         5         7        33     9        0.000000       -0.164490         3
         6         5         7        33     9      180.000000        0.055671         4
         6         9        10        11     9        0.000000       -0.101957         1
         6         9        10        11     9      180.000000        0.074511         2
         6         9        10        11     9        0.000000       -0.132381         3
         6         9        10        11     9      180.000000        0.026294         4
         6         9        10        12     9        0.000000       -0.101957         1
         6         9        10        12     9      180.000000        0.074511         2
         6         9        10        12     9        0.000000       -0.132381         3
         6         9        10        12     9      180.000000        0.026294         4
         6         9        10        13     9        0.000000        0.680830         1
         6         9        10        13     9      180.000000       -0.334898         2
         6         9        10        13     9        0.000000       -0.158622         3
         6         9        10        13     9      180.000000       -0.116190         4
         7         5         4        30     9        0.000000        0.732421         1
         7         5         4        30     9      180.000000       11.834138         2
         7         5         4        30     9        0.000000       -2.030796         3
         7         5         4        30     9      180.000000       -0.010444         4
         7         5         6         9     9        0.000000       -0.023946         1
         7         5         6         9     9      180.000000        4.492725         2
         7         5         6         9     9        0.000000       -0.821084         3
         7         5         6         9     9      180.000000        0.130307         4
         7         5         6        32     9        0.000000       -0.763455         1
         7         5         6        32     9      180.000000        4.290179         2
         7         5         6        32     9        0.000000       -0.174969         3
         7         5         6        32     9      180.000000        0.162629         4
         8         2         3        31     9        0.000000        0.084002         1
         8         2         3        31     9      180.000000       13.502984         2
         8         2         3        31     9        0.000000       -0.479060         3
         8         2         3        31     9      180.000000        0.127657         4
         9        10        13        14     9        0.000000       -1.114167         1
         9        10        13        14     9      180.000000       -8.113642         2
         9        10        13        14     9        0.000000        2.877734         3
         9        10        13        14     9      180.000000        0.716252         4
         9        10        13        35     9        0.000000       -5.320109         1
         9        10        13        35     9      180.000000       -5.817364         2
         9        10        13        35     9        0.000000       -0.329248         3
         9        10        13        35     9      180.000000        0.528016         4
        10         9         6        32     9        0.000000        0.641811         1
        10         9         6        32     9      180.000000        9.745673         2
        10         9         6        32     9        0.000000        0.035877         3
        10         9         6        32     9      180.000000       -0.129685         4
        10        13        14        15     9        0.000000       -2.361092         1
        10        13        14        15     9      180.000000       -0.569509         2
        10        13        14        15     9        0.000000        0.642236         3
        10        13        14        15     9      180.000000       -0.094391         4
        10        13        14        17     9        0.000000        5.124243         1
        10        13        14        17     9      180.000000       -1.251421         2
        10        13        14        17     9        0.000000        0.357719         3
        10        13        14        17     9      180.000000       -0.035582         4
        10        13        14        36     9        0.000000        0.592403         1
        10        13        14        36     9      180.000000       -0.324441         2
        10        13        14        36     9        0.000000        0.420666         3
        10        13        14        36     9      180.000000        0.172793         4
        11        10         9        30     9        0.000000       -0.073051         1
        11        10         9        30     9      180.000000        0.588225         2
        11        10         9        30     9        0.000000        0.934902         3
        11        10         9        30     9      180.000000       -0.130704         4
        11        10        13        14     9        0.000000        0.591696         1
        11        10        13        14     9      180.000000        0.776267         2
        11        10        13        14     9        0.000000        1.713922         3
        11        10        13        14     9      180.000000        0.091693         4
        11        10        13        35     9        0.000000        0.492355         1
        11        10        13        35     9      180.000000        0.028659         2
        11        10        13        35     9        0.000000       -1.180190         3
        11        10        13        35     9      180.000000       -0.146084         4
        12        10         9        30     9        0.000000       -0.073051         1
        12        10         9        30     9      180.000000        0.588225         2
        12        10         9        30     9        0.000000        0.934902         3
        12        10         9        30     9      180.000000       -0.130704         4
        12        10        13        14     9        0.000000        0.591696         1
        12        10        13        14     9      180.000000        0.776267         2
        12        10        13        14     9        0.000000        1.713922         3
        12        10        13        14     9      180.000000        0.091693         4
        12        10        13        35     9        0.000000        0.492355         1
        12        10        13        35     9      180.000000        0.028659         2
        12        10        13        35     9        0.000000       -1.180190         3
        12        10        13        35     9      180.000000       -0.146084         4
        13        10         9        30     9        0.000000        1.182898         1
        13        10         9        30     9      180.000000       -0.757823         2
        13        10         9        30     9        0.000000        1.558662         3
        13        10         9        30     9      180.000000       -0.282259         4
        13        14        15        16     9        0.000000       -2.163877         1
        13        14        15        16     9      180.000000        0.424344         2
        13        14        15        16     9        0.000000        0.227532         3
        13        14        15        16     9      180.000000        0.061210         4
        13        14        15        37     9        0.000000        0.091865         1
        13        14        15        37     9      180.000000        0.093615         2
        13        14        15        37     9        0.000000        0.335002         3
        13        14        15        37     9      180.000000       -0.055051         4
        13        14        15        38     9        0.000000        0.091865         1
        13        14        15        38     9      180.000000        0.093615         2
        13        14        15        38     9        0.000000        0.335002         3
        13        14        15        38     9      180.000000       -0.055051         4
        13        14        17        18     9        0.000000       -0.240770         1
        13        14        17        18     9      180.000000        2.684865         2
        13        14        17        18     9        0.000000        0.084446         3
        13        14        17        18     9      180.000000        0.219702         4
        13        14        17        19     9        0.000000       -0.340402         1
        13        14        17        19     9      180.000000        3.149279         2
        13        14        17        19     9        0.000000        0.354820         3
        13        14        17        19     9      180.000000        0.272067         4
        14        15        16        19     9        0.000000       -0.052133         1
        14        15        16        19     9      180.000000        4.368959         2
        14        15        16        19     9        0.000000       -0.124720         3
        14        15        16        19     9      180.000000       -1.799823         4
        14        15        16        39     9        0.000000        0.015044         1
        14        15        16        39     9      180.000000       -0.072489         2
        14        15        16        39     9        0.000000        0.025236         3
        14        15        16        39     9      180.000000        0.123796         4
        14        15        16        40     9        0.000000        0.015044         1
        14        15        16        40     9      180.000000       -0.072489         2
        14        15        16        40     9        0.000000        0.025236         3
        14        15        16        40     9      180.000000        0.123796         4
        14        17        19        16     9        0.000000       -0.582101         1
        14        17        19        16     9      180.000000       17.812068         2
        14        17        19        16     9        0.000000       -0.122878         3
        14        17        19        16     9      180.000000       -1.514391         4
        14        17        19        20     9        0.000000        1.762202         1
        14        17        19        20     9      180.000000       10.881364         2
        14        17        19        20     9        0.000000        0.808772         3
        14        17        19        20     9      180.000000       -0.622944         4
        15        14        13        35     9        0.000000       -1.610931         1
        15        14        13        35     9      180.000000       -0.856201         2
        15        14        13        35     9        0.000000        0.134666         3
        15        14        13        35     9      180.000000       -0.158177         4
        15        14        17        18     9        0.000000        4.563095         1
        15        14        17        18     9      180.000000        4.492809         2
        15        14        17        18     9        0.000000       -0.395810         3
        15        14        17        18     9      180.000000       -0.434302         4
        15        14        17        19     9        0.000000       -0.422679         1
        15        14        17        19     9      180.000000        6.745102         2
        15        14        17        19     9        0.000000       -1.124069         3
        15        14        17        19     9      180.000000       -0.742473         4
        15        16        19        17     9        0.000000       -1.786134         1
        15        16        19        17     9      180.000000        5.578944         2
        15        16        19        17     9        0.000000       -0.334713         3
        15        16        19        17     9      180.000000       -1.019729         4
        15        16        19        20     9        0.000000       -0.982164         1
        15        16        19        20     9      180.000000        1.118137         2
        15        16        19        20     9        0.000000        0.643596         3
        15        16        19        20     9      180.000000       -0.269745         4
        16        15        14        17     9        0.000000       -1.064123         1
        16        15        14        17     9      180.000000        6.265690         2
        16        15        14        17     9        0.000000       -0.313288         3
        16        15        14        17     9      180.000000       -1.469893         4
        16        15        14        36     9        0.000000       -0.046820         1
        16        15        14        36     9      180.000000        0.137082         2
        16        15        14        36     9        0.000000        0.140539         3
        16        15        14        36     9      180.000000        0.196628         4
        16        19        17        18     9        0.000000        1.670021         1
        16        19        17        18     9      180.000000       22.709838         2
        16        19        17        18     9        0.000000        0.650788         3
        16        19        17        18     9      180.000000       -1.143129         4
        16        19        20        21     9        0.000000        1.056288         1
        16        19        20        21     9      180.000000        0.248433         2
        16        19        20        21     9        0.000000        1.020115         3
        16        19        20        21     9      180.000000        0.035708         4
        16        19        20        22     9        0.000000       -0.006752         1
        16        19        20        22     9      180.000000       -0.687001         2
        16        19        20        22     9        0.000000        0.965898         3
        16        19        20        22     9      180.000000        0.047408         4
        16        19        20        41     9        0.000000       -1.324653         1
        16        19        20        41     9      180.000000       -0.237460         2
        16        19        20        41     9        0.000000        0.923646         3
        16        19        20        41     9      180.000000       -0.060215         4
        17        14        13        35     9        0.000000        4.524278         1
        17        14        13        35     9      180.000000       -1.287196         2
        17        14        13        35     9        0.000000        0.173521         3
        17        14        13        35     9      180.000000       -0.037179         4
        17        14        15        37     9        0.000000       -0.054295         1
        17        14        15        37     9      180.000000       -0.044171         2
        17        14        15        37     9        0.000000       -0.089052         3
        17        14        15        37     9      180.000000        0.154999         4
        17        14        15        38     9        0.000000       -0.054295         1
        17        14        15        38     9      180.000000       -0.044171         2
        17        14        15        38     9        0.000000       -0.089052         3
        17        14        15        38     9      180.000000        0.154999         4
        17        19        16        39     9        0.000000        0.108553         1
        17        19        16        39     9      180.000000       -0.000440         2
        17        19        16        39     9        0.000000       -0.019981         3
        17        19        16        39     9      180.000000        0.146580         4
        17        19        16        40     9        0.000000        0.108552         1
        17        19        16        40     9      180.000000       -0.000441         2
        17        19        16        40     9        0.000000       -0.019981         3
        17        19        16        40     9      180.000000        0.146580         4
        17        19        20        21     9        0.000000        0.922000         1
        17        19        20        21     9      180.000000       -0.058052         2
        17        19        20        21     9        0.000000        0.548524         3
        17        19        20        21     9      180.000000        0.035455         4
        17        19        20        22     9        0.000000       -0.527072         1
        17        19        20        22     9      180.000000        0.559860         2
        17        19        20        22     9        0.000000       -0.136893         3
        17        19        20        22     9      180.000000        0.221963         4
        17        19        20        41     9        0.000000       -0.542437         1
        17        19        20        41     9      180.000000       -0.062983         2
        17        19        20        41     9        0.000000       -0.120262         3
        17        19        20        41     9      180.000000        0.202540         4
        18        17        14        36     9        0.000000        0.311256         1
        18        17        14        36     9      180.000000        0.433602         2
        18        17        14        36     9        0.000000       -0.231194         3
        18        17        14        36     9      180.000000        0.146715         4
        18        17        19        20     9        0.000000        1.661571         1
        18        17        19        20     9      180.000000       14.445686         2
        18        17        19        20     9        0.000000        0.543062         3
        18        17        19        20     9      180.000000       -0.577490         4
        19        16        15        37     9        0.000000       -0.019400         1
        19        16        15        37     9      180.000000        0.004663         2
        19        16        15        37     9        0.000000        0.107646         3
        19        16        15        37     9      180.000000        0.111993         4
        19        16        15        38     9        0.000000       -0.019400         1
        19        16        15        38     9      180.000000        0.004663         2
        19        16        15        38     9        0.000000        0.107646         3
        19        16        15        38     9      180.000000        0.111993         4
        19        17        14        36     9        0.000000        1.077263         1
        19        17        14        36     9      180.000000       -0.107031         2
        19        17        14        36     9        0.000000       -0.009088         3
        19        17        14        36     9      180.000000        0.631291         4
        19        20        21        42     9        0.000000        0.027932         1
        19        20        21        42     9      180.000000        0.048555         2
        19        20        21        42     9        0.000000        0.571346         3
        19        20        21        42     9      180.000000        0.019893         4
        19        20        21        43     9        0.000000        0.027932         1
        19        20        21        43     9      180.000000        0.048555         2
        19        20        21        43     9        0.000000        0.571346         3
        19        20        21        43     9      180.000000        0.019893         4
        19        20        21        44     9        0.000000        0.027932         1
        19        20        21        44     9      180.000000        0.048555         2
        19        20        21        44     9        0.000000        0.571346         3
        19        20        21        44     9      180.000000        0.019893         4
        19        20        22        23     9        0.000000       -3.403668         1
        19        20        22        23     9      180.000000        1.746720         2
        19        20        22        23     9        0.000000       -0.045864         3
        19        20        22        23     9      180.000000       -0.140913         4
        19        20        22        24     9        0.000000        1.279096         1
        19        20        22        24     9      180.000000        2.095355         2
        19        20        22        24     9        0.000000        0.014931         3
        19        20        22        24     9      180.000000       -0.193603         4
        20        19        16        39     9        0.000000       -0.030206         1
        20        19        16        39     9      180.000000       -0.404530         2
        20        19        16        39     9        0.000000        1.182118         3
        20        19        16        39     9      180.000000        0.004763         4
        20        19        16        40     9        0.000000       -0.030205         1
        20        19        16        40     9      180.000000       -0.404530         2
        20        19        16        40     9        0.000000        1.182118         3
        20        19        16        40     9      180.000000        0.004762         4
        20        22        24        25     9        0.000000        8.087900         1
        20        22        24        25     9      180.000000       10.076018         2
        20        22        24        25     9        0.000000        0.319309         3
        20        22        24        25     9      180.000000       -0.471963         4
        20        22        24        29     9        0.000000        8.087900         1
        20        22        24        29     9      180.000000       10.076019         2
        20        22        24        29     9        0.000000        0.319308         3
        20        22        24        29     9      180.000000       -0.471964         4
        21        20        22        23     9        0.000000       -0.685838         1
        21        20        22        23     9      180.000000        1.236800         2
        21        20        22        23     9        0.000000        0.098838         3
        21        20        22        23     9      180.000000        0.381403         4
        21        20        22        24     9        0.000000        0.141944         1
        21        20        22        24     9      180.000000        0.745404         2
        21        20        22        24     9        0.000000       -0.234290         3
        21        20        22        24     9      180.000000        0.174722         4
        22        20        21        42     9        0.000000        0.033524         1
        22        20        21        42     9      180.000000        0.089526         2
        22        20        21        42     9        0.000000        0.344680         3
        22        20        21        42     9      180.000000        0.003302         4
        22        20        21        43     9        0.000000        0.033524         1
        22        20        21        43     9      180.000000        0.089526         2
        22        20        21        43     9        0.000000        0.344680         3
        22        20        21        43     9      180.000000        0.003302         4
        22        20        21        44     9        0.000000        0.033524         1
        22        20        21        44     9      180.000000        0.089526         2
        22        20        21        44     9        0.000000        0.344680         3
        22        20        21        44     9      180.000000        0.003302         4
        22        24        25        26     9        0.000000        0.440908         1
        22        24        25        26     9      180.000000        0.444606         2
        22        24        25        26     9        0.000000        0.059412         3
        22        24        25        26     9      180.000000        0.206044         4
        22        24        25        45     9        0.000000       -0.028685         1
        22        24        25        45     9      180.000000       -0.001927         2
        22        24        25        45     9        0.000000        0.252664         3
        22        24        25        45     9      180.000000       -0.014307         4
        22        24        25        46     9        0.000000       -0.028685         1
        22        24        25        46     9      180.000000       -0.001927         2
        22        24        25        46     9        0.000000        0.252664         3
        22        24        25        46     9      180.000000       -0.014307         4
        22        24        29        28     9        0.000000        0.440908         1
        22        24        29        28     9      180.000000        0.444606         2
        22        24        29        28     9        0.000000        0.059412         3
        22        24        29        28     9      180.000000        0.206044         4
        22        24        29        51     9        0.000000       -0.028685         1
        22        24        29        51     9      180.000000       -0.001926         2
        22        24        29        51     9        0.000000        0.252664         3
        22        24        29        51     9      180.000000       -0.014306         4
        22        24        29        52     9        0.000000       -0.028685         1
        22        24        29        52     9      180.000000       -0.001926         2
        22        24        29        52     9        0.000000        0.252664         3
        22        24        29        52     9      180.000000       -0.014306         4
        23        22        20        41     9        0.000000        1.726652         1
        23        22        20        41     9      180.000000       -0.446050         2
        23        22        20        41     9        0.000000        0.259084         3
        23        22        20        41     9      180.000000       -0.318237         4
        23        22        24        25     9        0.000000       -0.829972         1
        23        22        24        25     9      180.000000       15.136697         2
        23        22        24        25     9        0.000000       -1.389194         3
        23        22        24        25     9      180.000000       -0.252977         4
        23        22        24        29     9        0.000000       -0.829973         1
        23        22        24        29     9      180.000000       15.136697         2
        23        22        24        29     9        0.000000       -1.389193         3
        23        22        24        29     9      180.000000       -0.252976         4
        24        22        20        41     9        0.000000       -0.568349         1
        24        22        20        41     9      180.000000       -0.182975         2
        24        22        20        41     9        0.000000       -0.162224         3
        24        22        20        41     9      180.000000       -0.005958         4
        24        25        26        27     9        0.000000        0.131837         1
        24        25        26        27     9      180.000000       -1.297547         2
        24        25        26        27     9        0.000000        0.387839         3
        24        25        26        27     9      180.000000       -0.141180         4
        24        25        26        47     9        0.000000       -0.102106         1
        24        25        26        47     9      180.000000        0.154514         2
        24        25        26        47     9        0.000000        0.456513         3
        24        25        26        47     9      180.000000        0.019598         4
        24        25        26        48     9        0.000000       -0.102106         1
        24        25        26        48     9      180.000000        0.154514         2
        24        25        26        48     9        0.000000        0.456513         3
        24        25        26        48     9      180.000000        0.019598         4
        24        29        28        27     9        0.000000        0.131838         1
        24        29        28        27     9      180.000000       -1.297547         2
        24        29        28        27     9        0.000000        0.387840         3
        24        29        28        27     9      180.000000       -0.141180         4
        24        29        28        49     9        0.000000       -0.102106         1
        24        29        28        49     9      180.000000        0.154513         2
        24        29        28        49     9        0.000000        0.456514         3
        24        29        28        49     9      180.000000        0.019598         4
        24        29        28        50     9        0.000000       -0.102106         1
        24        29        28        50     9      180.000000        0.154513         2
        24        29        28        50     9        0.000000        0.456514         3
        24        29        28        50     9      180.000000        0.019598         4
        25        24        29        28     9        0.000000       -0.005449         1
        25        24        29        28     9      180.000000       -2.867471         2
        25        24        29        28     9        0.000000        1.361352         3
        25        24        29        28     9      180.000000        0.109220         4
        25        24        29        51     9        0.000000       -0.081970         1
        25        24        29        51     9      180.000000        0.115740         2
        25        24        29        51     9        0.000000        1.147305         3
        25        24        29        51     9      180.000000       -0.023844         4
        25        24        29        52     9        0.000000       -0.081970         1
        25        24        29        52     9      180.000000        0.115740         2
        25        24        29        52     9        0.000000        1.147305         3
        25        24        29        52     9      180.000000       -0.023844         4
        25        26        27        28     9        0.000000        0.703463         1
        25        26        27        28     9      180.000000       -1.437896         2
        25        26        27        28     9        0.000000        0.641877         3
        25        26        27        28     9      180.000000        0.056741         4
        26        25        24        29     9        0.000000       -0.005450         1
        26        25        24        29     9      180.000000       -2.867471         2
        26        25        24        29     9        0.000000        1.361352         3
        26        25        24        29     9      180.000000        0.109220         4
        26        27        28        29     9        0.000000        0.703463         1
        26        27        28        29     9      180.000000       -1.437895         2
        26        27        28        29     9        0.000000        0.641877         3
        26        27        28        29     9      180.000000        0.056741         4
        26        27        28        49     9        0.000000       -0.063647         1
        26        27        28        49     9      180.000000        0.078884         2
        26        27        28        49     9        0.000000        0.431540         3
        26        27        28        49     9      180.000000       -0.001696         4
        26        27        28        50     9        0.000000       -0.063647         1
        26        27        28        50     9      180.000000        0.078884         2
        26        27        28        50     9        0.000000        0.431540         3
        26        27        28        50     9      180.000000       -0.001696         4
        27        26        25        45     9        0.000000       -0.026085         1
        27        26        25        45     9      180.000000        0.094479         2
        27        26        25        45     9        0.000000        0.296379         3
        27        26        25        45     9      180.000000        0.001937         4
        27        26        25        46     9        0.000000       -0.026085         1
        27        26        25        46     9      180.000000        0.094479         2
        27        26        25        46     9        0.000000        0.296379         3
        27        26        25        46     9      180.000000        0.001937         4
        27        28        29        51     9        0.000000       -0.026085         1
        27        28        29        51     9      180.000000        0.094480         2
        27        28        29        51     9        0.000000        0.296378         3
        27        28        29        51     9      180.000000        0.001937         4
        27        28        29        52     9        0.000000       -0.026085         1
        27        28        29        52     9      180.000000        0.094480         2
        27        28        29        52     9        0.000000        0.296378         3
        27        28        29        52     9      180.000000        0.001937         4
        28        27        26        47     9        0.000000       -0.063647         1
        28        27        26        47     9      180.000000        0.078883         2
        28        27        26        47     9        0.000000        0.431540         3
        28        27        26        47     9      180.000000       -0.001696         4
        28        27        26        48     9        0.000000       -0.063647         1
        28        27        26        48     9      180.000000        0.078883         2
        28        27        26        48     9        0.000000        0.431540         3
        28        27        26        48     9      180.000000       -0.001696         4
        29        24        25        45     9        0.000000       -0.081970         1
        29        24        25        45     9      180.000000        0.115739         2
        29        24        25        45     9        0.000000        1.147304         3
        29        24        25        45     9      180.000000       -0.023843         4
        29        24        25        46     9        0.000000       -0.081970         1
        29        24        25        46     9      180.000000        0.115739         2
        29        24        25        46     9        0.000000        1.147304         3
        29        24        25        46     9      180.000000       -0.023843         4
        30         4         3        31     9        0.000000        0.207411         1
        30         4         3        31     9      180.000000       12.109958         2
        30         4         3        31     9        0.000000       -0.167765         3
        30         4         3        31     9      180.000000        0.053071         4
        30         9         6        32     9        0.000000        0.555828         1
        30         9         6        32     9      180.000000       16.585023         2
        30         9         6        32     9        0.000000        0.005450         3
        30         9         6        32     9      180.000000       -0.253934         4
        33         7         8        34     9        0.000000       -0.118384         1
        33         7         8        34     9      180.000000       12.407721         2
        33         7         8        34     9        0.000000       -0.738024         3
        33         7         8        34     9      180.000000        0.287054         4
        35        13        14        36     9        0.000000       -0.771133         1
        35        13        14        36     9      180.000000       -0.783701         2
        35        13        14        36     9        0.000000        0.369575         3
        35        13        14        36     9      180.000000        0.020635         4
        36        14        15        37     9        0.000000       -0.109649         1
        36        14        15        37     9      180.000000        0.002482         2
        36        14        15        37     9        0.000000        0.369153         3
        36        14        15        37     9      180.000000       -0.074406         4
        36        14        15        38     9        0.000000       -0.109649         1
        36        14        15        38     9      180.000000        0.002482         2
        36        14        15        38     9        0.000000        0.369153         3
        36        14        15        38     9      180.000000       -0.074406         4
        37        15        16        39     9        0.000000       -0.042687         1
        37        15        16        39     9      180.000000        0.012428         2
        37        15        16        39     9        0.000000        0.280825         3
        37        15        16        39     9      180.000000       -0.016081         4
        37        15        16        40     9        0.000000       -0.042687         1
        37        15        16        40     9      180.000000        0.012428         2
        37        15        16        40     9        0.000000        0.280825         3
        37        15        16        40     9      180.000000       -0.016080         4
        38        15        16        39     9        0.000000       -0.042687         1
        38        15        16        39     9      180.000000        0.012428         2
        38        15        16        39     9        0.000000        0.280825         3
        38        15        16        39     9      180.000000       -0.016081         4
        38        15        16        40     9        0.000000       -0.042687         1
        38        15        16        40     9      180.000000        0.012428         2
        38        15        16        40     9        0.000000        0.280825         3
        38        15        16        40     9      180.000000       -0.016080         4
        41        20        21        42     9        0.000000       -0.021877         1
        41        20        21        42     9      180.000000        0.068248         2
        41        20        21        42     9        0.000000        0.576275         3
        41        20        21        42     9      180.000000       -0.025914         4
        41        20        21        43     9        0.000000       -0.021877         1
        41        20        21        43     9      180.000000        0.068248         2
        41        20        21        43     9        0.000000        0.576275         3
        41        20        21        43     9      180.000000       -0.025914         4
        41        20        21        44     9        0.000000       -0.021877         1
        41        20        21        44     9      180.000000        0.068248         2
        41        20        21        44     9        0.000000        0.576275         3
        41        20        21        44     9      180.000000       -0.025914         4
        45        25        26        47     9        0.000000       -0.023964         1
        45        25        26        47     9      180.000000        0.011206         2
        45        25        26        47     9        0.000000        0.270678         3
        45        25        26        47     9      180.000000        0.028411         4
        45        25        26        48     9        0.000000       -0.023964         1
        45        25        26        48     9      180.000000        0.011206         2
        45        25        26        48     9        0.000000        0.270678         3
        45        25        26        48     9      180.000000        0.028411         4
        46        25        26        47     9        0.000000       -0.023964         1
        46        25        26        47     9      180.000000        0.011206         2
        46        25        26        47     9        0.000000        0.270678         3
        46        25        26        47     9      180.000000        0.028411         4
        46        25        26        48     9        0.000000       -0.023964         1
        46        25        26        48     9      180.000000        0.011206         2
        46        25        26        48     9        0.000000        0.270678         3
        46        25        26        48     9      180.000000        0.028411         4
        49        28        29        51     9        0.000000       -0.023962         1
        49        28        29        51     9      180.000000        0.011207         2
        49        28        29        51     9        0.000000        0.270678         3
        49        28        29        51     9      180.000000        0.028410         4
        49        28        29        52     9        0.000000       -0.023962         1
        49        28        29        52     9      180.000000        0.011207         2
        49        28        29        52     9        0.000000        0.270678         3
        49        28        29        52     9      180.000000        0.028410         4
        50        28        29        51     9        0.000000       -0.023962         1
        50        28        29        51     9      180.000000        0.011207         2
        50        28        29        51     9        0.000000        0.270678         3
        50        28        29        51     9      180.000000        0.028410         4
        50        28        29        52     9        0.000000       -0.023962         1
        50        28        29        52     9      180.000000        0.011207         2
        50        28        29        52     9        0.000000        0.270678         3
        50        28        29        52     9      180.000000        0.028410         4

[ dihedrals ] ; impropers
;       ai        aj        ak        al funct           phase               k        pn
        17        14        18        19     4      180.000000       12.680875         2
        17        18        19        14     4      180.000000       12.680875         2
        17        19        14        18     4      180.000000       12.680875         2
        22        20        23        24     4      180.000000        9.205954         2
        22        23        24        20     4      180.000000        9.205954         2
        22        24        20        23     4      180.000000        9.205954         2

[ pairs ]
;       ai        aj funct
         1         4     1
         1         7     1
         1        31     1
         1        34     1
         2         5     1
         2        30     1
         2        33     1
         3         6     1
         3         7     1
         3         9     1
         3        34     1
         4         8     1
         4        10     1
         4        32     1
         4        33     1
         5        10     1
         5        31     1
         5        34     1
         6         8     1
         6        11     1
         6        12     1
         6        13     1
         6        33     1
         7         9     1
         7        30     1
         7        32     1
         8        31     1
         9        14     1
         9        35     1
        10        15     1
        10        17     1
        10        32     1
        10        36     1
        11        14     1
        11        30     1
        11        35     1
        12        14     1
        12        30     1
        12        35     1
        13        16     1
        13        18     1
        13        19     1
        13        30     1
        13        37     1
        13        38     1
        14        20     1
        14        39     1
        14        40     1
        15        18     1
        15        20     1
        15        35     1
        16        18     1
        16        21     1
        16        22     1
        16        36     1
        16        41     1
        17        21     1
        17        22     1
        17        35     1
        17        37     1
        17        38     1
        17        39     1
        17        40     1
        17        41     1
        18        20     1
        18        36     1
        19        23     1
        19        24     1
        19        36     1
        19        37     1
        19        38     1
        19        42     1
        19        43     1
        19        44     1
        20        25     1
        20        29     1
        20        39     1
        20        40     1
        21        23     1
        21        24     1
        22        26     1
        22        28     1
        22        42     1
        22        43     1
        22        44     1
        22        45     1
        22        46     1
        22        51     1
        22        52     1
        23        25     1
        23        29     1
        23        41     1
        24        27     1
        24        41     1
        24        47     1
        24        48     1
        24        49     1
        24        50     1
        25        28     1
        25        51     1
        25        52     1
        26        29     1
        26        49     1
        26        50     1
        27        45     1
        27        46     1
        27        51     1
        27        52     1
        28        47     1
        28        48     1
        29        45     1
        29        46     1
        30        31     1
        30        32     1
        33        34     1
        35        36     1
        36        37     1
        36        38     1
        37        39     1
        37        40     1
        38        39     1
        38        40     1
        41        42     1
        41        43     1
        41        44     1
        45        47     1
        45        48     1
        46        47     1
        46        48     1
        49        51     1
        49        52     1
        50        51     1
        50        52     1
