; ITP file created by ByteFF-ML, 2025-12-06 08:01:55.136070

[ atomtypes ]
;name           bonded.type        at.num        mass        charge   ptype           sigma         epsilon
 cl0bf                                 17      0.0000       0.00000       A     3.46758e-01     1.10611e+00
 c1bf                                   6      0.0000       0.00000       A     3.31506e-01     4.12911e-01
 c2bf                                   6      0.0000       0.00000       A     3.31540e-01     4.13545e-01
 c3bf                                   6      0.0000       0.00000       A     3.31555e-01     4.12914e-01
 c4bf                                   6      0.0000       0.00000       A     3.31621e-01     4.13289e-01
 o5bf                                   8      0.0000       0.00000       A     3.15504e-01     3.00869e-01
 c6bf                                   6      0.0000       0.00000       A     3.31419e-01     4.13176e-01
 c7bf                                   6      0.0000       0.00000       A     3.31515e-01     4.12501e-01
 c8bf                                   6      0.0000       0.00000       A     3.31603e-01     4.13257e-01
 s9bf                                  16      0.0000       0.00000       A     4.06378e-01     2.51031e-01
 o10bf                                  8      0.0000       0.00000       A     3.05054e-01     6.10608e-01
 o11bf                                  8      0.0000       0.00000       A     3.05054e-01     6.10608e-01
 n12bf                                  7      0.0000       0.00000       A     3.50537e-01     2.21676e-01
 c13bf                                  6      0.0000       0.00000       A     3.40106e-01     4.49758e-01
 c14bf                                  6      0.0000       0.00000       A     3.39888e-01     4.51758e-01
 c15bf                                  6      0.0000       0.00000       A     3.39876e-01     4.51158e-01
 c16bf                                  6      0.0000       0.00000       A     3.31760e-01     4.12573e-01
 o17bf                                  8      0.0000       0.00000       A     3.04794e-01     6.15556e-01
 n18bf                                  7      0.0000       0.00000       A     3.18260e-01     6.88160e-01
 c19bf                                  6      0.0000       0.00000       A     3.39757e-01     4.50874e-01
 c20bf                                  6      0.0000       0.00000       A     3.39605e-01     4.49879e-01
 c21bf                                  6      0.0000       0.00000       A     3.31657e-01     4.13830e-01
 o22bf                                  8      0.0000       0.00000       A     3.04754e-01     6.13558e-01
 n23bf                                  7      0.0000       0.00000       A     3.17857e-01     6.84912e-01
 c24bf                                  6      0.0000       0.00000       A     3.39840e-01     4.50763e-01
 c25bf                                  6      0.0000       0.00000       A     3.39665e-01     4.51065e-01
 o26bf                                  8      0.0000       0.00000       A     3.15559e-01     3.02369e-01
 c27bf                                  6      0.0000       0.00000       A     3.39665e-01     4.51065e-01
 c28bf                                  6      0.0000       0.00000       A     3.39840e-01     4.50763e-01
 c29bf                                  6      0.0000       0.00000       A     3.31494e-01     4.13613e-01
 h30bf                                  1      0.0000       0.00000       A     2.62509e-01     6.71945e-02
 h31bf                                  1      0.0000       0.00000       A     2.62522e-01     6.71004e-02
 h32bf                                  1      0.0000       0.00000       A     2.62437e-01     6.70014e-02
 h33bf                                  1      0.0000       0.00000       A     1.10224e-01     4.02640e-02
 h34bf                                  1      0.0000       0.00000       A     2.41336e-01     8.93895e-02
 h35bf                                  1      0.0000       0.00000       A     2.59998e-01     8.72188e-02
 h36bf                                  1      0.0000       0.00000       A     2.59998e-01     8.72188e-02
 h37bf                                  1      0.0000       0.00000       A     2.42182e-01     8.67208e-02
 h38bf                                  1      0.0000       0.00000       A     2.42182e-01     8.67208e-02
 h39bf                                  1      0.0000       0.00000       A     2.42267e-01     8.78125e-02
 h40bf                                  1      0.0000       0.00000       A     2.59883e-01     8.72300e-02
 h41bf                                  1      0.0000       0.00000       A     2.59883e-01     8.72300e-02
 h42bf                                  1      0.0000       0.00000       A     2.59883e-01     8.72300e-02
 h43bf                                  1      0.0000       0.00000       A     2.42002e-01     8.70017e-02
 h44bf                                  1      0.0000       0.00000       A     2.42002e-01     8.70017e-02
 h45bf                                  1      0.0000       0.00000       A     2.42029e-01     8.74327e-02
 h46bf                                  1      0.0000       0.00000       A     2.42029e-01     8.74327e-02
 h47bf                                  1      0.0000       0.00000       A     2.42029e-01     8.74327e-02
 h48bf                                  1      0.0000       0.00000       A     2.42029e-01     8.74327e-02
 h49bf                                  1      0.0000       0.00000       A     2.42002e-01     8.70017e-02
 h50bf                                  1      0.0000       0.00000       A     2.42002e-01     8.70017e-02
 h51bf                                  1      0.0000       0.00000       A     2.62769e-01     6.70429e-02

[ moleculetype ]
;name             nrexcl
 21031_1p              3

[ atoms ]
;       nr            type      resi   res      atom      cgnr      charge          mass ; qtot
         1           cl0bf         1   UNL       cl0         1    -0.21395       35.4530 ; qtot   -0.214
         2            c1bf         1   UNL        c1         2     0.10444       12.0110 ; qtot   -0.110
         3            c2bf         1   UNL        c2         3    -0.03778       12.0110 ; qtot   -0.147
         4            c3bf         1   UNL        c3         4    -0.11651       12.0110 ; qtot   -0.264
         5            c4bf         1   UNL        c4         5     0.08365       12.0110 ; qtot   -0.180
         6            o5bf         1   UNL        o5         6    -0.13278       15.9990 ; qtot   -0.313
         7            c6bf         1   UNL        c6         7    -0.08831       12.0110 ; qtot   -0.401
         8            c7bf         1   UNL        c7         8    -0.08166       12.0110 ; qtot   -0.483
         9            c8bf         1   UNL        c8         9    -0.13753       12.0110 ; qtot   -0.620
        10            s9bf         1   UNL        s9        10     1.12657       32.0670 ; qtot    0.506
        11           o10bf         1   UNL       o10        11    -0.51404       15.9990 ; qtot   -0.008
        12           o11bf         1   UNL       o11        12    -0.51404       15.9990 ; qtot   -0.522
        13           n12bf         1   UNL       n12        13    -0.82514       14.0070 ; qtot   -1.347
        14           c13bf         1   UNL       c13        14     0.12388       12.0110 ; qtot   -1.223
        15           c14bf         1   UNL       c14        15    -0.09522       12.0110 ; qtot   -1.318
        16           c15bf         1   UNL       c15        16     0.09495       12.0110 ; qtot   -1.223
        17           c16bf         1   UNL       c16        17     0.54935       12.0110 ; qtot   -0.674
        18           o17bf         1   UNL       o17        18    -0.54655       15.9990 ; qtot   -1.221
        19           n18bf         1   UNL       n18        19    -0.40098       14.0070 ; qtot   -1.622
        20           c19bf         1   UNL       c19        20     0.05721       12.0110 ; qtot   -1.564
        21           c20bf         1   UNL       c20        21    -0.09612       12.0110 ; qtot   -1.661
        22           c21bf         1   UNL       c21        22     0.58704       12.0110 ; qtot   -1.074
        23           o22bf         1   UNL       o22        23    -0.59786       15.9990 ; qtot   -1.671
        24           n23bf         1   UNL       n23        24    -0.41249       14.0070 ; qtot   -2.084
        25           c24bf         1   UNL       c24        25     0.06521       12.0110 ; qtot   -2.019
        26           c25bf         1   UNL       c25        26     0.13811       12.0110 ; qtot   -1.881
        27           o26bf         1   UNL       o26        27    -0.45725       15.9990 ; qtot   -2.338
        28           c27bf         1   UNL       c27        28     0.13811       12.0110 ; qtot   -2.200
        29           c28bf         1   UNL       c28        29     0.06521       12.0110 ; qtot   -2.134
        30           c29bf         1   UNL       c29        30    -0.07317       12.0110 ; qtot   -2.208
        31           h30bf         1   UNL       h30        31     0.14085        1.0080 ; qtot   -2.067
        32           h31bf         1   UNL       h31        32     0.13996        1.0080 ; qtot   -1.927
        33           h32bf         1   UNL       h32        33     0.13420        1.0080 ; qtot   -1.793
        34           h33bf         1   UNL       h33        34     0.49108        1.0080 ; qtot   -1.302
        35           h34bf         1   UNL       h34        35     0.09196        1.0080 ; qtot   -1.210
        36           h35bf         1   UNL       h35        36     0.07214        1.0080 ; qtot   -1.137
        37           h36bf         1   UNL       h36        37     0.07214        1.0080 ; qtot   -1.065
        38           h37bf         1   UNL       h37        38     0.05454        1.0080 ; qtot   -1.011
        39           h38bf         1   UNL       h38        39     0.05454        1.0080 ; qtot   -0.956
        40           h39bf         1   UNL       h39        40     0.08228        1.0080 ; qtot   -0.874
        41           h40bf         1   UNL       h40        41     0.05105        1.0080 ; qtot   -0.823
        42           h41bf         1   UNL       h41        42     0.05105        1.0080 ; qtot   -0.772
        43           h42bf         1   UNL       h42        43     0.05105        1.0080 ; qtot   -0.721
        44           h43bf         1   UNL       h43        44     0.06485        1.0080 ; qtot   -0.656
        45           h44bf         1   UNL       h44        45     0.06485        1.0080 ; qtot   -0.591
        46           h45bf         1   UNL       h45        46     0.05641        1.0080 ; qtot   -0.535
        47           h46bf         1   UNL       h46        47     0.05641        1.0080 ; qtot   -0.478
        48           h47bf         1   UNL       h47        48     0.05641        1.0080 ; qtot   -0.422
        49           h48bf         1   UNL       h48        49     0.05641        1.0080 ; qtot   -0.365
        50           h49bf         1   UNL       h49        50     0.06485        1.0080 ; qtot   -0.301
        51           h50bf         1   UNL       h50        51     0.06485        1.0080 ; qtot   -0.236
        52           h51bf         1   UNL       h51        52     0.23577        1.0080 ; qtot    0.000

[ bonds ]
;       ai        aj funct               r               k
         1         2     1        0.176127   145817.916016
         2         3     1        0.139074   310462.095508
         2         8     1        0.140719   279275.947705
         3         4     1        0.140629   302723.406494
         3        31     1        0.108453   325072.309912
         4         5     1        0.141166   262011.304004
         4        30     1        0.144263   244403.109570
         5         6     1        0.137557   224462.687549
         5         7     1        0.139097   319412.622510
         6         9     1        0.137366   228132.395703
         7         8     1        0.139718   313476.572510
         7        32     1        0.108481   325199.382568
         8        33     1        0.108427   326127.196826
         9        10     1        0.177550   152563.939282
         9        30     1        0.136019   405178.646826
        10        11     1        0.146244   527083.179492
        10        12     1        0.146244   527083.179492
        10        13     1        0.168425   153560.639893
        13        14     1        0.146777   191519.982446
        13        34     1        0.101976   399891.111719
        14        15     1        0.153769   166481.242529
        14        17     1        0.153794   143592.599536
        14        35     1        0.109520   296291.272607
        15        16     1        0.153943   173404.046436
        15        36     1        0.109161   311817.962793
        15        37     1        0.109161   311817.962793
        16        19     1        0.146731   190108.993311
        16        38     1        0.109491   295731.831152
        16        39     1        0.109491   295731.856689
        17        18     1        0.123040   609921.067773
        17        19     1        0.135997   293600.427393
        19        20     1        0.146082   191522.676611
        20        21     1        0.153522   178794.113037
        20        22     1        0.154579   145088.563403
        20        40     1        0.109199   304154.608252
        21        41     1        0.109216   305763.446143
        21        42     1        0.109216   305763.446143
        21        43     1        0.109216   305763.446143
        22        23     1        0.123348   593715.218164
        22        24     1        0.136666   294032.796191
        24        25     1        0.146801   191022.353564
        24        29     1        0.146801   191022.353564
        25        26     1        0.152763   185011.786279
        25        44     1        0.109338   299004.896924
        25        45     1        0.109338   299004.896924
        26        27     1        0.142906   199750.452344
        26        46     1        0.109582   293226.104443
        26        47     1        0.109582   293226.104443
        27        28     1        0.142906   199750.452344
        28        29     1        0.152763   185011.786279
        28        48     1        0.109582   293226.104443
        28        49     1        0.109582   293226.104443
        29        50     1        0.109338   299004.947998
        29        51     1        0.109338   299004.947998
        30        52     1        0.108110   339896.244385

[ angles ]
;       ai        aj        ak funct           theta             cth
         1         2         3     1      119.070518      324.772083
         1         2         8     1      118.353516      392.667500
         2         3         4     1      117.329117      643.039289
         2         3        31     1      120.832077      422.716857
         2         8         7     1      120.339890      586.395363
         2         8        33     1      119.543884      429.373647
         3         2         8     1      122.617409      593.502469
         3         4         5     1      119.426147      700.326304
         3         4        30     1      134.936981      471.105274
         4         3        31     1      121.765152      429.457983
         4         5         6     1      110.242538      218.056190
         4         5         7     1      123.508690      583.662956
         4        30         9     1      105.564880      387.841784
         4        30        52     1      128.751831      371.131130
         5         4        30     1      105.731850      398.554250
         5         6         9     1      105.532715      591.777118
         5         7         8     1      116.743729      782.360501
         5         7        32     1      121.692215      440.677489
         6         5         7     1      126.238937      530.357688
         6         9        10     1      117.169571      478.350726
         6         9        30     1      112.909401      167.360000
         7         8        33     1      120.279770      417.581216
         8         7        32     1      121.382362      430.601216
         9        10        11     1      107.008202      573.628915
         9        10        12     1      107.008202      573.628915
         9        10        13     1      102.521118      498.604495
         9        30        52     1      125.442932      353.028256
        10         9        30     1      130.162415      350.540814
        10        13        14     1      118.340073      559.228859
        10        13        34     1      109.000565      609.170507
        11        10        12     1      122.027443      712.135365
        11        10        13     1      107.706100      666.745133
        12        10        13     1      107.706100      666.745133
        13        14        15     1      114.610611      538.584340
        13        14        17     1      109.650040      536.411196
        13        14        35     1      109.205582      453.197472
        14        13        34     1      112.942177      491.211566
        14        15        16     1      103.619400      585.344256
        14        15        36     1      110.846176      481.495749
        14        15        37     1      110.846176      481.495749
        14        17        18     1      125.118629      419.711522
        14        17        19     1      107.968506      354.338022
        15        14        17     1      103.510155      547.335780
        15        14        35     1      110.865036      433.295094
        15        16        19     1      103.270203      586.268188
        15        16        38     1      112.132156      454.176533
        15        16        39     1      112.132156      454.176533
        16        15        36     1      111.340355      481.524989
        16        15        37     1      111.340355      481.524989
        16        19        17     1      113.311218      437.943709
        16        19        20     1      122.047386      514.268798
        17        14        35     1      107.661758      517.032999
        17        19        20     1      122.368851      545.953137
        18        17        19     1      126.699257      600.468992
        19        16        38     1      110.468552      450.026433
        19        16        39     1      110.468552      450.026433
        19        20        21     1      112.462791      689.158032
        19        20        22     1      109.734154      557.845194
        19        20        40     1      105.272728      542.259577
        20        21        41     1      110.287804      499.972359
        20        21        42     1      110.287804      499.972359
        20        21        43     1      110.287804      499.972359
        20        22        23     1      119.634476      398.868868
        20        22        24     1      118.134972      452.290649
        21        20        22     1      111.384232      621.169373
        21        20        40     1      108.504562      483.302978
        22        20        40     1      108.414406      479.417763
        22        24        25     1      122.242836      522.086889
        22        24        29     1      122.242836      522.086889
        23        22        24     1      121.980515      642.918371
        24        25        26     1      109.468040      691.740408
        24        25        44     1      109.737137      455.037229
        24        25        45     1      109.737137      455.037229
        24        29        28     1      109.468040      691.740408
        24        29        50     1      109.737137      455.037229
        24        29        51     1      109.737137      455.037229
        25        24        29     1      114.681778      504.716898
        25        26        27     1      112.231979      634.459778
        25        26        46     1      109.793846      487.937804
        25        26        47     1      109.793846      487.937804
        26        25        44     1      110.007591      488.286801
        26        25        45     1      110.007591      488.286801
        26        27        28     1      112.590408      587.596246
        27        26        46     1      108.218735      463.772740
        27        26        47     1      108.218735      463.772740
        27        28        29     1      112.231979      634.459778
        27        28        48     1      108.218735      463.772708
        27        28        49     1      108.218735      463.772708
        28        29        50     1      110.007591      488.286801
        28        29        51     1      110.007591      488.286801
        29        28        48     1      109.793846      487.937804
        29        28        49     1      109.793846      487.937804
        36        15        37     1      108.513290      354.940156
        38        16        39     1      108.141113      343.643464
        41        21        42     1      108.696800      357.638183
        41        21        43     1      108.696800      357.638183
        42        21        43     1      108.696815      357.638151
        44        25        45     1      107.943527      345.985281
        46        26        47     1      108.332138      339.167192
        48        28        49     1      108.332138      339.167160
        50        29        51     1      107.943527      345.985281

[ dihedrals ] ; propers for gromacs 4.5 or higher, use funct 9
;       ai        aj        ak        al funct           phase               k        pn
         1         2         3         4     9        0.000000        0.106535         1
         1         2         3         4     9      180.000000       22.783313         2
         1         2         3         4     9        0.000000        0.270398         3
         1         2         3         4     9      180.000000       -1.035776         4
         1         2         3        31     9        0.000000        0.135549         1
         1         2         3        31     9      180.000000       14.066795         2
         1         2         3        31     9        0.000000       -0.036314         3
         1         2         3        31     9      180.000000        0.271510         4
         1         2         8         7     9        0.000000        0.298269         1
         1         2         8         7     9      180.000000       18.273378         2
         1         2         8         7     9        0.000000        0.233695         3
         1         2         8         7     9      180.000000       -0.516309         4
         1         2         8        33     9        0.000000        0.166046         1
         1         2         8        33     9      180.000000       12.867288         2
         1         2         8        33     9        0.000000       -0.115028         3
         1         2         8        33     9      180.000000        0.224607         4
         2         3         4         5     9        0.000000       -0.150584         1
         2         3         4         5     9      180.000000       18.394735         2
         2         3         4         5     9        0.000000       -1.918057         3
         2         3         4         5     9      180.000000       -0.344904         4
         2         3         4        30     9        0.000000        0.210749         1
         2         3         4        30     9      180.000000       13.447525         2
         2         3         4        30     9        0.000000       -0.609116         3
         2         3         4        30     9      180.000000       -0.255880         4
         2         8         7         5     9        0.000000       -0.174031         1
         2         8         7         5     9      180.000000       20.427461         2
         2         8         7         5     9        0.000000       -1.434627         3
         2         8         7         5     9      180.000000       -0.467545         4
         2         8         7        32     9        0.000000        0.092003         1
         2         8         7        32     9      180.000000       14.261036         2
         2         8         7        32     9        0.000000       -0.439074         3
         2         8         7        32     9      180.000000        0.132416         4
         3         2         8         7     9        0.000000       -0.096015         1
         3         2         8         7     9      180.000000       16.707547         2
         3         2         8         7     9        0.000000       -1.244609         3
         3         2         8         7     9      180.000000       -0.285588         4
         3         2         8        33     9        0.000000       -0.053869         1
         3         2         8        33     9      180.000000       12.958163         2
         3         2         8        33     9        0.000000       -0.623917         3
         3         2         8        33     9      180.000000        0.117021         4
         3         4         5         6     9        0.000000        0.726476         1
         3         4         5         6     9      180.000000       12.147018         2
         3         4         5         6     9        0.000000       -2.047640         3
         3         4         5         6     9      180.000000        0.013337         4
         3         4         5         7     9        0.000000       -0.027875         1
         3         4         5         7     9      180.000000       11.538074         2
         3         4         5         7     9        0.000000       -1.715173         3
         3         4         5         7     9      180.000000       -0.080214         4
         3         4        30         9     9        0.000000       -0.110036         1
         3         4        30         9     9      180.000000        4.665156         2
         3         4        30         9     9        0.000000       -0.733510         3
         3         4        30         9     9      180.000000        0.141804         4
         3         4        30        52     9        0.000000       -0.700752         1
         3         4        30        52     9      180.000000        4.222677         2
         3         4        30        52     9        0.000000       -0.119987         3
         3         4        30        52     9      180.000000        0.167901         4
         4         3         2         8     9        0.000000       -0.139685         1
         4         3         2         8     9      180.000000       19.596926         2
         4         3         2         8     9        0.000000       -1.472373         3
         4         3         2         8     9      180.000000       -0.445729         4
         4         5         6         9     9        0.000000        0.391546         1
         4         5         6         9     9      180.000000       20.695605         2
         4         5         6         9     9        0.000000       -5.746202         3
         4         5         6         9     9      180.000000       -0.170102         4
         4         5         7         8     9        0.000000       -0.292480         1
         4         5         7         8     9      180.000000       17.559879         2
         4         5         7         8     9        0.000000       -1.906587         3
         4         5         7         8     9      180.000000       -0.275198         4
         4         5         7        32     9        0.000000        0.111380         1
         4         5         7        32     9      180.000000       11.941955         2
         4         5         7        32     9        0.000000       -0.412992         3
         4         5         7        32     9      180.000000       -0.005931         4
         4        30         9         6     9        0.000000       -0.260594         1
         4        30         9         6     9      180.000000       34.091842         2
         4        30         9         6     9        0.000000       -6.225519         3
         4        30         9         6     9      180.000000       -0.657767         4
         4        30         9        10     9        0.000000        0.207881         1
         4        30         9        10     9      180.000000       15.766279         2
         4        30         9        10     9        0.000000        0.237260         3
         4        30         9        10     9      180.000000       -1.075686         4
         5         4         3        31     9        0.000000        0.257910         1
         5         4         3        31     9      180.000000       13.054780         2
         5         4         3        31     9        0.000000       -0.292045         3
         5         4         3        31     9      180.000000        0.010555         4
         5         4        30         9     9        0.000000        0.153541         1
         5         4        30         9     9      180.000000       23.593199         2
         5         4        30         9     9        0.000000       -7.739540         3
         5         4        30         9     9      180.000000       -0.408361         4
         5         4        30        52     9        0.000000        1.801352         1
         5         4        30        52     9      180.000000        9.582200         2
         5         4        30        52     9        0.000000        0.439458         3
         5         4        30        52     9      180.000000        0.009499         4
         5         6         9        10     9        0.000000        1.126554         1
         5         6         9        10     9      180.000000        2.748511         2
         5         6         9        10     9        0.000000        0.672412         3
         5         6         9        10     9      180.000000        0.209103         4
         5         6         9        30     9        0.000000        0.507593         1
         5         6         9        30     9      180.000000       21.173424         2
         5         6         9        30     9        0.000000       -6.023063         3
         5         6         9        30     9      180.000000       -0.138252         4
         5         7         8        33     9        0.000000        0.026550         1
         5         7         8        33     9      180.000000       15.879201         2
         5         7         8        33     9        0.000000       -0.524413         3
         5         7         8        33     9      180.000000       -0.013492         4
         6         5         4        30     9        0.000000        0.430893         1
         6         5         4        30     9      180.000000       20.520596         2
         6         5         4        30     9        0.000000       -5.898477         3
         6         5         4        30     9      180.000000       -0.284200         4
         6         5         7         8     9        0.000000        0.300212         1
         6         5         7         8     9      180.000000       17.149041         2
         6         5         7         8     9        0.000000       -0.105094         3
         6         5         7         8     9      180.000000       -0.286335         4
         6         5         7        32     9        0.000000        0.103824         1
         6         5         7        32     9      180.000000       12.152387         2
         6         5         7        32     9        0.000000       -0.165780         3
         6         5         7        32     9      180.000000        0.034044         4
         6         9        10        11     9        0.000000       -0.094049         1
         6         9        10        11     9      180.000000        0.604626         2
         6         9        10        11     9        0.000000        0.941073         3
         6         9        10        11     9      180.000000       -0.128151         4
         6         9        10        12     9        0.000000       -0.094049         1
         6         9        10        12     9      180.000000        0.604626         2
         6         9        10        12     9        0.000000        0.941073         3
         6         9        10        12     9      180.000000       -0.128151         4
         6         9        10        13     9        0.000000        1.248714         1
         6         9        10        13     9      180.000000       -0.783081         2
         6         9        10        13     9        0.000000        1.553587         3
         6         9        10        13     9      180.000000       -0.272585         4
         6         9        30        52     9        0.000000        0.545051         1
         6         9        30        52     9      180.000000       16.578739         2
         6         9        30        52     9        0.000000        0.026102         3
         6         9        30        52     9      180.000000       -0.237808         4
         7         5         4        30     9        0.000000        0.377932         1
         7         5         4        30     9      180.000000       11.095625         2
         7         5         4        30     9        0.000000       -2.283073         3
         7         5         4        30     9      180.000000       -0.020555         4
         7         5         6         9     9        0.000000        0.840895         1
         7         5         6         9     9      180.000000        4.638519         2
         7         5         6         9     9        0.000000       -0.181216         3
         7         5         6         9     9      180.000000        0.107791         4
         8         2         3        31     9        0.000000        0.021960         1
         8         2         3        31     9      180.000000       13.922888         2
         8         2         3        31     9        0.000000       -0.564963         3
         8         2         3        31     9      180.000000        0.098597         4
         9        10        13        14     9        0.000000       -1.114165         1
         9        10        13        14     9      180.000000       -8.113643         2
         9        10        13        14     9        0.000000        2.877735         3
         9        10        13        14     9      180.000000        0.716252         4
         9        10        13        34     9        0.000000       -5.320109         1
         9        10        13        34     9      180.000000       -5.817364         2
         9        10        13        34     9        0.000000       -0.329248         3
         9        10        13        34     9      180.000000        0.528016         4
        10         9        30        52     9        0.000000        0.687040         1
        10         9        30        52     9      180.000000        9.790388         2
        10         9        30        52     9        0.000000        0.047716         3
        10         9        30        52     9      180.000000       -0.124820         4
        10        13        14        15     9        0.000000       -2.361094         1
        10        13        14        15     9      180.000000       -0.569509         2
        10        13        14        15     9        0.000000        0.642236         3
        10        13        14        15     9      180.000000       -0.094392         4
        10        13        14        17     9        0.000000        5.124243         1
        10        13        14        17     9      180.000000       -1.251422         2
        10        13        14        17     9        0.000000        0.357719         3
        10        13        14        17     9      180.000000       -0.035582         4
        10        13        14        35     9        0.000000        0.592403         1
        10        13        14        35     9      180.000000       -0.324443         2
        10        13        14        35     9        0.000000        0.420665         3
        10        13        14        35     9      180.000000        0.172793         4
        11        10         9        30     9        0.000000       -0.086210         1
        11        10         9        30     9      180.000000        0.053647         2
        11        10         9        30     9        0.000000       -0.136494         3
        11        10         9        30     9      180.000000        0.022930         4
        11        10        13        14     9        0.000000        0.591696         1
        11        10        13        14     9      180.000000        0.776267         2
        11        10        13        14     9        0.000000        1.713922         3
        11        10        13        14     9      180.000000        0.091692         4
        11        10        13        34     9        0.000000        0.492355         1
        11        10        13        34     9      180.000000        0.028659         2
        11        10        13        34     9        0.000000       -1.180190         3
        11        10        13        34     9      180.000000       -0.146084         4
        12        10         9        30     9        0.000000       -0.086210         1
        12        10         9        30     9      180.000000        0.053647         2
        12        10         9        30     9        0.000000       -0.136494         3
        12        10         9        30     9      180.000000        0.022930         4
        12        10        13        14     9        0.000000        0.591696         1
        12        10        13        14     9      180.000000        0.776267         2
        12        10        13        14     9        0.000000        1.713922         3
        12        10        13        14     9      180.000000        0.091692         4
        12        10        13        34     9        0.000000        0.492355         1
        12        10        13        34     9      180.000000        0.028659         2
        12        10        13        34     9        0.000000       -1.180190         3
        12        10        13        34     9      180.000000       -0.146084         4
        13        10         9        30     9        0.000000        0.689706         1
        13        10         9        30     9      180.000000       -0.310512         2
        13        10         9        30     9        0.000000       -0.172562         3
        13        10         9        30     9      180.000000       -0.116711         4
        13        14        15        16     9        0.000000       -2.163875         1
        13        14        15        16     9      180.000000        0.424344         2
        13        14        15        16     9        0.000000        0.227532         3
        13        14        15        16     9      180.000000        0.061211         4
        13        14        15        36     9        0.000000        0.091866         1
        13        14        15        36     9      180.000000        0.093615         2
        13        14        15        36     9        0.000000        0.335002         3
        13        14        15        36     9      180.000000       -0.055051         4
        13        14        15        37     9        0.000000        0.091866         1
        13        14        15        37     9      180.000000        0.093615         2
        13        14        15        37     9        0.000000        0.335002         3
        13        14        15        37     9      180.000000       -0.055051         4
        13        14        17        18     9        0.000000       -0.240771         1
        13        14        17        18     9      180.000000        2.684865         2
        13        14        17        18     9        0.000000        0.084447         3
        13        14        17        18     9      180.000000        0.219703         4
        13        14        17        19     9        0.000000       -0.340403         1
        13        14        17        19     9      180.000000        3.149278         2
        13        14        17        19     9        0.000000        0.354820         3
        13        14        17        19     9      180.000000        0.272067         4
        14        15        16        19     9        0.000000       -0.052131         1
        14        15        16        19     9      180.000000        4.368959         2
        14        15        16        19     9        0.000000       -0.124720         3
        14        15        16        19     9      180.000000       -1.799823         4
        14        15        16        38     9        0.000000        0.015044         1
        14        15        16        38     9      180.000000       -0.072489         2
        14        15        16        38     9        0.000000        0.025236         3
        14        15        16        38     9      180.000000        0.123796         4
        14        15        16        39     9        0.000000        0.015044         1
        14        15        16        39     9      180.000000       -0.072489         2
        14        15        16        39     9        0.000000        0.025236         3
        14        15        16        39     9      180.000000        0.123796         4
        14        17        19        16     9        0.000000       -0.582101         1
        14        17        19        16     9      180.000000       17.812070         2
        14        17        19        16     9        0.000000       -0.122878         3
        14        17        19        16     9      180.000000       -1.514392         4
        14        17        19        20     9        0.000000        1.762201         1
        14        17        19        20     9      180.000000       10.881363         2
        14        17        19        20     9        0.000000        0.808772         3
        14        17        19        20     9      180.000000       -0.622944         4
        15        14        13        34     9        0.000000       -1.610930         1
        15        14        13        34     9      180.000000       -0.856202         2
        15        14        13        34     9        0.000000        0.134666         3
        15        14        13        34     9      180.000000       -0.158177         4
        15        14        17        18     9        0.000000        4.563094         1
        15        14        17        18     9      180.000000        4.492810         2
        15        14        17        18     9        0.000000       -0.395809         3
        15        14        17        18     9      180.000000       -0.434302         4
        15        14        17        19     9        0.000000       -0.422678         1
        15        14        17        19     9      180.000000        6.745103         2
        15        14        17        19     9        0.000000       -1.124070         3
        15        14        17        19     9      180.000000       -0.742473         4
        15        16        19        17     9        0.000000       -1.786134         1
        15        16        19        17     9      180.000000        5.578944         2
        15        16        19        17     9        0.000000       -0.334713         3
        15        16        19        17     9      180.000000       -1.019729         4
        15        16        19        20     9        0.000000       -0.982164         1
        15        16        19        20     9      180.000000        1.118137         2
        15        16        19        20     9        0.000000        0.643596         3
        15        16        19        20     9      180.000000       -0.269745         4
        16        15        14        17     9        0.000000       -1.064124         1
        16        15        14        17     9      180.000000        6.265688         2
        16        15        14        17     9        0.000000       -0.313288         3
        16        15        14        17     9      180.000000       -1.469893         4
        16        15        14        35     9        0.000000       -0.046820         1
        16        15        14        35     9      180.000000        0.137082         2
        16        15        14        35     9        0.000000        0.140540         3
        16        15        14        35     9      180.000000        0.196627         4
        16        19        17        18     9        0.000000        1.670021         1
        16        19        17        18     9      180.000000       22.709838         2
        16        19        17        18     9        0.000000        0.650788         3
        16        19        17        18     9      180.000000       -1.143129         4
        16        19        20        21     9        0.000000        1.056288         1
        16        19        20        21     9      180.000000        0.248433         2
        16        19        20        21     9        0.000000        1.020115         3
        16        19        20        21     9      180.000000        0.035708         4
        16        19        20        22     9        0.000000       -0.006752         1
        16        19        20        22     9      180.000000       -0.687001         2
        16        19        20        22     9        0.000000        0.965898         3
        16        19        20        22     9      180.000000        0.047408         4
        16        19        20        40     9        0.000000       -1.324653         1
        16        19        20        40     9      180.000000       -0.237460         2
        16        19        20        40     9        0.000000        0.923646         3
        16        19        20        40     9      180.000000       -0.060215         4
        17        14        13        34     9        0.000000        4.524277         1
        17        14        13        34     9      180.000000       -1.287196         2
        17        14        13        34     9        0.000000        0.173521         3
        17        14        13        34     9      180.000000       -0.037179         4
        17        14        15        36     9        0.000000       -0.054295         1
        17        14        15        36     9      180.000000       -0.044171         2
        17        14        15        36     9        0.000000       -0.089052         3
        17        14        15        36     9      180.000000        0.154999         4
        17        14        15        37     9        0.000000       -0.054295         1
        17        14        15        37     9      180.000000       -0.044171         2
        17        14        15        37     9        0.000000       -0.089052         3
        17        14        15        37     9      180.000000        0.154999         4
        17        19        16        38     9        0.000000        0.108553         1
        17        19        16        38     9      180.000000       -0.000440         2
        17        19        16        38     9        0.000000       -0.019981         3
        17        19        16        38     9      180.000000        0.146580         4
        17        19        16        39     9        0.000000        0.108553         1
        17        19        16        39     9      180.000000       -0.000440         2
        17        19        16        39     9        0.000000       -0.019981         3
        17        19        16        39     9      180.000000        0.146580         4
        17        19        20        21     9        0.000000        0.922000         1
        17        19        20        21     9      180.000000       -0.058052         2
        17        19        20        21     9        0.000000        0.548524         3
        17        19        20        21     9      180.000000        0.035455         4
        17        19        20        22     9        0.000000       -0.527072         1
        17        19        20        22     9      180.000000        0.559860         2
        17        19        20        22     9        0.000000       -0.136893         3
        17        19        20        22     9      180.000000        0.221963         4
        17        19        20        40     9        0.000000       -0.542437         1
        17        19        20        40     9      180.000000       -0.062983         2
        17        19        20        40     9        0.000000       -0.120262         3
        17        19        20        40     9      180.000000        0.202540         4
        18        17        14        35     9        0.000000        0.311256         1
        18        17        14        35     9      180.000000        0.433602         2
        18        17        14        35     9        0.000000       -0.231193         3
        18        17        14        35     9      180.000000        0.146715         4
        18        17        19        20     9        0.000000        1.661571         1
        18        17        19        20     9      180.000000       14.445686         2
        18        17        19        20     9        0.000000        0.543062         3
        18        17        19        20     9      180.000000       -0.577490         4
        19        16        15        36     9        0.000000       -0.019400         1
        19        16        15        36     9      180.000000        0.004663         2
        19        16        15        36     9        0.000000        0.107646         3
        19        16        15        36     9      180.000000        0.111993         4
        19        16        15        37     9        0.000000       -0.019400         1
        19        16        15        37     9      180.000000        0.004663         2
        19        16        15        37     9        0.000000        0.107646         3
        19        16        15        37     9      180.000000        0.111993         4
        19        17        14        35     9        0.000000        1.077263         1
        19        17        14        35     9      180.000000       -0.107032         2
        19        17        14        35     9        0.000000       -0.009088         3
        19        17        14        35     9      180.000000        0.631291         4
        19        20        21        41     9        0.000000        0.027932         1
        19        20        21        41     9      180.000000        0.048555         2
        19        20        21        41     9        0.000000        0.571346         3
        19        20        21        41     9      180.000000        0.019893         4
        19        20        21        42     9        0.000000        0.027932         1
        19        20        21        42     9      180.000000        0.048555         2
        19        20        21        42     9        0.000000        0.571346         3
        19        20        21        42     9      180.000000        0.019893         4
        19        20        21        43     9        0.000000        0.027932         1
        19        20        21        43     9      180.000000        0.048555         2
        19        20        21        43     9        0.000000        0.571346         3
        19        20        21        43     9      180.000000        0.019893         4
        19        20        22        23     9        0.000000       -3.403668         1
        19        20        22        23     9      180.000000        1.746720         2
        19        20        22        23     9        0.000000       -0.045864         3
        19        20        22        23     9      180.000000       -0.140913         4
        19        20        22        24     9        0.000000        1.279096         1
        19        20        22        24     9      180.000000        2.095355         2
        19        20        22        24     9        0.000000        0.014931         3
        19        20        22        24     9      180.000000       -0.193603         4
        20        19        16        38     9        0.000000       -0.030206         1
        20        19        16        38     9      180.000000       -0.404530         2
        20        19        16        38     9        0.000000        1.182118         3
        20        19        16        38     9      180.000000        0.004763         4
        20        19        16        39     9        0.000000       -0.030206         1
        20        19        16        39     9      180.000000       -0.404530         2
        20        19        16        39     9        0.000000        1.182118         3
        20        19        16        39     9      180.000000        0.004763         4
        20        22        24        25     9        0.000000        8.087900         1
        20        22        24        25     9      180.000000       10.076018         2
        20        22        24        25     9        0.000000        0.319309         3
        20        22        24        25     9      180.000000       -0.471963         4
        20        22        24        29     9        0.000000        8.087900         1
        20        22        24        29     9      180.000000       10.076019         2
        20        22        24        29     9        0.000000        0.319308         3
        20        22        24        29     9      180.000000       -0.471964         4
        21        20        22        23     9        0.000000       -0.685838         1
        21        20        22        23     9      180.000000        1.236800         2
        21        20        22        23     9        0.000000        0.098838         3
        21        20        22        23     9      180.000000        0.381403         4
        21        20        22        24     9        0.000000        0.141944         1
        21        20        22        24     9      180.000000        0.745404         2
        21        20        22        24     9        0.000000       -0.234290         3
        21        20        22        24     9      180.000000        0.174722         4
        22        20        21        41     9        0.000000        0.033524         1
        22        20        21        41     9      180.000000        0.089526         2
        22        20        21        41     9        0.000000        0.344680         3
        22        20        21        41     9      180.000000        0.003302         4
        22        20        21        42     9        0.000000        0.033524         1
        22        20        21        42     9      180.000000        0.089526         2
        22        20        21        42     9        0.000000        0.344680         3
        22        20        21        42     9      180.000000        0.003302         4
        22        20        21        43     9        0.000000        0.033524         1
        22        20        21        43     9      180.000000        0.089526         2
        22        20        21        43     9        0.000000        0.344680         3
        22        20        21        43     9      180.000000        0.003302         4
        22        24        25        26     9        0.000000        0.440908         1
        22        24        25        26     9      180.000000        0.444606         2
        22        24        25        26     9        0.000000        0.059412         3
        22        24        25        26     9      180.000000        0.206044         4
        22        24        25        44     9        0.000000       -0.028685         1
        22        24        25        44     9      180.000000       -0.001927         2
        22        24        25        44     9        0.000000        0.252664         3
        22        24        25        44     9      180.000000       -0.014307         4
        22        24        25        45     9        0.000000       -0.028685         1
        22        24        25        45     9      180.000000       -0.001927         2
        22        24        25        45     9        0.000000        0.252664         3
        22        24        25        45     9      180.000000       -0.014307         4
        22        24        29        28     9        0.000000        0.440908         1
        22        24        29        28     9      180.000000        0.444606         2
        22        24        29        28     9        0.000000        0.059412         3
        22        24        29        28     9      180.000000        0.206044         4
        22        24        29        50     9        0.000000       -0.028685         1
        22        24        29        50     9      180.000000       -0.001926         2
        22        24        29        50     9        0.000000        0.252664         3
        22        24        29        50     9      180.000000       -0.014306         4
        22        24        29        51     9        0.000000       -0.028685         1
        22        24        29        51     9      180.000000       -0.001926         2
        22        24        29        51     9        0.000000        0.252664         3
        22        24        29        51     9      180.000000       -0.014306         4
        23        22        20        40     9        0.000000        1.726652         1
        23        22        20        40     9      180.000000       -0.446050         2
        23        22        20        40     9        0.000000        0.259084         3
        23        22        20        40     9      180.000000       -0.318237         4
        23        22        24        25     9        0.000000       -0.829972         1
        23        22        24        25     9      180.000000       15.136697         2
        23        22        24        25     9        0.000000       -1.389194         3
        23        22        24        25     9      180.000000       -0.252977         4
        23        22        24        29     9        0.000000       -0.829973         1
        23        22        24        29     9      180.000000       15.136697         2
        23        22        24        29     9        0.000000       -1.389193         3
        23        22        24        29     9      180.000000       -0.252976         4
        24        22        20        40     9        0.000000       -0.568349         1
        24        22        20        40     9      180.000000       -0.182975         2
        24        22        20        40     9        0.000000       -0.162224         3
        24        22        20        40     9      180.000000       -0.005958         4
        24        25        26        27     9        0.000000        0.131837         1
        24        25        26        27     9      180.000000       -1.297547         2
        24        25        26        27     9        0.000000        0.387839         3
        24        25        26        27     9      180.000000       -0.141180         4
        24        25        26        46     9        0.000000       -0.102106         1
        24        25        26        46     9      180.000000        0.154514         2
        24        25        26        46     9        0.000000        0.456513         3
        24        25        26        46     9      180.000000        0.019598         4
        24        25        26        47     9        0.000000       -0.102106         1
        24        25        26        47     9      180.000000        0.154514         2
        24        25        26        47     9        0.000000        0.456513         3
        24        25        26        47     9      180.000000        0.019598         4
        24        29        28        27     9        0.000000        0.131838         1
        24        29        28        27     9      180.000000       -1.297547         2
        24        29        28        27     9        0.000000        0.387840         3
        24        29        28        27     9      180.000000       -0.141180         4
        24        29        28        48     9        0.000000       -0.102106         1
        24        29        28        48     9      180.000000        0.154513         2
        24        29        28        48     9        0.000000        0.456514         3
        24        29        28        48     9      180.000000        0.019598         4
        24        29        28        49     9        0.000000       -0.102106         1
        24        29        28        49     9      180.000000        0.154513         2
        24        29        28        49     9        0.000000        0.456514         3
        24        29        28        49     9      180.000000        0.019598         4
        25        24        29        28     9        0.000000       -0.005449         1
        25        24        29        28     9      180.000000       -2.867471         2
        25        24        29        28     9        0.000000        1.361352         3
        25        24        29        28     9      180.000000        0.109220         4
        25        24        29        50     9        0.000000       -0.081970         1
        25        24        29        50     9      180.000000        0.115740         2
        25        24        29        50     9        0.000000        1.147305         3
        25        24        29        50     9      180.000000       -0.023844         4
        25        24        29        51     9        0.000000       -0.081970         1
        25        24        29        51     9      180.000000        0.115740         2
        25        24        29        51     9        0.000000        1.147305         3
        25        24        29        51     9      180.000000       -0.023844         4
        25        26        27        28     9        0.000000        0.703463         1
        25        26        27        28     9      180.000000       -1.437896         2
        25        26        27        28     9        0.000000        0.641877         3
        25        26        27        28     9      180.000000        0.056741         4
        26        25        24        29     9        0.000000       -0.005450         1
        26        25        24        29     9      180.000000       -2.867471         2
        26        25        24        29     9        0.000000        1.361352         3
        26        25        24        29     9      180.000000        0.109220         4
        26        27        28        29     9        0.000000        0.703463         1
        26        27        28        29     9      180.000000       -1.437895         2
        26        27        28        29     9        0.000000        0.641877         3
        26        27        28        29     9      180.000000        0.056741         4
        26        27        28        48     9        0.000000       -0.063647         1
        26        27        28        48     9      180.000000        0.078884         2
        26        27        28        48     9        0.000000        0.431540         3
        26        27        28        48     9      180.000000       -0.001696         4
        26        27        28        49     9        0.000000       -0.063647         1
        26        27        28        49     9      180.000000        0.078884         2
        26        27        28        49     9        0.000000        0.431540         3
        26        27        28        49     9      180.000000       -0.001696         4
        27        26        25        44     9        0.000000       -0.026085         1
        27        26        25        44     9      180.000000        0.094479         2
        27        26        25        44     9        0.000000        0.296379         3
        27        26        25        44     9      180.000000        0.001937         4
        27        26        25        45     9        0.000000       -0.026085         1
        27        26        25        45     9      180.000000        0.094479         2
        27        26        25        45     9        0.000000        0.296379         3
        27        26        25        45     9      180.000000        0.001937         4
        27        28        29        50     9        0.000000       -0.026085         1
        27        28        29        50     9      180.000000        0.094480         2
        27        28        29        50     9        0.000000        0.296378         3
        27        28        29        50     9      180.000000        0.001937         4
        27        28        29        51     9        0.000000       -0.026085         1
        27        28        29        51     9      180.000000        0.094480         2
        27        28        29        51     9        0.000000        0.296378         3
        27        28        29        51     9      180.000000        0.001937         4
        28        27        26        46     9        0.000000       -0.063647         1
        28        27        26        46     9      180.000000        0.078883         2
        28        27        26        46     9        0.000000        0.431540         3
        28        27        26        46     9      180.000000       -0.001696         4
        28        27        26        47     9        0.000000       -0.063647         1
        28        27        26        47     9      180.000000        0.078883         2
        28        27        26        47     9        0.000000        0.431540         3
        28        27        26        47     9      180.000000       -0.001696         4
        29        24        25        44     9        0.000000       -0.081970         1
        29        24        25        44     9      180.000000        0.115739         2
        29        24        25        44     9        0.000000        1.147304         3
        29        24        25        44     9      180.000000       -0.023843         4
        29        24        25        45     9        0.000000       -0.081970         1
        29        24        25        45     9      180.000000        0.115739         2
        29        24        25        45     9        0.000000        1.147304         3
        29        24        25        45     9      180.000000       -0.023843         4
        30         4         3        31     9        0.000000       -0.132823         1
        30         4         3        31     9      180.000000       10.367770         2
        30         4         3        31     9        0.000000       -0.163266         3
        30         4         3        31     9      180.000000        0.099901         4
        32         7         8        33     9        0.000000       -0.141790         1
        32         7         8        33     9      180.000000       12.089764         2
        32         7         8        33     9        0.000000       -0.797750         3
        32         7         8        33     9      180.000000        0.247869         4
        34        13        14        35     9        0.000000       -0.771132         1
        34        13        14        35     9      180.000000       -0.783699         2
        34        13        14        35     9        0.000000        0.369575         3
        34        13        14        35     9      180.000000        0.020635         4
        35        14        15        36     9        0.000000       -0.109649         1
        35        14        15        36     9      180.000000        0.002482         2
        35        14        15        36     9        0.000000        0.369153         3
        35        14        15        36     9      180.000000       -0.074407         4
        35        14        15        37     9        0.000000       -0.109649         1
        35        14        15        37     9      180.000000        0.002482         2
        35        14        15        37     9        0.000000        0.369153         3
        35        14        15        37     9      180.000000       -0.074407         4
        36        15        16        38     9        0.000000       -0.042687         1
        36        15        16        38     9      180.000000        0.012428         2
        36        15        16        38     9        0.000000        0.280825         3
        36        15        16        38     9      180.000000       -0.016081         4
        36        15        16        39     9        0.000000       -0.042687         1
        36        15        16        39     9      180.000000        0.012428         2
        36        15        16        39     9        0.000000        0.280825         3
        36        15        16        39     9      180.000000       -0.016081         4
        37        15        16        38     9        0.000000       -0.042687         1
        37        15        16        38     9      180.000000        0.012428         2
        37        15        16        38     9        0.000000        0.280825         3
        37        15        16        38     9      180.000000       -0.016081         4
        37        15        16        39     9        0.000000       -0.042687         1
        37        15        16        39     9      180.000000        0.012428         2
        37        15        16        39     9        0.000000        0.280825         3
        37        15        16        39     9      180.000000       -0.016081         4
        40        20        21        41     9        0.000000       -0.021877         1
        40        20        21        41     9      180.000000        0.068248         2
        40        20        21        41     9        0.000000        0.576275         3
        40        20        21        41     9      180.000000       -0.025914         4
        40        20        21        42     9        0.000000       -0.021877         1
        40        20        21        42     9      180.000000        0.068248         2
        40        20        21        42     9        0.000000        0.576275         3
        40        20        21        42     9      180.000000       -0.025914         4
        40        20        21        43     9        0.000000       -0.021877         1
        40        20        21        43     9      180.000000        0.068248         2
        40        20        21        43     9        0.000000        0.576275         3
        40        20        21        43     9      180.000000       -0.025914         4
        44        25        26        46     9        0.000000       -0.023964         1
        44        25        26        46     9      180.000000        0.011206         2
        44        25        26        46     9        0.000000        0.270678         3
        44        25        26        46     9      180.000000        0.028411         4
        44        25        26        47     9        0.000000       -0.023964         1
        44        25        26        47     9      180.000000        0.011206         2
        44        25        26        47     9        0.000000        0.270678         3
        44        25        26        47     9      180.000000        0.028411         4
        45        25        26        46     9        0.000000       -0.023964         1
        45        25        26        46     9      180.000000        0.011206         2
        45        25        26        46     9        0.000000        0.270678         3
        45        25        26        46     9      180.000000        0.028411         4
        45        25        26        47     9        0.000000       -0.023964         1
        45        25        26        47     9      180.000000        0.011206         2
        45        25        26        47     9        0.000000        0.270678         3
        45        25        26        47     9      180.000000        0.028411         4
        48        28        29        50     9        0.000000       -0.023962         1
        48        28        29        50     9      180.000000        0.011207         2
        48        28        29        50     9        0.000000        0.270678         3
        48        28        29        50     9      180.000000        0.028410         4
        48        28        29        51     9        0.000000       -0.023962         1
        48        28        29        51     9      180.000000        0.011207         2
        48        28        29        51     9        0.000000        0.270678         3
        48        28        29        51     9      180.000000        0.028410         4
        49        28        29        50     9        0.000000       -0.023962         1
        49        28        29        50     9      180.000000        0.011207         2
        49        28        29        50     9        0.000000        0.270678         3
        49        28        29        50     9      180.000000        0.028410         4
        49        28        29        51     9        0.000000       -0.023962         1
        49        28        29        51     9      180.000000        0.011207         2
        49        28        29        51     9        0.000000        0.270678         3
        49        28        29        51     9      180.000000        0.028410         4

[ dihedrals ] ; impropers
;       ai        aj        ak        al funct           phase               k        pn
        17        14        18        19     4      180.000000       12.680873         2
        17        18        19        14     4      180.000000       12.680873         2
        17        19        14        18     4      180.000000       12.680873         2
        22        20        23        24     4      180.000000        9.205954         2
        22        23        24        20     4      180.000000        9.205954         2
        22        24        20        23     4      180.000000        9.205954         2

[ pairs ]
;       ai        aj funct
         1         4     1
         1         7     1
         1        31     1
         1        33     1
         2         5     1
         2        30     1
         2        32     1
         3         6     1
         3         7     1
         3         9     1
         3        33     1
         3        52     1
         4         8     1
         4        10     1
         4        32     1
         5        10     1
         5        31     1
         5        33     1
         5        52     1
         6         8     1
         6        11     1
         6        12     1
         6        13     1
         6        32     1
         6        52     1
         7         9     1
         7        30     1
         8        31     1
         9        14     1
         9        34     1
        10        15     1
        10        17     1
        10        35     1
        10        52     1
        11        14     1
        11        30     1
        11        34     1
        12        14     1
        12        30     1
        12        34     1
        13        16     1
        13        18     1
        13        19     1
        13        30     1
        13        36     1
        13        37     1
        14        20     1
        14        38     1
        14        39     1
        15        18     1
        15        20     1
        15        34     1
        16        18     1
        16        21     1
        16        22     1
        16        35     1
        16        40     1
        17        21     1
        17        22     1
        17        34     1
        17        36     1
        17        37     1
        17        38     1
        17        39     1
        17        40     1
        18        20     1
        18        35     1
        19        23     1
        19        24     1
        19        35     1
        19        36     1
        19        37     1
        19        41     1
        19        42     1
        19        43     1
        20        25     1
        20        29     1
        20        38     1
        20        39     1
        21        23     1
        21        24     1
        22        26     1
        22        28     1
        22        41     1
        22        42     1
        22        43     1
        22        44     1
        22        45     1
        22        50     1
        22        51     1
        23        25     1
        23        29     1
        23        40     1
        24        27     1
        24        40     1
        24        46     1
        24        47     1
        24        48     1
        24        49     1
        25        28     1
        25        50     1
        25        51     1
        26        29     1
        26        48     1
        26        49     1
        27        44     1
        27        45     1
        27        50     1
        27        51     1
        28        46     1
        28        47     1
        29        44     1
        29        45     1
        30        31     1
        32        33     1
        34        35     1
        35        36     1
        35        37     1
        36        38     1
        36        39     1
        37        38     1
        37        39     1
        40        41     1
        40        42     1
        40        43     1
        44        46     1
        44        47     1
        45        46     1
        45        47     1
        48        50     1
        48        51     1
        49        50     1
        49        51     1
