; ITP file created by ByteFF-ML, 2025-12-06 08:02:04.547507

[ atomtypes ]
;name           bonded.type        at.num        mass        charge   ptype           sigma         epsilon
 cl0bf                                 17      0.0000       0.00000       A     3.46693e-01     1.10190e+00
 c1bf                                   6      0.0000       0.00000       A     3.31520e-01     4.13393e-01
 c2bf                                   6      0.0000       0.00000       A     3.31381e-01     4.12086e-01
 c3bf                                   6      0.0000       0.00000       A     3.31388e-01     4.12174e-01
 c4bf                                   6      0.0000       0.00000       A     3.31365e-01     4.14381e-01
 c5bf                                   6      0.0000       0.00000       A     3.31350e-01     4.15803e-01
 n6bf                                   7      0.0000       0.00000       A     3.38327e-01     3.91337e-01
 c7bf                                   6      0.0000       0.00000       A     3.31634e-01     4.13325e-01
 c8bf                                   6      0.0000       0.00000       A     3.31474e-01     4.10994e-01
 s9bf                                  16      0.0000       0.00000       A     4.06283e-01     2.53441e-01
 o10bf                                  8      0.0000       0.00000       A     3.05070e-01     6.11721e-01
 o11bf                                  8      0.0000       0.00000       A     3.05070e-01     6.11721e-01
 n12bf                                  7      0.0000       0.00000       A     3.50462e-01     2.20762e-01
 c13bf                                  6      0.0000       0.00000       A     3.40102e-01     4.49763e-01
 c14bf                                  6      0.0000       0.00000       A     3.39888e-01     4.51758e-01
 c15bf                                  6      0.0000       0.00000       A     3.39876e-01     4.51158e-01
 c16bf                                  6      0.0000       0.00000       A     3.31760e-01     4.12573e-01
 o17bf                                  8      0.0000       0.00000       A     3.04794e-01     6.15556e-01
 n18bf                                  7      0.0000       0.00000       A     3.18260e-01     6.88160e-01
 c19bf                                  6      0.0000       0.00000       A     3.39757e-01     4.50874e-01
 c20bf                                  6      0.0000       0.00000       A     3.39605e-01     4.49879e-01
 c21bf                                  6      0.0000       0.00000       A     3.31657e-01     4.13830e-01
 o22bf                                  8      0.0000       0.00000       A     3.04754e-01     6.13558e-01
 n23bf                                  7      0.0000       0.00000       A     3.17857e-01     6.84912e-01
 c24bf                                  6      0.0000       0.00000       A     3.39840e-01     4.50763e-01
 c25bf                                  6      0.0000       0.00000       A     3.39665e-01     4.51065e-01
 o26bf                                  8      0.0000       0.00000       A     3.15559e-01     3.02369e-01
 c27bf                                  6      0.0000       0.00000       A     3.39665e-01     4.51065e-01
 c28bf                                  6      0.0000       0.00000       A     3.39840e-01     4.50763e-01
 s29bf                                 16      0.0000       0.00000       A     3.53244e-01     1.17625e+00
 h30bf                                  1      0.0000       0.00000       A     2.62386e-01     6.72344e-02
 h31bf                                  1      0.0000       0.00000       A     2.62115e-01     6.80628e-02
 h32bf                                  1      0.0000       0.00000       A     2.53579e-01     6.74483e-02
 h33bf                                  1      0.0000       0.00000       A     1.10209e-01     4.06040e-02
 h34bf                                  1      0.0000       0.00000       A     2.41336e-01     8.93895e-02
 h35bf                                  1      0.0000       0.00000       A     2.59998e-01     8.72188e-02
 h36bf                                  1      0.0000       0.00000       A     2.59998e-01     8.72188e-02
 h37bf                                  1      0.0000       0.00000       A     2.42182e-01     8.67208e-02
 h38bf                                  1      0.0000       0.00000       A     2.42182e-01     8.67208e-02
 h39bf                                  1      0.0000       0.00000       A     2.42267e-01     8.78125e-02
 h40bf                                  1      0.0000       0.00000       A     2.59883e-01     8.72300e-02
 h41bf                                  1      0.0000       0.00000       A     2.59883e-01     8.72300e-02
 h42bf                                  1      0.0000       0.00000       A     2.59883e-01     8.72300e-02
 h43bf                                  1      0.0000       0.00000       A     2.42002e-01     8.70017e-02
 h44bf                                  1      0.0000       0.00000       A     2.42002e-01     8.70017e-02
 h45bf                                  1      0.0000       0.00000       A     2.42029e-01     8.74327e-02
 h46bf                                  1      0.0000       0.00000       A     2.42029e-01     8.74327e-02
 h47bf                                  1      0.0000       0.00000       A     2.42029e-01     8.74327e-02
 h48bf                                  1      0.0000       0.00000       A     2.42029e-01     8.74327e-02
 h49bf                                  1      0.0000       0.00000       A     2.42002e-01     8.70017e-02
 h50bf                                  1      0.0000       0.00000       A     2.42002e-01     8.70017e-02

[ moleculetype ]
;name             nrexcl
 21082_1l              3

[ atoms ]
;       nr            type      resi   res      atom      cgnr      charge          mass ; qtot
         1           cl0bf         1   UNL       cl0         1    -0.19286       35.4530 ; qtot   -0.193
         2            c1bf         1   UNL        c1         2     0.06938       12.0110 ; qtot   -0.123
         3            c2bf         1   UNL        c2         3    -0.02402       12.0110 ; qtot   -0.148
         4            c3bf         1   UNL        c3         4    -0.18513       12.0110 ; qtot   -0.333
         5            c4bf         1   UNL        c4         5     0.34025       12.0110 ; qtot    0.008
         6            c5bf         1   UNL        c5         6    -0.12688       12.0110 ; qtot   -0.119
         7            n6bf         1   UNL        n6         7    -0.60566       14.0070 ; qtot   -0.725
         8            c7bf         1   UNL        c7         8     0.34861       12.0110 ; qtot   -0.376
         9            c8bf         1   UNL        c8         9    -0.24667       12.0110 ; qtot   -0.623
        10            s9bf         1   UNL        s9        10     1.12036       32.0670 ; qtot    0.497
        11           o10bf         1   UNL       o10        11    -0.51730       15.9990 ; qtot   -0.020
        12           o11bf         1   UNL       o11        12    -0.51730       15.9990 ; qtot   -0.537
        13           n12bf         1   UNL       n12        13    -0.82407       14.0070 ; qtot   -1.361
        14           c13bf         1   UNL       c13        14     0.12223       12.0110 ; qtot   -1.239
        15           c14bf         1   UNL       c14        15    -0.09526       12.0110 ; qtot   -1.334
        16           c15bf         1   UNL       c15        16     0.09495       12.0110 ; qtot   -1.239
        17           c16bf         1   UNL       c16        17     0.54926       12.0110 ; qtot   -0.690
        18           o17bf         1   UNL       o17        18    -0.54655       15.9990 ; qtot   -1.237
        19           n18bf         1   UNL       n18        19    -0.40098       14.0070 ; qtot   -1.638
        20           c19bf         1   UNL       c19        20     0.05721       12.0110 ; qtot   -1.580
        21           c20bf         1   UNL       c20        21    -0.09612       12.0110 ; qtot   -1.677
        22           c21bf         1   UNL       c21        22     0.58704       12.0110 ; qtot   -1.090
        23           o22bf         1   UNL       o22        23    -0.59786       15.9990 ; qtot   -1.687
        24           n23bf         1   UNL       n23        24    -0.41249       14.0070 ; qtot   -2.100
        25           c24bf         1   UNL       c24        25     0.06521       12.0110 ; qtot   -2.035
        26           c25bf         1   UNL       c25        26     0.13811       12.0110 ; qtot   -1.897
        27           o26bf         1   UNL       o26        27    -0.45725       15.9990 ; qtot   -2.354
        28           c27bf         1   UNL       c27        28     0.13811       12.0110 ; qtot   -2.216
        29           c28bf         1   UNL       c28        29     0.06521       12.0110 ; qtot   -2.150
        30           s29bf         1   UNL       s29        30     0.18102       32.0670 ; qtot   -1.969
        31           h30bf         1   UNL       h30        31     0.14513        1.0080 ; qtot   -1.824
        32           h31bf         1   UNL       h31        32     0.23220        1.0080 ; qtot   -1.592
        33           h32bf         1   UNL       h32        33     0.03899        1.0080 ; qtot   -1.553
        34           h33bf         1   UNL       h33        34     0.48768        1.0080 ; qtot   -1.065
        35           h34bf         1   UNL       h34        35     0.09157        1.0080 ; qtot   -0.974
        36           h35bf         1   UNL       h35        36     0.07214        1.0080 ; qtot   -0.902
        37           h36bf         1   UNL       h36        37     0.07214        1.0080 ; qtot   -0.830
        38           h37bf         1   UNL       h37        38     0.05454        1.0080 ; qtot   -0.775
        39           h38bf         1   UNL       h38        39     0.05454        1.0080 ; qtot   -0.721
        40           h39bf         1   UNL       h39        40     0.08228        1.0080 ; qtot   -0.638
        41           h40bf         1   UNL       h40        41     0.05105        1.0080 ; qtot   -0.587
        42           h41bf         1   UNL       h41        42     0.05105        1.0080 ; qtot   -0.536
        43           h42bf         1   UNL       h42        43     0.05105        1.0080 ; qtot   -0.485
        44           h43bf         1   UNL       h43        44     0.06485        1.0080 ; qtot   -0.420
        45           h44bf         1   UNL       h44        45     0.06485        1.0080 ; qtot   -0.355
        46           h45bf         1   UNL       h45        46     0.05641        1.0080 ; qtot   -0.299
        47           h46bf         1   UNL       h46        47     0.05641        1.0080 ; qtot   -0.243
        48           h47bf         1   UNL       h47        48     0.05641        1.0080 ; qtot   -0.186
        49           h48bf         1   UNL       h48        49     0.05641        1.0080 ; qtot   -0.130
        50           h49bf         1   UNL       h49        50     0.06485        1.0080 ; qtot   -0.065
        51           h50bf         1   UNL       h50        51     0.06490        1.0080 ; qtot    0.000

[ bonds ]
;       ai        aj funct               r               k
         1         2     1        0.175351   153781.025146
         2         3     1        0.139236   309573.506250
         2         8     1        0.140986   262977.475000
         3         4     1        0.139687   311680.062402
         3        31     1        0.108480   324515.652002
         4         5     1        0.142227   233448.123779
         4        30     1        0.174900   156418.842554
         5         6     1        0.143838   242085.642432
         5         7     1        0.134752   295993.050244
         6         9     1        0.136318   395929.386719
         6        32     1        0.108320   332458.484668
         7         8     1        0.132841   350620.962061
         8        33     1        0.108722   318467.851611
         9        10     1        0.178394   142288.291675
         9        30     1        0.175510   145201.220361
        10        11     1        0.146353   523242.806836
        10        12     1        0.146353   523242.806836
        10        13     1        0.169017   148741.404297
        13        14     1        0.146749   191880.936719
        13        34     1        0.101970   399856.508936
        14        15     1        0.153763   166543.144482
        14        17     1        0.153780   143807.328320
        14        35     1        0.109521   296269.029785
        15        16     1        0.153943   173404.046436
        15        36     1        0.109161   311817.962793
        15        37     1        0.109161   311817.962793
        16        19     1        0.146731   190108.993311
        16        38     1        0.109491   295731.831152
        16        39     1        0.109491   295731.856689
        17        18     1        0.123040   609921.067773
        17        19     1        0.135997   293600.427393
        19        20     1        0.146082   191522.676611
        20        21     1        0.153522   178794.113037
        20        22     1        0.154579   145088.563403
        20        40     1        0.109199   304154.608252
        21        41     1        0.109216   305763.446143
        21        42     1        0.109216   305763.446143
        21        43     1        0.109216   305763.446143
        22        23     1        0.123348   593715.218164
        22        24     1        0.136666   294032.796191
        24        25     1        0.146801   191022.353564
        24        29     1        0.146801   191022.340796
        25        26     1        0.152763   185011.786279
        25        44     1        0.109338   299004.896924
        25        45     1        0.109338   299004.896924
        26        27     1        0.142906   199750.452344
        26        46     1        0.109582   293226.104443
        26        47     1        0.109582   293226.104443
        27        28     1        0.142906   199750.452344
        28        29     1        0.152763   185011.786279
        28        48     1        0.109582   293226.104443
        28        49     1        0.109582   293226.104443
        29        50     1        0.109338   299004.947998
        29        51     1        0.109338   299004.947998

[ angles ]
;       ai        aj        ak funct           theta             cth
         1         2         3     1      119.978699      326.744186
         1         2         8     1      119.125122      395.381009
         2         3         4     1      116.194603      722.663103
         2         3        31     1      121.102173      431.542769
         2         8         7     1      123.043381      602.056123
         2         8        33     1      119.675743      425.967252
         3         2         8     1      120.765282      630.318298
         3         4         5     1      119.791687      703.780772
         3         4        30     1      128.462433      364.872814
         4         3        31     1      122.480202      410.928863
         4         5         6     1      112.117226      453.887389
         4         5         7     1      122.882828      708.169772
         4        30         9     1       89.508652      446.980973
         5         4        30     1      112.107994      167.360000
         5         6         9     1      111.471024      399.994160
         5         6        32     1      124.210999      386.416686
         5         7         8     1      117.138718      496.576178
         6         5         7     1      124.935303      427.366973
         6         9        10     1      125.261986      407.997810
         6         9        30     1      114.522903      167.360000
         7         8        33     1      117.304543      312.632380
         9         6        32     1      124.259850      346.692371
         9        10        11     1      107.248947      585.345405
         9        10        12     1      107.248947      585.345405
         9        10        13     1      102.846474      492.271452
        10         9        30     1      120.052185      499.905260
        10        13        14     1      117.962326      564.925549
        10        13        34     1      108.800537      612.768175
        11        10        12     1      121.864624      712.405229
        11        10        13     1      107.324135      661.393768
        12        10        13     1      107.324135      661.393768
        13        14        15     1      114.651184      537.641063
        13        14        17     1      109.660690      536.687380
        13        14        35     1      109.303307      452.394074
        14        13        34     1      112.736290      495.544128
        14        15        16     1      103.618835      585.422974
        14        15        36     1      110.848923      481.543057
        14        15        37     1      110.848923      481.543057
        14        17        18     1      125.132507      420.544160
        14        17        19     1      107.967346      353.379647
        15        14        17     1      103.510841      547.371723
        15        14        35     1      110.870461      433.513053
        15        16        19     1      103.270203      586.268188
        15        16        38     1      112.132156      454.176533
        15        16        39     1      112.132156      454.176533
        16        15        36     1      111.340355      481.524989
        16        15        37     1      111.340355      481.524989
        16        19        17     1      113.311218      437.943709
        16        19        20     1      122.047386      514.268798
        17        14        35     1      107.652794      517.382155
        17        19        20     1      122.368851      545.953137
        18        17        19     1      126.699257      600.468992
        19        16        38     1      110.468552      450.026433
        19        16        39     1      110.468552      450.026433
        19        20        21     1      112.462791      689.158032
        19        20        22     1      109.734154      557.845194
        19        20        40     1      105.272728      542.259577
        20        21        41     1      110.287804      499.972359
        20        21        42     1      110.287804      499.972359
        20        21        43     1      110.287804      499.972359
        20        22        23     1      119.634476      398.868868
        20        22        24     1      118.134972      452.290649
        21        20        22     1      111.384232      621.169373
        21        20        40     1      108.504562      483.302978
        22        20        40     1      108.414406      479.417763
        22        24        25     1      122.242836      522.086889
        22        24        29     1      122.242836      522.086889
        23        22        24     1      121.980515      642.918371
        24        25        26     1      109.468040      691.740408
        24        25        44     1      109.737137      455.037229
        24        25        45     1      109.737137      455.037229
        24        29        28     1      109.468040      691.740408
        24        29        50     1      109.737137      455.037229
        24        29        51     1      109.737137      455.037229
        25        24        29     1      114.681778      504.716898
        25        26        27     1      112.231979      634.459778
        25        26        46     1      109.793846      487.937804
        25        26        47     1      109.793846      487.937804
        26        25        44     1      110.007591      488.286801
        26        25        45     1      110.007591      488.286801
        26        27        28     1      112.590408      587.596246
        27        26        46     1      108.218735      463.772740
        27        26        47     1      108.218735      463.772740
        27        28        29     1      112.231979      634.459778
        27        28        48     1      108.218735      463.772708
        27        28        49     1      108.218735      463.772708
        28        29        50     1      110.007591      488.286801
        28        29        51     1      110.007591      488.286801
        29        28        48     1      109.793846      487.937804
        29        28        49     1      109.793846      487.937804
        36        15        37     1      108.513290      354.940156
        38        16        39     1      108.141113      343.643464
        41        21        42     1      108.696800      357.638183
        41        21        43     1      108.696800      357.638183
        42        21        43     1      108.696800      357.638183
        44        25        45     1      107.943542      345.985281
        46        26        47     1      108.332138      339.167192
        48        28        49     1      108.332138      339.167160
        50        29        51     1      107.943527      345.985281

[ dihedrals ] ; propers for gromacs 4.5 or higher, use funct 9
;       ai        aj        ak        al funct           phase               k        pn
         1         2         3         4     9        0.000000        0.228114         1
         1         2         3         4     9      180.000000       21.379534         2
         1         2         3         4     9        0.000000        0.147636         3
         1         2         3         4     9      180.000000       -0.909521         4
         1         2         3        31     9        0.000000        0.222748         1
         1         2         3        31     9      180.000000       13.665220         2
         1         2         3        31     9        0.000000       -0.120506         3
         1         2         3        31     9      180.000000        0.350387         4
         1         2         8         7     9        0.000000       -0.005522         1
         1         2         8         7     9      180.000000       16.559523         2
         1         2         8         7     9        0.000000        0.033979         3
         1         2         8         7     9      180.000000       -0.660997         4
         1         2         8        33     9        0.000000        0.280285         1
         1         2         8        33     9      180.000000       12.227848         2
         1         2         8        33     9        0.000000       -0.108748         3
         1         2         8        33     9      180.000000        0.223612         4
         2         3         4         5     9        0.000000       -0.049541         1
         2         3         4         5     9      180.000000       17.787975         2
         2         3         4         5     9        0.000000       -1.474362         3
         2         3         4         5     9      180.000000       -0.342296         4
         2         3         4        30     9        0.000000       -0.091761         1
         2         3         4        30     9      180.000000       14.977345         2
         2         3         4        30     9        0.000000       -0.441215         3
         2         3         4        30     9      180.000000       -0.344639         4
         2         8         7         5     9        0.000000       -0.013692         1
         2         8         7         5     9      180.000000       26.232206         2
         2         8         7         5     9        0.000000       -0.593075         3
         2         8         7         5     9      180.000000       -0.402751         4
         3         2         8         7     9        0.000000       -0.150363         1
         3         2         8         7     9      180.000000       15.032358         2
         3         2         8         7     9        0.000000       -0.805050         3
         3         2         8         7     9      180.000000       -0.171944         4
         3         2         8        33     9        0.000000        0.112242         1
         3         2         8        33     9      180.000000       12.535070         2
         3         2         8        33     9        0.000000       -0.510813         3
         3         2         8        33     9      180.000000        0.110618         4
         3         4         5         6     9        0.000000        0.333070         1
         3         4         5         6     9      180.000000       12.423394         2
         3         4         5         6     9        0.000000       -1.455926         3
         3         4         5         6     9      180.000000       -0.061510         4
         3         4         5         7     9        0.000000        0.077918         1
         3         4         5         7     9      180.000000       12.501995         2
         3         4         5         7     9        0.000000       -0.686342         3
         3         4         5         7     9      180.000000       -0.062566         4
         3         4        30         9     9        0.000000        0.253013         1
         3         4        30         9     9      180.000000        4.663947         2
         3         4        30         9     9        0.000000       -0.389195         3
         3         4        30         9     9      180.000000        0.244342         4
         4         3         2         8     9        0.000000       -0.157938         1
         4         3         2         8     9      180.000000       18.766326         2
         4         3         2         8     9        0.000000       -1.777526         3
         4         3         2         8     9      180.000000       -0.490459         4
         4         5         6         9     9        0.000000       -0.234103         1
         4         5         6         9     9      180.000000       18.941612         2
         4         5         6         9     9        0.000000       -4.458937         3
         4         5         6         9     9      180.000000       -0.103562         4
         4         5         6        32     9        0.000000        0.491303         1
         4         5         6        32     9      180.000000        9.917109         2
         4         5         6        32     9        0.000000        0.149803         3
         4         5         6        32     9      180.000000       -0.072237         4
         4         5         7         8     9        0.000000        0.007996         1
         4         5         7         8     9      180.000000       21.420076         2
         4         5         7         8     9        0.000000       -0.112548         3
         4         5         7         8     9      180.000000       -0.161642         4
         4        30         9         6     9        0.000000        0.008931         1
         4        30         9         6     9      180.000000       24.669953         2
         4        30         9         6     9        0.000000       -5.759391         3
         4        30         9         6     9      180.000000       -0.373652         4
         4        30         9        10     9        0.000000        0.377955         1
         4        30         9        10     9      180.000000       10.321146         2
         4        30         9        10     9        0.000000        0.609335         3
         4        30         9        10     9      180.000000       -0.378297         4
         5         4         3        31     9        0.000000        0.164959         1
         5         4         3        31     9      180.000000       12.443815         2
         5         4         3        31     9        0.000000       -0.341679         3
         5         4         3        31     9      180.000000        0.104390         4
         5         4        30         9     9        0.000000       -0.998070         1
         5         4        30         9     9      180.000000       21.841443         2
         5         4        30         9     9        0.000000       -5.171268         3
         5         4        30         9     9      180.000000       -0.020413         4
         5         6         9        10     9        0.000000        0.306283         1
         5         6         9        10     9      180.000000       17.938347         2
         5         6         9        10     9        0.000000        0.254795         3
         5         6         9        10     9      180.000000       -1.296768         4
         5         6         9        30     9        0.000000       -0.312625         1
         5         6         9        30     9      180.000000       26.472590         2
         5         6         9        30     9        0.000000       -4.510414         3
         5         6         9        30     9      180.000000       -1.064571         4
         5         7         8        33     9        0.000000        1.066985         1
         5         7         8        33     9      180.000000       23.685226         2
         5         7         8        33     9        0.000000        0.226731         3
         5         7         8        33     9      180.000000       -0.545724         4
         6         5         4        30     9        0.000000        0.253019         1
         6         5         4        30     9      180.000000       17.174269         2
         6         5         4        30     9        0.000000       -2.635302         3
         6         5         4        30     9      180.000000       -0.619058         4
         6         5         7         8     9        0.000000        0.136767         1
         6         5         7         8     9      180.000000       19.985318         2
         6         5         7         8     9        0.000000        0.413109         3
         6         5         7         8     9      180.000000       -0.173358         4
         6         9        10        11     9        0.000000       -0.284079         1
         6         9        10        11     9      180.000000        0.148375         2
         6         9        10        11     9        0.000000        0.204259         3
         6         9        10        11     9      180.000000        0.015104         4
         6         9        10        12     9        0.000000       -0.284079         1
         6         9        10        12     9      180.000000        0.148375         2
         6         9        10        12     9        0.000000        0.204259         3
         6         9        10        12     9      180.000000        0.015104         4
         6         9        10        13     9        0.000000        1.370704         1
         6         9        10        13     9      180.000000       -0.197578         2
         6         9        10        13     9        0.000000        0.459385         3
         6         9        10        13     9      180.000000       -0.114012         4
         7         5         4        30     9        0.000000        0.050698         1
         7         5         4        30     9      180.000000       12.924804         2
         7         5         4        30     9        0.000000       -0.447113         3
         7         5         4        30     9      180.000000       -0.334743         4
         7         5         6         9     9        0.000000        0.600697         1
         7         5         6         9     9      180.000000        8.195143         2
         7         5         6         9     9        0.000000        0.009366         3
         7         5         6         9     9      180.000000       -0.329344         4
         7         5         6        32     9        0.000000       -0.170110         1
         7         5         6        32     9      180.000000        8.028856         2
         7         5         6        32     9        0.000000       -0.002734         3
         7         5         6        32     9      180.000000        0.002013         4
         8         2         3        31     9        0.000000        0.059251         1
         8         2         3        31     9      180.000000       13.444658         2
         8         2         3        31     9        0.000000       -0.501877         3
         8         2         3        31     9      180.000000        0.187933         4
         9        10        13        14     9        0.000000       -2.576869         1
         9        10        13        14     9      180.000000       -7.830122         2
         9        10        13        14     9        0.000000        3.151034         3
         9        10        13        14     9      180.000000        0.685617         4
         9        10        13        34     9        0.000000       -9.211919         1
         9        10        13        34     9      180.000000       -5.119802         2
         9        10        13        34     9        0.000000       -0.255810         3
         9        10        13        34     9      180.000000        0.417366         4
        10         9         6        32     9        0.000000        0.225400         1
        10         9         6        32     9      180.000000       12.740431         2
        10         9         6        32     9        0.000000       -0.143309         3
        10         9         6        32     9      180.000000       -0.102425         4
        10        13        14        15     9        0.000000       -2.607899         1
        10        13        14        15     9      180.000000       -0.498790         2
        10        13        14        15     9        0.000000        0.666590         3
        10        13        14        15     9      180.000000       -0.078523         4
        10        13        14        17     9        0.000000        5.548815         1
        10        13        14        17     9      180.000000       -1.293968         2
        10        13        14        17     9        0.000000        0.383618         3
        10        13        14        17     9      180.000000       -0.027495         4
        10        13        14        35     9        0.000000        0.907361         1
        10        13        14        35     9      180.000000       -0.343245         2
        10        13        14        35     9        0.000000        0.528191         3
        10        13        14        35     9      180.000000        0.114766         4
        11        10         9        30     9        0.000000        0.012812         1
        11        10         9        30     9      180.000000        0.759063         2
        11        10         9        30     9        0.000000        0.203858         3
        11        10         9        30     9      180.000000        0.100647         4
        11        10        13        14     9        0.000000        0.937220         1
        11        10        13        14     9      180.000000        0.612245         2
        11        10        13        14     9        0.000000        1.773401         3
        11        10        13        14     9      180.000000        0.036196         4
        11        10        13        34     9        0.000000        0.689962         1
        11        10        13        34     9      180.000000       -0.006406         2
        11        10        13        34     9        0.000000       -1.078269         3
        11        10        13        34     9      180.000000       -0.167615         4
        12        10         9        30     9        0.000000        0.012812         1
        12        10         9        30     9      180.000000        0.759063         2
        12        10         9        30     9        0.000000        0.203858         3
        12        10         9        30     9      180.000000        0.100647         4
        12        10        13        14     9        0.000000        0.937220         1
        12        10        13        14     9      180.000000        0.612245         2
        12        10        13        14     9        0.000000        1.773401         3
        12        10        13        14     9      180.000000        0.036196         4
        12        10        13        34     9        0.000000        0.689962         1
        12        10        13        34     9      180.000000       -0.006406         2
        12        10        13        34     9        0.000000       -1.078269         3
        12        10        13        34     9      180.000000       -0.167615         4
        13        10         9        30     9        0.000000       -1.430458         1
        13        10         9        30     9      180.000000        0.529262         2
        13        10         9        30     9        0.000000        0.740966         3
        13        10         9        30     9      180.000000       -0.138914         4
        13        14        15        16     9        0.000000       -2.321121         1
        13        14        15        16     9      180.000000        0.482413         2
        13        14        15        16     9        0.000000        0.201938         3
        13        14        15        16     9      180.000000        0.054180         4
        13        14        15        36     9        0.000000        0.107068         1
        13        14        15        36     9      180.000000        0.107372         2
        13        14        15        36     9        0.000000        0.333903         3
        13        14        15        36     9      180.000000       -0.053477         4
        13        14        15        37     9        0.000000        0.107068         1
        13        14        15        37     9      180.000000        0.107372         2
        13        14        15        37     9        0.000000        0.333903         3
        13        14        15        37     9      180.000000       -0.053477         4
        13        14        17        18     9        0.000000       -0.412094         1
        13        14        17        18     9      180.000000        2.678135         2
        13        14        17        18     9        0.000000        0.086392         3
        13        14        17        18     9      180.000000        0.227349         4
        13        14        17        19     9        0.000000       -0.476622         1
        13        14        17        19     9      180.000000        3.094663         2
        13        14        17        19     9        0.000000        0.335654         3
        13        14        17        19     9      180.000000        0.266510         4
        14        15        16        19     9        0.000000       -0.038388         1
        14        15        16        19     9      180.000000        4.395980         2
        14        15        16        19     9        0.000000       -0.123564         3
        14        15        16        19     9      180.000000       -1.806881         4
        14        15        16        38     9        0.000000        0.014370         1
        14        15        16        38     9      180.000000       -0.073116         2
        14        15        16        38     9        0.000000        0.024077         3
        14        15        16        38     9      180.000000        0.124384         4
        14        15        16        39     9        0.000000        0.014370         1
        14        15        16        39     9      180.000000       -0.073116         2
        14        15        16        39     9        0.000000        0.024077         3
        14        15        16        39     9      180.000000        0.124384         4
        14        17        19        16     9        0.000000       -0.586205         1
        14        17        19        16     9      180.000000       17.846300         2
        14        17        19        16     9        0.000000       -0.107111         3
        14        17        19        16     9      180.000000       -1.517731         4
        14        17        19        20     9        0.000000        1.748478         1
        14        17        19        20     9      180.000000       10.879480         2
        14        17        19        20     9        0.000000        0.806594         3
        14        17        19        20     9      180.000000       -0.625476         4
        15        14        13        34     9        0.000000       -1.689475         1
        15        14        13        34     9      180.000000       -0.875495         2
        15        14        13        34     9        0.000000        0.099057         3
        15        14        13        34     9      180.000000       -0.157741         4
        15        14        17        18     9        0.000000        4.526654         1
        15        14        17        18     9      180.000000        4.473567         2
        15        14        17        18     9        0.000000       -0.389454         3
        15        14        17        18     9      180.000000       -0.426924         4
        15        14        17        19     9        0.000000       -0.428806         1
        15        14        17        19     9      180.000000        6.746923         2
        15        14        17        19     9        0.000000       -1.117923         3
        15        14        17        19     9      180.000000       -0.747999         4
        15        16        19        17     9        0.000000       -1.786134         1
        15        16        19        17     9      180.000000        5.578944         2
        15        16        19        17     9        0.000000       -0.334713         3
        15        16        19        17     9      180.000000       -1.019729         4
        15        16        19        20     9        0.000000       -0.982164         1
        15        16        19        20     9      180.000000        1.118137         2
        15        16        19        20     9        0.000000        0.643596         3
        15        16        19        20     9      180.000000       -0.269745         4
        16        15        14        17     9        0.000000       -1.059894         1
        16        15        14        17     9      180.000000        6.292193         2
        16        15        14        17     9        0.000000       -0.314512         3
        16        15        14        17     9      180.000000       -1.473083         4
        16        15        14        35     9        0.000000       -0.039652         1
        16        15        14        35     9      180.000000        0.136392         2
        16        15        14        35     9        0.000000        0.140459         3
        16        15        14        35     9      180.000000        0.194813         4
        16        19        17        18     9        0.000000        1.670021         1
        16        19        17        18     9      180.000000       22.709838         2
        16        19        17        18     9        0.000000        0.650788         3
        16        19        17        18     9      180.000000       -1.143129         4
        16        19        20        21     9        0.000000        1.056288         1
        16        19        20        21     9      180.000000        0.248433         2
        16        19        20        21     9        0.000000        1.020115         3
        16        19        20        21     9      180.000000        0.035708         4
        16        19        20        22     9        0.000000       -0.006752         1
        16        19        20        22     9      180.000000       -0.687001         2
        16        19        20        22     9        0.000000        0.965898         3
        16        19        20        22     9      180.000000        0.047408         4
        16        19        20        40     9        0.000000       -1.324653         1
        16        19        20        40     9      180.000000       -0.237460         2
        16        19        20        40     9        0.000000        0.923646         3
        16        19        20        40     9      180.000000       -0.060215         4
        17        14        13        34     9        0.000000        4.571780         1
        17        14        13        34     9      180.000000       -1.268763         2
        17        14        13        34     9        0.000000        0.152952         3
        17        14        13        34     9      180.000000       -0.020514         4
        17        14        15        36     9        0.000000       -0.054611         1
        17        14        15        36     9      180.000000       -0.042548         2
        17        14        15        36     9        0.000000       -0.087538         3
        17        14        15        36     9      180.000000        0.153489         4
        17        14        15        37     9        0.000000       -0.054611         1
        17        14        15        37     9      180.000000       -0.042548         2
        17        14        15        37     9        0.000000       -0.087538         3
        17        14        15        37     9      180.000000        0.153489         4
        17        19        16        38     9        0.000000        0.108553         1
        17        19        16        38     9      180.000000       -0.000440         2
        17        19        16        38     9        0.000000       -0.019981         3
        17        19        16        38     9      180.000000        0.146580         4
        17        19        16        39     9        0.000000        0.108553         1
        17        19        16        39     9      180.000000       -0.000440         2
        17        19        16        39     9        0.000000       -0.019981         3
        17        19        16        39     9      180.000000        0.146580         4
        17        19        20        21     9        0.000000        0.922000         1
        17        19        20        21     9      180.000000       -0.058052         2
        17        19        20        21     9        0.000000        0.548524         3
        17        19        20        21     9      180.000000        0.035455         4
        17        19        20        22     9        0.000000       -0.527072         1
        17        19        20        22     9      180.000000        0.559860         2
        17        19        20        22     9        0.000000       -0.136893         3
        17        19        20        22     9      180.000000        0.221963         4
        17        19        20        40     9        0.000000       -0.542437         1
        17        19        20        40     9      180.000000       -0.062983         2
        17        19        20        40     9        0.000000       -0.120262         3
        17        19        20        40     9      180.000000        0.202540         4
        18        17        14        35     9        0.000000        0.328981         1
        18        17        14        35     9      180.000000        0.440377         2
        18        17        14        35     9        0.000000       -0.229265         3
        18        17        14        35     9      180.000000        0.148233         4
        18        17        19        20     9        0.000000        1.661571         1
        18        17        19        20     9      180.000000       14.445686         2
        18        17        19        20     9        0.000000        0.543062         3
        18        17        19        20     9      180.000000       -0.577490         4
        19        16        15        36     9        0.000000       -0.019400         1
        19        16        15        36     9      180.000000        0.004663         2
        19        16        15        36     9        0.000000        0.107646         3
        19        16        15        36     9      180.000000        0.111993         4
        19        16        15        37     9        0.000000       -0.019400         1
        19        16        15        37     9      180.000000        0.004663         2
        19        16        15        37     9        0.000000        0.107646         3
        19        16        15        37     9      180.000000        0.111993         4
        19        17        14        35     9        0.000000        1.084651         1
        19        17        14        35     9      180.000000       -0.109915         2
        19        17        14        35     9        0.000000       -0.011079         3
        19        17        14        35     9      180.000000        0.625760         4
        19        20        21        41     9        0.000000        0.027932         1
        19        20        21        41     9      180.000000        0.048555         2
        19        20        21        41     9        0.000000        0.571346         3
        19        20        21        41     9      180.000000        0.019893         4
        19        20        21        42     9        0.000000        0.027932         1
        19        20        21        42     9      180.000000        0.048555         2
        19        20        21        42     9        0.000000        0.571346         3
        19        20        21        42     9      180.000000        0.019893         4
        19        20        21        43     9        0.000000        0.027932         1
        19        20        21        43     9      180.000000        0.048555         2
        19        20        21        43     9        0.000000        0.571346         3
        19        20        21        43     9      180.000000        0.019893         4
        19        20        22        23     9        0.000000       -3.403668         1
        19        20        22        23     9      180.000000        1.746720         2
        19        20        22        23     9        0.000000       -0.045864         3
        19        20        22        23     9      180.000000       -0.140913         4
        19        20        22        24     9        0.000000        1.279096         1
        19        20        22        24     9      180.000000        2.095355         2
        19        20        22        24     9        0.000000        0.014931         3
        19        20        22        24     9      180.000000       -0.193603         4
        20        19        16        38     9        0.000000       -0.030206         1
        20        19        16        38     9      180.000000       -0.404530         2
        20        19        16        38     9        0.000000        1.182118         3
        20        19        16        38     9      180.000000        0.004763         4
        20        19        16        39     9        0.000000       -0.030206         1
        20        19        16        39     9      180.000000       -0.404530         2
        20        19        16        39     9        0.000000        1.182118         3
        20        19        16        39     9      180.000000        0.004763         4
        20        22        24        25     9        0.000000        8.087900         1
        20        22        24        25     9      180.000000       10.076018         2
        20        22        24        25     9        0.000000        0.319309         3
        20        22        24        25     9      180.000000       -0.471963         4
        20        22        24        29     9        0.000000        8.087900         1
        20        22        24        29     9      180.000000       10.076019         2
        20        22        24        29     9        0.000000        0.319308         3
        20        22        24        29     9      180.000000       -0.471964         4
        21        20        22        23     9        0.000000       -0.685838         1
        21        20        22        23     9      180.000000        1.236800         2
        21        20        22        23     9        0.000000        0.098838         3
        21        20        22        23     9      180.000000        0.381403         4
        21        20        22        24     9        0.000000        0.141944         1
        21        20        22        24     9      180.000000        0.745404         2
        21        20        22        24     9        0.000000       -0.234290         3
        21        20        22        24     9      180.000000        0.174722         4
        22        20        21        41     9        0.000000        0.033524         1
        22        20        21        41     9      180.000000        0.089526         2
        22        20        21        41     9        0.000000        0.344680         3
        22        20        21        41     9      180.000000        0.003302         4
        22        20        21        42     9        0.000000        0.033524         1
        22        20        21        42     9      180.000000        0.089526         2
        22        20        21        42     9        0.000000        0.344680         3
        22        20        21        42     9      180.000000        0.003302         4
        22        20        21        43     9        0.000000        0.033524         1
        22        20        21        43     9      180.000000        0.089526         2
        22        20        21        43     9        0.000000        0.344680         3
        22        20        21        43     9      180.000000        0.003302         4
        22        24        25        26     9        0.000000        0.440908         1
        22        24        25        26     9      180.000000        0.444606         2
        22        24        25        26     9        0.000000        0.059412         3
        22        24        25        26     9      180.000000        0.206044         4
        22        24        25        44     9        0.000000       -0.028685         1
        22        24        25        44     9      180.000000       -0.001927         2
        22        24        25        44     9        0.000000        0.252664         3
        22        24        25        44     9      180.000000       -0.014307         4
        22        24        25        45     9        0.000000       -0.028685         1
        22        24        25        45     9      180.000000       -0.001927         2
        22        24        25        45     9        0.000000        0.252664         3
        22        24        25        45     9      180.000000       -0.014307         4
        22        24        29        28     9        0.000000        0.440908         1
        22        24        29        28     9      180.000000        0.444606         2
        22        24        29        28     9        0.000000        0.059412         3
        22        24        29        28     9      180.000000        0.206044         4
        22        24        29        50     9        0.000000       -0.028685         1
        22        24        29        50     9      180.000000       -0.001926         2
        22        24        29        50     9        0.000000        0.252664         3
        22        24        29        50     9      180.000000       -0.014306         4
        22        24        29        51     9        0.000000       -0.028685         1
        22        24        29        51     9      180.000000       -0.001926         2
        22        24        29        51     9        0.000000        0.252664         3
        22        24        29        51     9      180.000000       -0.014306         4
        23        22        20        40     9        0.000000        1.726652         1
        23        22        20        40     9      180.000000       -0.446050         2
        23        22        20        40     9        0.000000        0.259084         3
        23        22        20        40     9      180.000000       -0.318237         4
        23        22        24        25     9        0.000000       -0.829972         1
        23        22        24        25     9      180.000000       15.136697         2
        23        22        24        25     9        0.000000       -1.389194         3
        23        22        24        25     9      180.000000       -0.252977         4
        23        22        24        29     9        0.000000       -0.829973         1
        23        22        24        29     9      180.000000       15.136697         2
        23        22        24        29     9        0.000000       -1.389193         3
        23        22        24        29     9      180.000000       -0.252976         4
        24        22        20        40     9        0.000000       -0.568349         1
        24        22        20        40     9      180.000000       -0.182975         2
        24        22        20        40     9        0.000000       -0.162224         3
        24        22        20        40     9      180.000000       -0.005958         4
        24        25        26        27     9        0.000000        0.131837         1
        24        25        26        27     9      180.000000       -1.297547         2
        24        25        26        27     9        0.000000        0.387839         3
        24        25        26        27     9      180.000000       -0.141180         4
        24        25        26        46     9        0.000000       -0.102106         1
        24        25        26        46     9      180.000000        0.154514         2
        24        25        26        46     9        0.000000        0.456513         3
        24        25        26        46     9      180.000000        0.019598         4
        24        25        26        47     9        0.000000       -0.102106         1
        24        25        26        47     9      180.000000        0.154514         2
        24        25        26        47     9        0.000000        0.456513         3
        24        25        26        47     9      180.000000        0.019598         4
        24        29        28        27     9        0.000000        0.131838         1
        24        29        28        27     9      180.000000       -1.297547         2
        24        29        28        27     9        0.000000        0.387840         3
        24        29        28        27     9      180.000000       -0.141180         4
        24        29        28        48     9        0.000000       -0.102106         1
        24        29        28        48     9      180.000000        0.154513         2
        24        29        28        48     9        0.000000        0.456514         3
        24        29        28        48     9      180.000000        0.019598         4
        24        29        28        49     9        0.000000       -0.102106         1
        24        29        28        49     9      180.000000        0.154513         2
        24        29        28        49     9        0.000000        0.456514         3
        24        29        28        49     9      180.000000        0.019598         4
        25        24        29        28     9        0.000000       -0.005449         1
        25        24        29        28     9      180.000000       -2.867471         2
        25        24        29        28     9        0.000000        1.361352         3
        25        24        29        28     9      180.000000        0.109220         4
        25        24        29        50     9        0.000000       -0.081970         1
        25        24        29        50     9      180.000000        0.115740         2
        25        24        29        50     9        0.000000        1.147305         3
        25        24        29        50     9      180.000000       -0.023844         4
        25        24        29        51     9        0.000000       -0.081970         1
        25        24        29        51     9      180.000000        0.115740         2
        25        24        29        51     9        0.000000        1.147305         3
        25        24        29        51     9      180.000000       -0.023844         4
        25        26        27        28     9        0.000000        0.703463         1
        25        26        27        28     9      180.000000       -1.437896         2
        25        26        27        28     9        0.000000        0.641877         3
        25        26        27        28     9      180.000000        0.056741         4
        26        25        24        29     9        0.000000       -0.005450         1
        26        25        24        29     9      180.000000       -2.867471         2
        26        25        24        29     9        0.000000        1.361352         3
        26        25        24        29     9      180.000000        0.109220         4
        26        27        28        29     9        0.000000        0.703463         1
        26        27        28        29     9      180.000000       -1.437895         2
        26        27        28        29     9        0.000000        0.641877         3
        26        27        28        29     9      180.000000        0.056741         4
        26        27        28        48     9        0.000000       -0.063647         1
        26        27        28        48     9      180.000000        0.078884         2
        26        27        28        48     9        0.000000        0.431540         3
        26        27        28        48     9      180.000000       -0.001696         4
        26        27        28        49     9        0.000000       -0.063647         1
        26        27        28        49     9      180.000000        0.078884         2
        26        27        28        49     9        0.000000        0.431540         3
        26        27        28        49     9      180.000000       -0.001696         4
        27        26        25        44     9        0.000000       -0.026085         1
        27        26        25        44     9      180.000000        0.094479         2
        27        26        25        44     9        0.000000        0.296379         3
        27        26        25        44     9      180.000000        0.001937         4
        27        26        25        45     9        0.000000       -0.026085         1
        27        26        25        45     9      180.000000        0.094479         2
        27        26        25        45     9        0.000000        0.296379         3
        27        26        25        45     9      180.000000        0.001937         4
        27        28        29        50     9        0.000000       -0.026085         1
        27        28        29        50     9      180.000000        0.094480         2
        27        28        29        50     9        0.000000        0.296378         3
        27        28        29        50     9      180.000000        0.001937         4
        27        28        29        51     9        0.000000       -0.026085         1
        27        28        29        51     9      180.000000        0.094480         2
        27        28        29        51     9        0.000000        0.296378         3
        27        28        29        51     9      180.000000        0.001937         4
        28        27        26        46     9        0.000000       -0.063647         1
        28        27        26        46     9      180.000000        0.078883         2
        28        27        26        46     9        0.000000        0.431540         3
        28        27        26        46     9      180.000000       -0.001696         4
        28        27        26        47     9        0.000000       -0.063647         1
        28        27        26        47     9      180.000000        0.078883         2
        28        27        26        47     9        0.000000        0.431540         3
        28        27        26        47     9      180.000000       -0.001696         4
        29        24        25        44     9        0.000000       -0.081970         1
        29        24        25        44     9      180.000000        0.115739         2
        29        24        25        44     9        0.000000        1.147304         3
        29        24        25        44     9      180.000000       -0.023843         4
        29        24        25        45     9        0.000000       -0.081970         1
        29        24        25        45     9      180.000000        0.115739         2
        29        24        25        45     9        0.000000        1.147304         3
        29        24        25        45     9      180.000000       -0.023843         4
        30         4         3        31     9        0.000000        0.049274         1
        30         4         3        31     9      180.000000       10.854225         2
        30         4         3        31     9        0.000000       -0.236353         3
        30         4         3        31     9      180.000000        0.075988         4
        30         9         6        32     9        0.000000        0.113267         1
        30         9         6        32     9      180.000000       15.560715         2
        30         9         6        32     9        0.000000        0.010902         3
        30         9         6        32     9      180.000000       -0.412414         4
        34        13        14        35     9        0.000000       -0.804433         1
        34        13        14        35     9      180.000000       -0.767275         2
        34        13        14        35     9        0.000000        0.336929         3
        34        13        14        35     9      180.000000        0.015905         4
        35        14        15        36     9        0.000000       -0.111057         1
        35        14        15        36     9      180.000000        0.002771         2
        35        14        15        36     9        0.000000        0.368056         3
        35        14        15        36     9      180.000000       -0.073907         4
        35        14        15        37     9        0.000000       -0.111057         1
        35        14        15        37     9      180.000000        0.002771         2
        35        14        15        37     9        0.000000        0.368056         3
        35        14        15        37     9      180.000000       -0.073907         4
        36        15        16        38     9        0.000000       -0.042687         1
        36        15        16        38     9      180.000000        0.012428         2
        36        15        16        38     9        0.000000        0.280825         3
        36        15        16        38     9      180.000000       -0.016081         4
        36        15        16        39     9        0.000000       -0.042687         1
        36        15        16        39     9      180.000000        0.012428         2
        36        15        16        39     9        0.000000        0.280825         3
        36        15        16        39     9      180.000000       -0.016081         4
        37        15        16        38     9        0.000000       -0.042687         1
        37        15        16        38     9      180.000000        0.012428         2
        37        15        16        38     9        0.000000        0.280825         3
        37        15        16        38     9      180.000000       -0.016081         4
        37        15        16        39     9        0.000000       -0.042687         1
        37        15        16        39     9      180.000000        0.012428         2
        37        15        16        39     9        0.000000        0.280825         3
        37        15        16        39     9      180.000000       -0.016081         4
        40        20        21        41     9        0.000000       -0.021877         1
        40        20        21        41     9      180.000000        0.068248         2
        40        20        21        41     9        0.000000        0.576275         3
        40        20        21        41     9      180.000000       -0.025914         4
        40        20        21        42     9        0.000000       -0.021877         1
        40        20        21        42     9      180.000000        0.068248         2
        40        20        21        42     9        0.000000        0.576275         3
        40        20        21        42     9      180.000000       -0.025914         4
        40        20        21        43     9        0.000000       -0.021877         1
        40        20        21        43     9      180.000000        0.068248         2
        40        20        21        43     9        0.000000        0.576275         3
        40        20        21        43     9      180.000000       -0.025914         4
        44        25        26        46     9        0.000000       -0.023964         1
        44        25        26        46     9      180.000000        0.011206         2
        44        25        26        46     9        0.000000        0.270678         3
        44        25        26        46     9      180.000000        0.028411         4
        44        25        26        47     9        0.000000       -0.023964         1
        44        25        26        47     9      180.000000        0.011206         2
        44        25        26        47     9        0.000000        0.270678         3
        44        25        26        47     9      180.000000        0.028411         4
        45        25        26        46     9        0.000000       -0.023964         1
        45        25        26        46     9      180.000000        0.011206         2
        45        25        26        46     9        0.000000        0.270678         3
        45        25        26        46     9      180.000000        0.028411         4
        45        25        26        47     9        0.000000       -0.023964         1
        45        25        26        47     9      180.000000        0.011206         2
        45        25        26        47     9        0.000000        0.270678         3
        45        25        26        47     9      180.000000        0.028411         4
        48        28        29        50     9        0.000000       -0.023962         1
        48        28        29        50     9      180.000000        0.011207         2
        48        28        29        50     9        0.000000        0.270678         3
        48        28        29        50     9      180.000000        0.028410         4
        48        28        29        51     9        0.000000       -0.023962         1
        48        28        29        51     9      180.000000        0.011207         2
        48        28        29        51     9        0.000000        0.270678         3
        48        28        29        51     9      180.000000        0.028410         4
        49        28        29        50     9        0.000000       -0.023962         1
        49        28        29        50     9      180.000000        0.011207         2
        49        28        29        50     9        0.000000        0.270678         3
        49        28        29        50     9      180.000000        0.028410         4
        49        28        29        51     9        0.000000       -0.023962         1
        49        28        29        51     9      180.000000        0.011207         2
        49        28        29        51     9        0.000000        0.270678         3
        49        28        29        51     9      180.000000        0.028410         4

[ dihedrals ] ; impropers
;       ai        aj        ak        al funct           phase               k        pn
         3         2         4        31     4      180.000000        0.247787         2
         3         4        31         2     4      180.000000        0.247787         2
         3        31         2         4     4      180.000000        0.247787         2
         8         2         7        33     4      180.000000        4.115019         2
         8         7        33         2     4      180.000000        4.115019         2
         8        33         2         7     4      180.000000        4.115019         2
        17        14        18        19     4      180.000000       13.231339         2
        17        18        19        14     4      180.000000       13.231339         2
        17        19        14        18     4      180.000000       13.231339         2
        22        20        23        24     4      180.000000        9.205954         2
        22        23        24        20     4      180.000000        9.205954         2
        22        24        20        23     4      180.000000        9.205954         2

[ pairs ]
;       ai        aj funct
         1         4     1
         1         7     1
         1        31     1
         1        33     1
         2         5     1
         2        30     1
         3         6     1
         3         7     1
         3         9     1
         3        33     1
         4         8     1
         4        10     1
         4        32     1
         5        10     1
         5        31     1
         5        33     1
         6         8     1
         6        11     1
         6        12     1
         6        13     1
         7         9     1
         7        30     1
         7        32     1
         8        31     1
         9        14     1
         9        34     1
        10        15     1
        10        17     1
        10        32     1
        10        35     1
        11        14     1
        11        30     1
        11        34     1
        12        14     1
        12        30     1
        12        34     1
        13        16     1
        13        18     1
        13        19     1
        13        30     1
        13        36     1
        13        37     1
        14        20     1
        14        38     1
        14        39     1
        15        18     1
        15        20     1
        15        34     1
        16        18     1
        16        21     1
        16        22     1
        16        35     1
        16        40     1
        17        21     1
        17        22     1
        17        34     1
        17        36     1
        17        37     1
        17        38     1
        17        39     1
        17        40     1
        18        20     1
        18        35     1
        19        23     1
        19        24     1
        19        35     1
        19        36     1
        19        37     1
        19        41     1
        19        42     1
        19        43     1
        20        25     1
        20        29     1
        20        38     1
        20        39     1
        21        23     1
        21        24     1
        22        26     1
        22        28     1
        22        41     1
        22        42     1
        22        43     1
        22        44     1
        22        45     1
        22        50     1
        22        51     1
        23        25     1
        23        29     1
        23        40     1
        24        27     1
        24        40     1
        24        46     1
        24        47     1
        24        48     1
        24        49     1
        25        28     1
        25        50     1
        25        51     1
        26        29     1
        26        48     1
        26        49     1
        27        44     1
        27        45     1
        27        50     1
        27        51     1
        28        46     1
        28        47     1
        29        44     1
        29        45     1
        30        31     1
        30        32     1
        34        35     1
        35        36     1
        35        37     1
        36        38     1
        36        39     1
        37        38     1
        37        39     1
        40        41     1
        40        42     1
        40        43     1
        44        46     1
        44        47     1
        45        46     1
        45        47     1
        48        50     1
        48        51     1
        49        50     1
        49        51     1
