; ITP file created by ByteFF-ML, 2025-12-06 08:02:43.841983

[ atomtypes ]
;name           bonded.type        at.num        mass        charge   ptype           sigma         epsilon
 cl0bf                                 17      0.0000       0.00000       A     3.46758e-01     1.10267e+00
 c1bf                                   6      0.0000       0.00000       A     3.31495e-01     4.13257e-01
 c2bf                                   6      0.0000       0.00000       A     3.31400e-01     4.12814e-01
 c3bf                                   6      0.0000       0.00000       A     3.31454e-01     4.14577e-01
 c4bf                                   6      0.0000       0.00000       A     3.31581e-01     4.14421e-01
 s5bf                                  16      0.0000       0.00000       A     3.53930e-01     1.18276e+00
 n6bf                                   7      0.0000       0.00000       A     3.38421e-01     3.91532e-01
 c7bf                                   6      0.0000       0.00000       A     3.31612e-01     4.13037e-01
 c8bf                                   6      0.0000       0.00000       A     3.31252e-01     4.11588e-01
 s9bf                                  16      0.0000       0.00000       A     4.06324e-01     2.53244e-01
 o10bf                                  8      0.0000       0.00000       A     3.05070e-01     6.11721e-01
 o11bf                                  8      0.0000       0.00000       A     3.05070e-01     6.11721e-01
 n12bf                                  7      0.0000       0.00000       A     3.50462e-01     2.20762e-01
 c13bf                                  6      0.0000       0.00000       A     3.40102e-01     4.49763e-01
 c14bf                                  6      0.0000       0.00000       A     3.39888e-01     4.51758e-01
 c15bf                                  6      0.0000       0.00000       A     3.39876e-01     4.51158e-01
 c16bf                                  6      0.0000       0.00000       A     3.31760e-01     4.12573e-01
 o17bf                                  8      0.0000       0.00000       A     3.04794e-01     6.15556e-01
 n18bf                                  7      0.0000       0.00000       A     3.18260e-01     6.88160e-01
 c19bf                                  6      0.0000       0.00000       A     3.39757e-01     4.50874e-01
 c20bf                                  6      0.0000       0.00000       A     3.39605e-01     4.49879e-01
 c21bf                                  6      0.0000       0.00000       A     3.31657e-01     4.13830e-01
 o22bf                                  8      0.0000       0.00000       A     3.04754e-01     6.13558e-01
 n23bf                                  7      0.0000       0.00000       A     3.17857e-01     6.84912e-01
 c24bf                                  6      0.0000       0.00000       A     3.39840e-01     4.50763e-01
 c25bf                                  6      0.0000       0.00000       A     3.39665e-01     4.51065e-01
 o26bf                                  8      0.0000       0.00000       A     3.15559e-01     3.02369e-01
 c27bf                                  6      0.0000       0.00000       A     3.39665e-01     4.51065e-01
 c28bf                                  6      0.0000       0.00000       A     3.39840e-01     4.50763e-01
 c29bf                                  6      0.0000       0.00000       A     3.31504e-01     4.15532e-01
 h30bf                                  1      0.0000       0.00000       A     2.62531e-01     6.73685e-02
 h31bf                                  1      0.0000       0.00000       A     2.53537e-01     6.72871e-02
 h32bf                                  1      0.0000       0.00000       A     1.10210e-01     4.06040e-02
 h33bf                                  1      0.0000       0.00000       A     2.41336e-01     8.93895e-02
 h34bf                                  1      0.0000       0.00000       A     2.59998e-01     8.72188e-02
 h35bf                                  1      0.0000       0.00000       A     2.59998e-01     8.72188e-02
 h36bf                                  1      0.0000       0.00000       A     2.42182e-01     8.67208e-02
 h37bf                                  1      0.0000       0.00000       A     2.42182e-01     8.67208e-02
 h38bf                                  1      0.0000       0.00000       A     2.42267e-01     8.78125e-02
 h39bf                                  1      0.0000       0.00000       A     2.59883e-01     8.72300e-02
 h40bf                                  1      0.0000       0.00000       A     2.59883e-01     8.72300e-02
 h41bf                                  1      0.0000       0.00000       A     2.59883e-01     8.72300e-02
 h42bf                                  1      0.0000       0.00000       A     2.42002e-01     8.70017e-02
 h43bf                                  1      0.0000       0.00000       A     2.42002e-01     8.70017e-02
 h44bf                                  1      0.0000       0.00000       A     2.42029e-01     8.74327e-02
 h45bf                                  1      0.0000       0.00000       A     2.42029e-01     8.74327e-02
 h46bf                                  1      0.0000       0.00000       A     2.42029e-01     8.74327e-02
 h47bf                                  1      0.0000       0.00000       A     2.42029e-01     8.74327e-02
 h48bf                                  1      0.0000       0.00000       A     2.42002e-01     8.70017e-02
 h49bf                                  1      0.0000       0.00000       A     2.42002e-01     8.70017e-02
 h50bf                                  1      0.0000       0.00000       A     2.62476e-01     6.72185e-02

[ moleculetype ]
;name             nrexcl
 21081_1k              3

[ atoms ]
;       nr            type      resi   res      atom      cgnr      charge          mass ; qtot
         1           cl0bf         1   UNL       cl0         1    -0.19200       35.4530 ; qtot   -0.192
         2            c1bf         1   UNL        c1         2     0.05416       12.0110 ; qtot   -0.138
         3            c2bf         1   UNL        c2         3    -0.00335       12.0110 ; qtot   -0.141
         4            c3bf         1   UNL        c3         4    -0.14074       12.0110 ; qtot   -0.282
         5            c4bf         1   UNL        c4         5     0.40452       12.0110 ; qtot    0.123
         6            s5bf         1   UNL        s5         6    -0.02713       32.0670 ; qtot    0.095
         7            n6bf         1   UNL        n6         7    -0.62183       14.0070 ; qtot   -0.526
         8            c7bf         1   UNL        c7         8     0.35734       12.0110 ; qtot   -0.169
         9            c8bf         1   UNL        c8         9    -0.24435       12.0110 ; qtot   -0.413
        10            s9bf         1   UNL        s9        10     1.11472       32.0670 ; qtot    0.701
        11           o10bf         1   UNL       o10        11    -0.51819       15.9990 ; qtot    0.183
        12           o11bf         1   UNL       o11        12    -0.51819       15.9990 ; qtot   -0.335
        13           n12bf         1   UNL       n12        13    -0.82277       14.0070 ; qtot   -1.158
        14           c13bf         1   UNL       c13        14     0.12223       12.0110 ; qtot   -1.036
        15           c14bf         1   UNL       c14        15    -0.09526       12.0110 ; qtot   -1.131
        16           c15bf         1   UNL       c15        16     0.09495       12.0110 ; qtot   -1.036
        17           c16bf         1   UNL       c16        17     0.54926       12.0110 ; qtot   -0.487
        18           o17bf         1   UNL       o17        18    -0.54655       15.9990 ; qtot   -1.033
        19           n18bf         1   UNL       n18        19    -0.40098       14.0070 ; qtot   -1.434
        20           c19bf         1   UNL       c19        20     0.05721       12.0110 ; qtot   -1.377
        21           c20bf         1   UNL       c20        21    -0.09612       12.0110 ; qtot   -1.473
        22           c21bf         1   UNL       c21        22     0.58704       12.0110 ; qtot   -0.886
        23           o22bf         1   UNL       o22        23    -0.59786       15.9990 ; qtot   -1.484
        24           n23bf         1   UNL       n23        24    -0.41249       14.0070 ; qtot   -1.896
        25           c24bf         1   UNL       c24        25     0.06521       12.0110 ; qtot   -1.831
        26           c25bf         1   UNL       c25        26     0.13811       12.0110 ; qtot   -1.693
        27           o26bf         1   UNL       o26        27    -0.45725       15.9990 ; qtot   -2.150
        28           c27bf         1   UNL       c27        28     0.13811       12.0110 ; qtot   -2.012
        29           c28bf         1   UNL       c28        29     0.06521       12.0110 ; qtot   -1.947
        30           c29bf         1   UNL       c29        30    -0.01618       12.0110 ; qtot   -1.963
        31           h30bf         1   UNL       h30        31     0.14369        1.0080 ; qtot   -1.819
        32           h31bf         1   UNL       h31        32     0.04099        1.0080 ; qtot   -1.778
        33           h32bf         1   UNL       h32        33     0.48768        1.0080 ; qtot   -1.291
        34           h33bf         1   UNL       h33        34     0.09157        1.0080 ; qtot   -1.199
        35           h34bf         1   UNL       h34        35     0.07214        1.0080 ; qtot   -1.127
        36           h35bf         1   UNL       h35        36     0.07214        1.0080 ; qtot   -1.055
        37           h36bf         1   UNL       h36        37     0.05454        1.0080 ; qtot   -1.000
        38           h37bf         1   UNL       h37        38     0.05454        1.0080 ; qtot   -0.946
        39           h38bf         1   UNL       h38        39     0.08228        1.0080 ; qtot   -0.864
        40           h39bf         1   UNL       h39        40     0.05105        1.0080 ; qtot   -0.813
        41           h40bf         1   UNL       h40        41     0.05105        1.0080 ; qtot   -0.761
        42           h41bf         1   UNL       h41        42     0.05105        1.0080 ; qtot   -0.710
        43           h42bf         1   UNL       h42        43     0.06485        1.0080 ; qtot   -0.646
        44           h43bf         1   UNL       h43        44     0.06485        1.0080 ; qtot   -0.581
        45           h44bf         1   UNL       h44        45     0.05641        1.0080 ; qtot   -0.524
        46           h45bf         1   UNL       h45        46     0.05641        1.0080 ; qtot   -0.468
        47           h46bf         1   UNL       h46        47     0.05641        1.0080 ; qtot   -0.412
        48           h47bf         1   UNL       h47        48     0.05641        1.0080 ; qtot   -0.355
        49           h48bf         1   UNL       h48        49     0.06485        1.0080 ; qtot   -0.290
        50           h49bf         1   UNL       h49        50     0.06485        1.0080 ; qtot   -0.225
        51           h50bf         1   UNL       h50        51     0.22541        1.0080 ; qtot    0.000

[ bonds ]
;       ai        aj funct               r               k
         1         2     1        0.175358   154145.082178
         2         3     1        0.138837   316873.850781
         2         8     1        0.140917   264378.287598
         3         4     1        0.140481   300075.846680
         3        31     1        0.108515   324315.083545
         4         5     1        0.142312   233769.661523
         4        30     1        0.143609   249861.590088
         5         6     1        0.175910   132865.941040
         5         7     1        0.133143   318398.978027
         6         9     1        0.175418   147342.864502
         7         8     1        0.133447   333152.506689
         8        32     1        0.108685   320156.416357
         9        10     1        0.178229   142061.075244
         9        30     1        0.136430   393324.192969
        10        11     1        0.146401   520960.759668
        10        12     1        0.146401   520960.759668
        10        13     1        0.169130   147765.759033
        13        14     1        0.146749   191880.936719
        13        33     1        0.101970   399856.508936
        14        15     1        0.153763   166543.131714
        14        17     1        0.153780   143807.341089
        14        34     1        0.109521   296269.029785
        15        16     1        0.153943   173404.046436
        15        35     1        0.109161   311817.962793
        15        36     1        0.109161   311817.962793
        16        19     1        0.146731   190108.993311
        16        37     1        0.109491   295731.831152
        16        38     1        0.109491   295731.831152
        17        18     1        0.123040   609921.067773
        17        19     1        0.135997   293600.427393
        19        20     1        0.146082   191522.676611
        20        21     1        0.153522   178794.113037
        20        22     1        0.154579   145088.563403
        20        39     1        0.109199   304154.608252
        21        40     1        0.109216   305763.446143
        21        41     1        0.109216   305763.446143
        21        42     1        0.109216   305763.446143
        22        23     1        0.123348   593715.218164
        22        24     1        0.136666   294032.796191
        24        25     1        0.146801   191022.353564
        24        29     1        0.146801   191022.353564
        25        26     1        0.152763   185011.786279
        25        43     1        0.109338   299004.896924
        25        44     1        0.109338   299004.896924
        26        27     1        0.142906   199750.452344
        26        45     1        0.109582   293226.104443
        26        46     1        0.109582   293226.104443
        27        28     1        0.142906   199750.452344
        28        29     1        0.152763   185011.786279
        28        47     1        0.109582   293226.104443
        28        48     1        0.109582   293226.104443
        29        49     1        0.109338   299004.947998
        29        50     1        0.109338   299004.947998
        30        51     1        0.108363   331255.073926

[ angles ]
;       ai        aj        ak funct           theta             cth
         1         2         3     1      120.356934      322.347111
         1         2         8     1      118.859207      390.919070
         2         3         4     1      117.129257      692.309631
         2         3        31     1      121.142990      428.263836
         2         8         7     1      122.627831      585.824034
         2         8        32     1      120.056168      419.723269
         3         2         8     1      120.812668      654.939327
         3         4         5     1      117.153709      723.104895
         3         4        30     1      130.777618      431.693917
         4         3        31     1      121.652954      422.514858
         4         5         6     1      111.675880      167.360000
         4         5         7     1      125.379761      727.235394
         4        30         9     1      111.598793      381.232621
         4        30        51     1      125.827148      368.318664
         5         4        30     1      111.937767      494.132500
         5         6         9     1       89.337410      533.913539
         5         7         8     1      116.634682      501.991035
         6         5         7     1      122.631691      403.719386
         6         9        10     1      120.948509      486.473570
         6         9        30     1      114.763107      167.360000
         7         8        32     1      117.206947      293.391604
         9        10        11     1      107.458206      589.617253
         9        10        12     1      107.458206      589.617253
         9        10        13     1      102.869827      496.069171
         9        30        51     1      122.887405      347.536054
        10         9        30     1      124.080849      398.093146
        10        13        14     1      117.957413      565.325524
        10        13        33     1      108.730614      612.583158
        11        10        12     1      121.680931      714.516446
        11        10        13     1      107.278465      659.547562
        12        10        13     1      107.278465      659.547562
        13        14        15     1      114.651184      537.641063
        13        14        17     1      109.660690      536.687380
        13        14        34     1      109.303307      452.394138
        14        13        33     1      112.736290      495.544128
        14        15        16     1      103.618835      585.422974
        14        15        35     1      110.848923      481.542993
        14        15        36     1      110.848923      481.542993
        14        17        18     1      125.132507      420.544160
        14        17        19     1      107.967346      353.379679
        15        14        17     1      103.510841      547.371787
        15        14        34     1      110.870461      433.513053
        15        16        19     1      103.270203      586.268188
        15        16        37     1      112.132156      454.176533
        15        16        38     1      112.132156      454.176533
        16        15        35     1      111.340355      481.524989
        16        15        36     1      111.340355      481.524989
        16        19        17     1      113.311218      437.943709
        16        19        20     1      122.047386      514.268798
        17        14        34     1      107.652794      517.382155
        17        19        20     1      122.368851      545.953137
        18        17        19     1      126.699257      600.468992
        19        16        37     1      110.468552      450.026433
        19        16        38     1      110.468552      450.026433
        19        20        21     1      112.462791      689.158032
        19        20        22     1      109.734154      557.845194
        19        20        39     1      105.272728      542.259577
        20        21        40     1      110.287804      499.972359
        20        21        41     1      110.287804      499.972359
        20        21        42     1      110.287804      499.972359
        20        22        23     1      119.634476      398.868868
        20        22        24     1      118.134972      452.290649
        21        20        22     1      111.384232      621.169373
        21        20        39     1      108.504562      483.302978
        22        20        39     1      108.414406      479.417763
        22        24        25     1      122.242836      522.086889
        22        24        29     1      122.242836      522.086889
        23        22        24     1      121.980515      642.918371
        24        25        26     1      109.468040      691.740408
        24        25        43     1      109.737137      455.037229
        24        25        44     1      109.737137      455.037229
        24        29        28     1      109.468040      691.740408
        24        29        49     1      109.737137      455.037229
        24        29        50     1      109.737137      455.037229
        25        24        29     1      114.681778      504.716898
        25        26        27     1      112.231979      634.459778
        25        26        45     1      109.793846      487.937804
        25        26        46     1      109.793846      487.937804
        26        25        43     1      110.007591      488.286801
        26        25        44     1      110.007591      488.286801
        26        27        28     1      112.590408      587.596246
        27        26        45     1      108.218735      463.772740
        27        26        46     1      108.218735      463.772740
        27        28        29     1      112.231979      634.459778
        27        28        47     1      108.218735      463.772708
        27        28        48     1      108.218735      463.772708
        28        29        49     1      110.007591      488.286801
        28        29        50     1      110.007591      488.286801
        29        28        47     1      109.793846      487.937804
        29        28        48     1      109.793846      487.937804
        35        15        36     1      108.513290      354.940156
        37        16        38     1      108.141113      343.643464
        40        21        41     1      108.696800      357.638183
        40        21        42     1      108.696800      357.638183
        41        21        42     1      108.696800      357.638183
        43        25        44     1      107.943542      345.985281
        45        26        46     1      108.332138      339.167192
        47        28        48     1      108.332138      339.167160
        49        29        50     1      107.943527      345.985281

[ dihedrals ] ; propers for gromacs 4.5 or higher, use funct 9
;       ai        aj        ak        al funct           phase               k        pn
         1         2         3         4     9        0.000000        0.144860         1
         1         2         3         4     9      180.000000       22.334036         2
         1         2         3         4     9        0.000000        0.207013         3
         1         2         3         4     9      180.000000       -1.096324         4
         1         2         3        31     9        0.000000        0.199400         1
         1         2         3        31     9      180.000000       14.249502         2
         1         2         3        31     9        0.000000       -0.097278         3
         1         2         3        31     9      180.000000        0.278643         4
         1         2         8         7     9        0.000000       -0.047675         1
         1         2         8         7     9      180.000000       17.645843         2
         1         2         8         7     9        0.000000        0.011698         3
         1         2         8         7     9      180.000000       -0.800406         4
         1         2         8        32     9        0.000000        0.323661         1
         1         2         8        32     9      180.000000       12.379499         2
         1         2         8        32     9        0.000000       -0.133437         3
         1         2         8        32     9      180.000000        0.253450         4
         2         3         4         5     9        0.000000       -0.277165         1
         2         3         4         5     9      180.000000       17.558403         2
         2         3         4         5     9        0.000000       -1.452224         3
         2         3         4         5     9      180.000000       -0.367202         4
         2         3         4        30     9        0.000000        0.157803         1
         2         3         4        30     9      180.000000       14.901194         2
         2         3         4        30     9        0.000000       -0.616092         3
         2         3         4        30     9      180.000000       -0.385304         4
         2         8         7         5     9        0.000000       -0.029627         1
         2         8         7         5     9      180.000000       24.377561         2
         2         8         7         5     9        0.000000       -0.614315         3
         2         8         7         5     9      180.000000       -0.347197         4
         3         2         8         7     9        0.000000       -0.020600         1
         3         2         8         7     9      180.000000       15.692346         2
         3         2         8         7     9        0.000000       -0.753776         3
         3         2         8         7     9      180.000000       -0.227160         4
         3         2         8        32     9        0.000000        0.078716         1
         3         2         8        32     9      180.000000       12.399869         2
         3         2         8        32     9        0.000000       -0.566725         3
         3         2         8        32     9      180.000000        0.077436         4
         3         4         5         6     9        0.000000        0.297859         1
         3         4         5         6     9      180.000000       12.064243         2
         3         4         5         6     9        0.000000       -0.886600         3
         3         4         5         6     9      180.000000       -0.237776         4
         3         4         5         7     9        0.000000        0.204669         1
         3         4         5         7     9      180.000000       11.805747         2
         3         4         5         7     9        0.000000       -0.702741         3
         3         4         5         7     9      180.000000       -0.139143         4
         3         4        30         9     9        0.000000       -0.015530         1
         3         4        30         9     9      180.000000        5.212753         2
         3         4        30         9     9        0.000000       -0.691367         3
         3         4        30         9     9      180.000000        0.203066         4
         3         4        30        51     9        0.000000       -0.307570         1
         3         4        30        51     9      180.000000        5.610454         2
         3         4        30        51     9        0.000000       -0.124501         3
         3         4        30        51     9      180.000000        0.107871         4
         4         3         2         8     9        0.000000       -0.069362         1
         4         3         2         8     9      180.000000       19.418328         2
         4         3         2         8     9        0.000000       -1.594317         3
         4         3         2         8     9      180.000000       -0.608429         4
         4         5         6         9     9        0.000000       -1.960375         1
         4         5         6         9     9      180.000000       21.855476         2
         4         5         6         9     9        0.000000       -3.953122         3
         4         5         6         9     9      180.000000        0.046217         4
         4         5         7         8     9        0.000000        0.215759         1
         4         5         7         8     9      180.000000       22.395333         2
         4         5         7         8     9        0.000000       -0.340625         3
         4         5         7         8     9      180.000000        0.024946         4
         4        30         9         6     9        0.000000       -0.304527         1
         4        30         9         6     9      180.000000       27.581942         2
         4        30         9         6     9        0.000000       -4.662227         3
         4        30         9         6     9      180.000000       -1.027188         4
         4        30         9        10     9        0.000000       -0.127759         1
         4        30         9        10     9      180.000000       18.546872         2
         4        30         9        10     9        0.000000       -0.020419         3
         4        30         9        10     9      180.000000       -1.180238         4
         5         4         3        31     9        0.000000        0.181061         1
         5         4         3        31     9      180.000000       12.649464         2
         5         4         3        31     9        0.000000       -0.263548         3
         5         4         3        31     9      180.000000        0.012596         4
         5         4        30         9     9        0.000000        0.234389         1
         5         4        30         9     9      180.000000       18.651191         2
         5         4        30         9     9        0.000000       -5.338103         3
         5         4        30         9     9      180.000000       -0.460241         4
         5         4        30        51     9        0.000000        1.267550         1
         5         4        30        51     9      180.000000       10.004834         2
         5         4        30        51     9        0.000000        0.397578         3
         5         4        30        51     9      180.000000       -0.101109         4
         5         6         9        10     9        0.000000        0.282948         1
         5         6         9        10     9      180.000000        9.049110         2
         5         6         9        10     9        0.000000        0.433896         3
         5         6         9        10     9      180.000000       -0.149970         4
         5         6         9        30     9        0.000000        0.670337         1
         5         6         9        30     9      180.000000       23.024260         2
         5         6         9        30     9        0.000000       -4.755186         3
         5         6         9        30     9      180.000000       -0.128351         4
         5         7         8        32     9        0.000000        1.063474         1
         5         7         8        32     9      180.000000       21.647125         2
         5         7         8        32     9        0.000000        0.284973         3
         5         7         8        32     9      180.000000       -0.371413         4
         6         5         4        30     9        0.000000        0.264678         1
         6         5         4        30     9      180.000000       16.379571         2
         6         5         4        30     9        0.000000       -2.355204         3
         6         5         4        30     9      180.000000       -0.645351         4
         6         5         7         8     9        0.000000        0.504674         1
         6         5         7         8     9      180.000000       23.056057         2
         6         5         7         8     9        0.000000        0.289763         3
         6         5         7         8     9      180.000000       -0.347924         4
         6         9        10        11     9        0.000000       -1.150462         1
         6         9        10        11     9      180.000000        0.914135         2
         6         9        10        11     9        0.000000        0.409361         3
         6         9        10        11     9      180.000000        0.112966         4
         6         9        10        12     9        0.000000       -1.150462         1
         6         9        10        12     9      180.000000        0.914135         2
         6         9        10        12     9        0.000000        0.409361         3
         6         9        10        12     9      180.000000        0.112966         4
         6         9        10        13     9        0.000000        0.154943         1
         6         9        10        13     9      180.000000        0.030947         2
         6         9        10        13     9        0.000000        1.126405         3
         6         9        10        13     9      180.000000       -0.069323         4
         6         9        30        51     9        0.000000        0.255665         1
         6         9        30        51     9      180.000000       17.170993         2
         6         9        30        51     9        0.000000       -0.163616         3
         6         9        30        51     9      180.000000       -0.638270         4
         7         5         4        30     9        0.000000        0.401682         1
         7         5         4        30     9      180.000000       12.376750         2
         7         5         4        30     9        0.000000       -0.615750         3
         7         5         4        30     9      180.000000       -0.264907         4
         7         5         6         9     9        0.000000        2.227558         1
         7         5         6         9     9      180.000000        9.513469         2
         7         5         6         9     9        0.000000        0.233698         3
         7         5         6         9     9      180.000000       -0.081316         4
         8         2         3        31     9        0.000000        0.035825         1
         8         2         3        31     9      180.000000       13.868143         2
         8         2         3        31     9        0.000000       -0.526991         3
         8         2         3        31     9      180.000000        0.102951         4
         9        10        13        14     9        0.000000       -2.387716         1
         9        10        13        14     9      180.000000       -7.720984         2
         9        10        13        14     9        0.000000        3.120594         3
         9        10        13        14     9      180.000000        0.647387         4
         9        10        13        33     9        0.000000       -8.564274         1
         9        10        13        33     9      180.000000       -5.038632         2
         9        10        13        33     9        0.000000       -0.247332         3
         9        10        13        33     9      180.000000        0.488112         4
        10         9        30        51     9        0.000000        0.436541         1
        10         9        30        51     9      180.000000       13.186835         2
        10         9        30        51     9        0.000000        0.138265         3
        10         9        30        51     9      180.000000       -0.240837         4
        10        13        14        15     9        0.000000       -2.557347         1
        10        13        14        15     9      180.000000       -0.468444         2
        10        13        14        15     9        0.000000        0.690960         3
        10        13        14        15     9      180.000000       -0.076609         4
        10        13        14        17     9        0.000000        5.444184         1
        10        13        14        17     9      180.000000       -1.249381         2
        10        13        14        17     9        0.000000        0.395653         3
        10        13        14        17     9      180.000000       -0.020579         4
        10        13        14        34     9        0.000000        1.013329         1
        10        13        14        34     9      180.000000       -0.300262         2
        10        13        14        34     9        0.000000        0.527375         3
        10        13        14        34     9      180.000000        0.117849         4
        11        10         9        30     9        0.000000        0.106480         1
        11        10         9        30     9      180.000000        0.171877         2
        11        10         9        30     9        0.000000       -0.056767         3
        11        10         9        30     9      180.000000        0.046085         4
        11        10        13        14     9        0.000000        0.930968         1
        11        10        13        14     9      180.000000        0.602147         2
        11        10        13        14     9        0.000000        1.787601         3
        11        10        13        14     9      180.000000        0.027179         4
        11        10        13        33     9        0.000000        0.600717         1
        11        10        13        33     9      180.000000       -0.003511         2
        11        10        13        33     9        0.000000       -1.083973         3
        11        10        13        33     9      180.000000       -0.167553         4
        12        10         9        30     9        0.000000        0.106480         1
        12        10         9        30     9      180.000000        0.171877         2
        12        10         9        30     9        0.000000       -0.056767         3
        12        10         9        30     9      180.000000        0.046085         4
        12        10        13        14     9        0.000000        0.930968         1
        12        10        13        14     9      180.000000        0.602147         2
        12        10        13        14     9        0.000000        1.787601         3
        12        10        13        14     9      180.000000        0.027179         4
        12        10        13        33     9        0.000000        0.600717         1
        12        10        13        33     9      180.000000       -0.003511         2
        12        10        13        33     9        0.000000       -1.083973         3
        12        10        13        33     9      180.000000       -0.167553         4
        13        10         9        30     9        0.000000        0.886834         1
        13        10         9        30     9      180.000000       -0.131072         2
        13        10         9        30     9        0.000000       -0.040052         3
        13        10         9        30     9      180.000000       -0.152840         4
        13        14        15        16     9        0.000000       -2.321121         1
        13        14        15        16     9      180.000000        0.482412         2
        13        14        15        16     9        0.000000        0.201938         3
        13        14        15        16     9      180.000000        0.054180         4
        13        14        15        35     9        0.000000        0.107068         1
        13        14        15        35     9      180.000000        0.107372         2
        13        14        15        35     9        0.000000        0.333903         3
        13        14        15        35     9      180.000000       -0.053477         4
        13        14        15        36     9        0.000000        0.107068         1
        13        14        15        36     9      180.000000        0.107372         2
        13        14        15        36     9        0.000000        0.333903         3
        13        14        15        36     9      180.000000       -0.053477         4
        13        14        17        18     9        0.000000       -0.412092         1
        13        14        17        18     9      180.000000        2.678134         2
        13        14        17        18     9        0.000000        0.086392         3
        13        14        17        18     9      180.000000        0.227349         4
        13        14        17        19     9        0.000000       -0.476622         1
        13        14        17        19     9      180.000000        3.094664         2
        13        14        17        19     9        0.000000        0.335654         3
        13        14        17        19     9      180.000000        0.266510         4
        14        15        16        19     9        0.000000       -0.038387         1
        14        15        16        19     9      180.000000        4.395980         2
        14        15        16        19     9        0.000000       -0.123564         3
        14        15        16        19     9      180.000000       -1.806881         4
        14        15        16        37     9        0.000000        0.014370         1
        14        15        16        37     9      180.000000       -0.073115         2
        14        15        16        37     9        0.000000        0.024077         3
        14        15        16        37     9      180.000000        0.124384         4
        14        15        16        38     9        0.000000        0.014370         1
        14        15        16        38     9      180.000000       -0.073115         2
        14        15        16        38     9        0.000000        0.024077         3
        14        15        16        38     9      180.000000        0.124384         4
        14        17        19        16     9        0.000000       -0.586207         1
        14        17        19        16     9      180.000000       17.846302         2
        14        17        19        16     9        0.000000       -0.107111         3
        14        17        19        16     9      180.000000       -1.517731         4
        14        17        19        20     9        0.000000        1.748479         1
        14        17        19        20     9      180.000000       10.879480         2
        14        17        19        20     9        0.000000        0.806593         3
        14        17        19        20     9      180.000000       -0.625476         4
        15        14        13        33     9        0.000000       -1.689477         1
        15        14        13        33     9      180.000000       -0.875495         2
        15        14        13        33     9        0.000000        0.099058         3
        15        14        13        33     9      180.000000       -0.157741         4
        15        14        17        18     9        0.000000        4.526654         1
        15        14        17        18     9      180.000000        4.473567         2
        15        14        17        18     9        0.000000       -0.389454         3
        15        14        17        18     9      180.000000       -0.426924         4
        15        14        17        19     9        0.000000       -0.428807         1
        15        14        17        19     9      180.000000        6.746923         2
        15        14        17        19     9        0.000000       -1.117923         3
        15        14        17        19     9      180.000000       -0.747998         4
        15        16        19        17     9        0.000000       -1.786134         1
        15        16        19        17     9      180.000000        5.578944         2
        15        16        19        17     9        0.000000       -0.334713         3
        15        16        19        17     9      180.000000       -1.019729         4
        15        16        19        20     9        0.000000       -0.982164         1
        15        16        19        20     9      180.000000        1.118137         2
        15        16        19        20     9        0.000000        0.643596         3
        15        16        19        20     9      180.000000       -0.269745         4
        16        15        14        17     9        0.000000       -1.059894         1
        16        15        14        17     9      180.000000        6.292193         2
        16        15        14        17     9        0.000000       -0.314511         3
        16        15        14        17     9      180.000000       -1.473083         4
        16        15        14        34     9        0.000000       -0.039652         1
        16        15        14        34     9      180.000000        0.136392         2
        16        15        14        34     9        0.000000        0.140459         3
        16        15        14        34     9      180.000000        0.194814         4
        16        19        17        18     9        0.000000        1.670021         1
        16        19        17        18     9      180.000000       22.709838         2
        16        19        17        18     9        0.000000        0.650788         3
        16        19        17        18     9      180.000000       -1.143129         4
        16        19        20        21     9        0.000000        1.056288         1
        16        19        20        21     9      180.000000        0.248433         2
        16        19        20        21     9        0.000000        1.020115         3
        16        19        20        21     9      180.000000        0.035708         4
        16        19        20        22     9        0.000000       -0.006752         1
        16        19        20        22     9      180.000000       -0.687001         2
        16        19        20        22     9        0.000000        0.965898         3
        16        19        20        22     9      180.000000        0.047408         4
        16        19        20        39     9        0.000000       -1.324653         1
        16        19        20        39     9      180.000000       -0.237459         2
        16        19        20        39     9        0.000000        0.923645         3
        16        19        20        39     9      180.000000       -0.060214         4
        17        14        13        33     9        0.000000        4.571780         1
        17        14        13        33     9      180.000000       -1.268762         2
        17        14        13        33     9        0.000000        0.152952         3
        17        14        13        33     9      180.000000       -0.020513         4
        17        14        15        35     9        0.000000       -0.054612         1
        17        14        15        35     9      180.000000       -0.042548         2
        17        14        15        35     9        0.000000       -0.087538         3
        17        14        15        35     9      180.000000        0.153489         4
        17        14        15        36     9        0.000000       -0.054612         1
        17        14        15        36     9      180.000000       -0.042548         2
        17        14        15        36     9        0.000000       -0.087538         3
        17        14        15        36     9      180.000000        0.153489         4
        17        19        16        37     9        0.000000        0.108553         1
        17        19        16        37     9      180.000000       -0.000440         2
        17        19        16        37     9        0.000000       -0.019981         3
        17        19        16        37     9      180.000000        0.146580         4
        17        19        16        38     9        0.000000        0.108553         1
        17        19        16        38     9      180.000000       -0.000440         2
        17        19        16        38     9        0.000000       -0.019981         3
        17        19        16        38     9      180.000000        0.146580         4
        17        19        20        21     9        0.000000        0.922000         1
        17        19        20        21     9      180.000000       -0.058052         2
        17        19        20        21     9        0.000000        0.548524         3
        17        19        20        21     9      180.000000        0.035455         4
        17        19        20        22     9        0.000000       -0.527072         1
        17        19        20        22     9      180.000000        0.559860         2
        17        19        20        22     9        0.000000       -0.136893         3
        17        19        20        22     9      180.000000        0.221963         4
        17        19        20        39     9        0.000000       -0.542437         1
        17        19        20        39     9      180.000000       -0.062984         2
        17        19        20        39     9        0.000000       -0.120263         3
        17        19        20        39     9      180.000000        0.202540         4
        18        17        14        34     9        0.000000        0.328981         1
        18        17        14        34     9      180.000000        0.440377         2
        18        17        14        34     9        0.000000       -0.229265         3
        18        17        14        34     9      180.000000        0.148233         4
        18        17        19        20     9        0.000000        1.661571         1
        18        17        19        20     9      180.000000       14.445686         2
        18        17        19        20     9        0.000000        0.543062         3
        18        17        19        20     9      180.000000       -0.577490         4
        19        16        15        35     9        0.000000       -0.019400         1
        19        16        15        35     9      180.000000        0.004663         2
        19        16        15        35     9        0.000000        0.107646         3
        19        16        15        35     9      180.000000        0.111993         4
        19        16        15        36     9        0.000000       -0.019400         1
        19        16        15        36     9      180.000000        0.004663         2
        19        16        15        36     9        0.000000        0.107646         3
        19        16        15        36     9      180.000000        0.111993         4
        19        17        14        34     9        0.000000        1.084651         1
        19        17        14        34     9      180.000000       -0.109916         2
        19        17        14        34     9        0.000000       -0.011079         3
        19        17        14        34     9      180.000000        0.625760         4
        19        20        21        40     9        0.000000        0.027932         1
        19        20        21        40     9      180.000000        0.048555         2
        19        20        21        40     9        0.000000        0.571346         3
        19        20        21        40     9      180.000000        0.019893         4
        19        20        21        41     9        0.000000        0.027932         1
        19        20        21        41     9      180.000000        0.048555         2
        19        20        21        41     9        0.000000        0.571346         3
        19        20        21        41     9      180.000000        0.019893         4
        19        20        21        42     9        0.000000        0.027932         1
        19        20        21        42     9      180.000000        0.048555         2
        19        20        21        42     9        0.000000        0.571346         3
        19        20        21        42     9      180.000000        0.019893         4
        19        20        22        23     9        0.000000       -3.403668         1
        19        20        22        23     9      180.000000        1.746720         2
        19        20        22        23     9        0.000000       -0.045864         3
        19        20        22        23     9      180.000000       -0.140913         4
        19        20        22        24     9        0.000000        1.279096         1
        19        20        22        24     9      180.000000        2.095355         2
        19        20        22        24     9        0.000000        0.014931         3
        19        20        22        24     9      180.000000       -0.193603         4
        20        19        16        37     9        0.000000       -0.030206         1
        20        19        16        37     9      180.000000       -0.404530         2
        20        19        16        37     9        0.000000        1.182118         3
        20        19        16        37     9      180.000000        0.004763         4
        20        19        16        38     9        0.000000       -0.030206         1
        20        19        16        38     9      180.000000       -0.404530         2
        20        19        16        38     9        0.000000        1.182118         3
        20        19        16        38     9      180.000000        0.004763         4
        20        22        24        25     9        0.000000        8.087900         1
        20        22        24        25     9      180.000000       10.076018         2
        20        22        24        25     9        0.000000        0.319309         3
        20        22        24        25     9      180.000000       -0.471963         4
        20        22        24        29     9        0.000000        8.087900         1
        20        22        24        29     9      180.000000       10.076019         2
        20        22        24        29     9        0.000000        0.319308         3
        20        22        24        29     9      180.000000       -0.471964         4
        21        20        22        23     9        0.000000       -0.685838         1
        21        20        22        23     9      180.000000        1.236800         2
        21        20        22        23     9        0.000000        0.098838         3
        21        20        22        23     9      180.000000        0.381403         4
        21        20        22        24     9        0.000000        0.141944         1
        21        20        22        24     9      180.000000        0.745404         2
        21        20        22        24     9        0.000000       -0.234290         3
        21        20        22        24     9      180.000000        0.174722         4
        22        20        21        40     9        0.000000        0.033524         1
        22        20        21        40     9      180.000000        0.089526         2
        22        20        21        40     9        0.000000        0.344680         3
        22        20        21        40     9      180.000000        0.003302         4
        22        20        21        41     9        0.000000        0.033524         1
        22        20        21        41     9      180.000000        0.089526         2
        22        20        21        41     9        0.000000        0.344680         3
        22        20        21        41     9      180.000000        0.003302         4
        22        20        21        42     9        0.000000        0.033524         1
        22        20        21        42     9      180.000000        0.089526         2
        22        20        21        42     9        0.000000        0.344680         3
        22        20        21        42     9      180.000000        0.003302         4
        22        24        25        26     9        0.000000        0.440908         1
        22        24        25        26     9      180.000000        0.444606         2
        22        24        25        26     9        0.000000        0.059412         3
        22        24        25        26     9      180.000000        0.206044         4
        22        24        25        43     9        0.000000       -0.028685         1
        22        24        25        43     9      180.000000       -0.001927         2
        22        24        25        43     9        0.000000        0.252664         3
        22        24        25        43     9      180.000000       -0.014307         4
        22        24        25        44     9        0.000000       -0.028685         1
        22        24        25        44     9      180.000000       -0.001927         2
        22        24        25        44     9        0.000000        0.252664         3
        22        24        25        44     9      180.000000       -0.014307         4
        22        24        29        28     9        0.000000        0.440908         1
        22        24        29        28     9      180.000000        0.444606         2
        22        24        29        28     9        0.000000        0.059412         3
        22        24        29        28     9      180.000000        0.206044         4
        22        24        29        49     9        0.000000       -0.028685         1
        22        24        29        49     9      180.000000       -0.001926         2
        22        24        29        49     9        0.000000        0.252664         3
        22        24        29        49     9      180.000000       -0.014306         4
        22        24        29        50     9        0.000000       -0.028685         1
        22        24        29        50     9      180.000000       -0.001926         2
        22        24        29        50     9        0.000000        0.252664         3
        22        24        29        50     9      180.000000       -0.014306         4
        23        22        20        39     9        0.000000        1.726652         1
        23        22        20        39     9      180.000000       -0.446051         2
        23        22        20        39     9        0.000000        0.259084         3
        23        22        20        39     9      180.000000       -0.318237         4
        23        22        24        25     9        0.000000       -0.829972         1
        23        22        24        25     9      180.000000       15.136697         2
        23        22        24        25     9        0.000000       -1.389194         3
        23        22        24        25     9      180.000000       -0.252977         4
        23        22        24        29     9        0.000000       -0.829973         1
        23        22        24        29     9      180.000000       15.136697         2
        23        22        24        29     9        0.000000       -1.389193         3
        23        22        24        29     9      180.000000       -0.252976         4
        24        22        20        39     9        0.000000       -0.568349         1
        24        22        20        39     9      180.000000       -0.182975         2
        24        22        20        39     9        0.000000       -0.162224         3
        24        22        20        39     9      180.000000       -0.005958         4
        24        25        26        27     9        0.000000        0.131837         1
        24        25        26        27     9      180.000000       -1.297547         2
        24        25        26        27     9        0.000000        0.387839         3
        24        25        26        27     9      180.000000       -0.141180         4
        24        25        26        45     9        0.000000       -0.102106         1
        24        25        26        45     9      180.000000        0.154514         2
        24        25        26        45     9        0.000000        0.456513         3
        24        25        26        45     9      180.000000        0.019598         4
        24        25        26        46     9        0.000000       -0.102106         1
        24        25        26        46     9      180.000000        0.154514         2
        24        25        26        46     9        0.000000        0.456513         3
        24        25        26        46     9      180.000000        0.019598         4
        24        29        28        27     9        0.000000        0.131838         1
        24        29        28        27     9      180.000000       -1.297547         2
        24        29        28        27     9        0.000000        0.387840         3
        24        29        28        27     9      180.000000       -0.141180         4
        24        29        28        47     9        0.000000       -0.102106         1
        24        29        28        47     9      180.000000        0.154513         2
        24        29        28        47     9        0.000000        0.456514         3
        24        29        28        47     9      180.000000        0.019598         4
        24        29        28        48     9        0.000000       -0.102106         1
        24        29        28        48     9      180.000000        0.154513         2
        24        29        28        48     9        0.000000        0.456514         3
        24        29        28        48     9      180.000000        0.019598         4
        25        24        29        28     9        0.000000       -0.005449         1
        25        24        29        28     9      180.000000       -2.867471         2
        25        24        29        28     9        0.000000        1.361352         3
        25        24        29        28     9      180.000000        0.109220         4
        25        24        29        49     9        0.000000       -0.081970         1
        25        24        29        49     9      180.000000        0.115740         2
        25        24        29        49     9        0.000000        1.147305         3
        25        24        29        49     9      180.000000       -0.023844         4
        25        24        29        50     9        0.000000       -0.081970         1
        25        24        29        50     9      180.000000        0.115740         2
        25        24        29        50     9        0.000000        1.147305         3
        25        24        29        50     9      180.000000       -0.023844         4
        25        26        27        28     9        0.000000        0.703463         1
        25        26        27        28     9      180.000000       -1.437896         2
        25        26        27        28     9        0.000000        0.641877         3
        25        26        27        28     9      180.000000        0.056741         4
        26        25        24        29     9        0.000000       -0.005450         1
        26        25        24        29     9      180.000000       -2.867471         2
        26        25        24        29     9        0.000000        1.361352         3
        26        25        24        29     9      180.000000        0.109220         4
        26        27        28        29     9        0.000000        0.703463         1
        26        27        28        29     9      180.000000       -1.437895         2
        26        27        28        29     9        0.000000        0.641877         3
        26        27        28        29     9      180.000000        0.056741         4
        26        27        28        47     9        0.000000       -0.063647         1
        26        27        28        47     9      180.000000        0.078884         2
        26        27        28        47     9        0.000000        0.431540         3
        26        27        28        47     9      180.000000       -0.001696         4
        26        27        28        48     9        0.000000       -0.063647         1
        26        27        28        48     9      180.000000        0.078884         2
        26        27        28        48     9        0.000000        0.431540         3
        26        27        28        48     9      180.000000       -0.001696         4
        27        26        25        43     9        0.000000       -0.026085         1
        27        26        25        43     9      180.000000        0.094479         2
        27        26        25        43     9        0.000000        0.296379         3
        27        26        25        43     9      180.000000        0.001937         4
        27        26        25        44     9        0.000000       -0.026085         1
        27        26        25        44     9      180.000000        0.094479         2
        27        26        25        44     9        0.000000        0.296379         3
        27        26        25        44     9      180.000000        0.001937         4
        27        28        29        49     9        0.000000       -0.026085         1
        27        28        29        49     9      180.000000        0.094480         2
        27        28        29        49     9        0.000000        0.296378         3
        27        28        29        49     9      180.000000        0.001937         4
        27        28        29        50     9        0.000000       -0.026085         1
        27        28        29        50     9      180.000000        0.094480         2
        27        28        29        50     9        0.000000        0.296378         3
        27        28        29        50     9      180.000000        0.001937         4
        28        27        26        45     9        0.000000       -0.063647         1
        28        27        26        45     9      180.000000        0.078883         2
        28        27        26        45     9        0.000000        0.431540         3
        28        27        26        45     9      180.000000       -0.001696         4
        28        27        26        46     9        0.000000       -0.063647         1
        28        27        26        46     9      180.000000        0.078883         2
        28        27        26        46     9        0.000000        0.431540         3
        28        27        26        46     9      180.000000       -0.001696         4
        29        24        25        43     9        0.000000       -0.081970         1
        29        24        25        43     9      180.000000        0.115739         2
        29        24        25        43     9        0.000000        1.147304         3
        29        24        25        43     9      180.000000       -0.023843         4
        29        24        25        44     9        0.000000       -0.081970         1
        29        24        25        44     9      180.000000        0.115739         2
        29        24        25        44     9        0.000000        1.147304         3
        29        24        25        44     9      180.000000       -0.023843         4
        30         4         3        31     9        0.000000       -0.056508         1
        30         4         3        31     9      180.000000       11.321236         2
        30         4         3        31     9        0.000000       -0.276880         3
        30         4         3        31     9      180.000000        0.012787         4
        33        13        14        34     9        0.000000       -0.804433         1
        33        13        14        34     9      180.000000       -0.767275         2
        33        13        14        34     9        0.000000        0.336928         3
        33        13        14        34     9      180.000000        0.015905         4
        34        14        15        35     9        0.000000       -0.111057         1
        34        14        15        35     9      180.000000        0.002772         2
        34        14        15        35     9        0.000000        0.368057         3
        34        14        15        35     9      180.000000       -0.073907         4
        34        14        15        36     9        0.000000       -0.111057         1
        34        14        15        36     9      180.000000        0.002772         2
        34        14        15        36     9        0.000000        0.368057         3
        34        14        15        36     9      180.000000       -0.073907         4
        35        15        16        37     9        0.000000       -0.042687         1
        35        15        16        37     9      180.000000        0.012428         2
        35        15        16        37     9        0.000000        0.280825         3
        35        15        16        37     9      180.000000       -0.016081         4
        35        15        16        38     9        0.000000       -0.042687         1
        35        15        16        38     9      180.000000        0.012428         2
        35        15        16        38     9        0.000000        0.280825         3
        35        15        16        38     9      180.000000       -0.016081         4
        36        15        16        37     9        0.000000       -0.042687         1
        36        15        16        37     9      180.000000        0.012428         2
        36        15        16        37     9        0.000000        0.280825         3
        36        15        16        37     9      180.000000       -0.016081         4
        36        15        16        38     9        0.000000       -0.042687         1
        36        15        16        38     9      180.000000        0.012428         2
        36        15        16        38     9        0.000000        0.280825         3
        36        15        16        38     9      180.000000       -0.016081         4
        39        20        21        40     9        0.000000       -0.021877         1
        39        20        21        40     9      180.000000        0.068247         2
        39        20        21        40     9        0.000000        0.576275         3
        39        20        21        40     9      180.000000       -0.025914         4
        39        20        21        41     9        0.000000       -0.021877         1
        39        20        21        41     9      180.000000        0.068247         2
        39        20        21        41     9        0.000000        0.576275         3
        39        20        21        41     9      180.000000       -0.025914         4
        39        20        21        42     9        0.000000       -0.021877         1
        39        20        21        42     9      180.000000        0.068247         2
        39        20        21        42     9        0.000000        0.576275         3
        39        20        21        42     9      180.000000       -0.025914         4
        43        25        26        45     9        0.000000       -0.023964         1
        43        25        26        45     9      180.000000        0.011206         2
        43        25        26        45     9        0.000000        0.270678         3
        43        25        26        45     9      180.000000        0.028411         4
        43        25        26        46     9        0.000000       -0.023964         1
        43        25        26        46     9      180.000000        0.011206         2
        43        25        26        46     9        0.000000        0.270678         3
        43        25        26        46     9      180.000000        0.028411         4
        44        25        26        45     9        0.000000       -0.023964         1
        44        25        26        45     9      180.000000        0.011206         2
        44        25        26        45     9        0.000000        0.270678         3
        44        25        26        45     9      180.000000        0.028411         4
        44        25        26        46     9        0.000000       -0.023964         1
        44        25        26        46     9      180.000000        0.011206         2
        44        25        26        46     9        0.000000        0.270678         3
        44        25        26        46     9      180.000000        0.028411         4
        47        28        29        49     9        0.000000       -0.023962         1
        47        28        29        49     9      180.000000        0.011207         2
        47        28        29        49     9        0.000000        0.270678         3
        47        28        29        49     9      180.000000        0.028410         4
        47        28        29        50     9        0.000000       -0.023962         1
        47        28        29        50     9      180.000000        0.011207         2
        47        28        29        50     9        0.000000        0.270678         3
        47        28        29        50     9      180.000000        0.028410         4
        48        28        29        49     9        0.000000       -0.023962         1
        48        28        29        49     9      180.000000        0.011207         2
        48        28        29        49     9        0.000000        0.270678         3
        48        28        29        49     9      180.000000        0.028410         4
        48        28        29        50     9        0.000000       -0.023962         1
        48        28        29        50     9      180.000000        0.011207         2
        48        28        29        50     9        0.000000        0.270678         3
        48        28        29        50     9      180.000000        0.028410         4

[ dihedrals ] ; impropers
;       ai        aj        ak        al funct           phase               k        pn
         3         2         4        31     4      180.000000        1.191727         2
         3         4        31         2     4      180.000000        1.191727         2
         3        31         2         4     4      180.000000        1.191727         2
         8         2         7        32     4      180.000000        3.820440         2
         8         7        32         2     4      180.000000        3.820440         2
         8        32         2         7     4      180.000000        3.820440         2
        17        14        18        19     4      180.000000       13.231339         2
        17        18        19        14     4      180.000000       13.231339         2
        17        19        14        18     4      180.000000       13.231339         2
        22        20        23        24     4      180.000000        9.205954         2
        22        23        24        20     4      180.000000        9.205954         2
        22        24        20        23     4      180.000000        9.205954         2
        30         4         9        51     4      180.000000        0.324342         2
        30         9        51         4     4      180.000000        0.324342         2
        30        51         4         9     4      180.000000        0.324342         2

[ pairs ]
;       ai        aj funct
         1         4     1
         1         7     1
         1        31     1
         1        32     1
         2         5     1
         2        30     1
         3         6     1
         3         7     1
         3         9     1
         3        32     1
         3        51     1
         4         8     1
         4        10     1
         5        10     1
         5        31     1
         5        32     1
         5        51     1
         6         8     1
         6        11     1
         6        12     1
         6        13     1
         6        51     1
         7         9     1
         7        30     1
         8        31     1
         9        14     1
         9        33     1
        10        15     1
        10        17     1
        10        34     1
        10        51     1
        11        14     1
        11        30     1
        11        33     1
        12        14     1
        12        30     1
        12        33     1
        13        16     1
        13        18     1
        13        19     1
        13        30     1
        13        35     1
        13        36     1
        14        20     1
        14        37     1
        14        38     1
        15        18     1
        15        20     1
        15        33     1
        16        18     1
        16        21     1
        16        22     1
        16        34     1
        16        39     1
        17        21     1
        17        22     1
        17        33     1
        17        35     1
        17        36     1
        17        37     1
        17        38     1
        17        39     1
        18        20     1
        18        34     1
        19        23     1
        19        24     1
        19        34     1
        19        35     1
        19        36     1
        19        40     1
        19        41     1
        19        42     1
        20        25     1
        20        29     1
        20        37     1
        20        38     1
        21        23     1
        21        24     1
        22        26     1
        22        28     1
        22        40     1
        22        41     1
        22        42     1
        22        43     1
        22        44     1
        22        49     1
        22        50     1
        23        25     1
        23        29     1
        23        39     1
        24        27     1
        24        39     1
        24        45     1
        24        46     1
        24        47     1
        24        48     1
        25        28     1
        25        49     1
        25        50     1
        26        29     1
        26        47     1
        26        48     1
        27        43     1
        27        44     1
        27        49     1
        27        50     1
        28        45     1
        28        46     1
        29        43     1
        29        44     1
        30        31     1
        33        34     1
        34        35     1
        34        36     1
        35        37     1
        35        38     1
        36        37     1
        36        38     1
        39        40     1
        39        41     1
        39        42     1
        43        45     1
        43        46     1
        44        45     1
        44        46     1
        47        49     1
        47        50     1
        48        49     1
        48        50     1
