; ITP file created by ByteFF-joint-25, 2025-07-14 11:36:23.560541

[ atomtypes ]
;name           bonded.type        at.num        mass        charge   ptype           sigma         epsilon
 c0bf                                   6      0.0000       0.00000       A     3.31514e-01     4.13409e-01    ;  uncertainty sigma = 0.000002, epsilon = 0.000641
 c1bf                                   6      0.0000       0.00000       A     3.31515e-01     4.13428e-01    ;  uncertainty sigma = 0.000009, epsilon = 0.000506
 c2bf                                   6      0.0000       0.00000       A     3.31520e-01     4.13434e-01    ;  uncertainty sigma = 0.000005, epsilon = 0.000589
 c3bf                                   6      0.0000       0.00000       A     3.31519e-01     4.13264e-01    ;  uncertainty sigma = 0.000004, epsilon = 0.000575
 c4bf                                   6      0.0000       0.00000       A     3.31521e-01     4.13399e-01    ;  uncertainty sigma = 0.000008, epsilon = 0.000603
 c5bf                                   6      0.0000       0.00000       A     3.31518e-01     4.13379e-01    ;  uncertainty sigma = 0.000008, epsilon = 0.000287
 c6bf                                   6      0.0000       0.00000       A     3.31546e-01     4.13337e-01    ;  uncertainty sigma = 0.000007, epsilon = 0.000914
 n7bf                                   7      0.0000       0.00000       A     3.38453e-01     3.93708e-01    ;  uncertainty sigma = 0.000023, epsilon = 0.000576
 n8bf                                   7      0.0000       0.00000       A     3.38410e-01     3.93741e-01    ;  uncertainty sigma = 0.000016, epsilon = 0.001215
 c9bf                                   6      0.0000       0.00000       A     3.31526e-01     4.13470e-01    ;  uncertainty sigma = 0.000016, epsilon = 0.000700
 n10bf                                  7      0.0000       0.00000       A     3.20652e-01     8.52236e-01    ;  uncertainty sigma = 0.000054, epsilon = 0.002958
 c11bf                                  6      0.0000       0.00000       A     3.39713e-01     4.50652e-01    ;  uncertainty sigma = 0.000026, epsilon = 0.001404
 c12bf                                  6      0.0000       0.00000       A     3.39779e-01     4.49718e-01    ;  uncertainty sigma = 0.000015, epsilon = 0.002118
 o13bf                                  8      0.0000       0.00000       A     3.24313e-01     3.89156e-01    ;  uncertainty sigma = 0.000010, epsilon = 0.000595
 c14bf                                  6      0.0000       0.00000       A     3.39779e-01     4.49976e-01    ;  uncertainty sigma = 0.000018, epsilon = 0.001841
 o15bf                                  8      0.0000       0.00000       A     3.24318e-01     3.89663e-01    ;  uncertainty sigma = 0.000007, epsilon = 0.000651
 c16bf                                  6      0.0000       0.00000       A     3.39813e-01     4.51725e-01    ;  uncertainty sigma = 0.000016, epsilon = 0.001146
 c17bf                                  6      0.0000       0.00000       A     3.39797e-01     4.50403e-01    ;  uncertainty sigma = 0.000017, epsilon = 0.000902
 o18bf                                  8      0.0000       0.00000       A     3.24274e-01     3.88861e-01    ;  uncertainty sigma = 0.000020, epsilon = 0.000688
 o19bf                                  8      0.0000       0.00000       A     3.15611e-01     3.03419e-01    ;  uncertainty sigma = 0.000029, epsilon = 0.002245
 c20bf                                  6      0.0000       0.00000       A     3.39781e-01     4.51054e-01    ;  uncertainty sigma = 0.000013, epsilon = 0.000917
 s21bf                                 16      0.0000       0.00000       A     3.53296e-01     1.18046e+00    ;  uncertainty sigma = 0.000030, epsilon = 0.002394
 c22bf                                  6      0.0000       0.00000       A     3.31487e-01     4.13043e-01    ;  uncertainty sigma = 0.000026, epsilon = 0.000640
 c23bf                                  6      0.0000       0.00000       A     3.31517e-01     4.13229e-01    ;  uncertainty sigma = 0.000008, epsilon = 0.000553
 c24bf                                  6      0.0000       0.00000       A     3.31524e-01     4.13304e-01    ;  uncertainty sigma = 0.000004, epsilon = 0.000505
 c25bf                                  6      0.0000       0.00000       A     3.31516e-01     4.13253e-01    ;  uncertainty sigma = 0.000004, epsilon = 0.000640
 c26bf                                  6      0.0000       0.00000       A     3.31524e-01     4.13304e-01    ;  uncertainty sigma = 0.000004, epsilon = 0.000505
 c27bf                                  6      0.0000       0.00000       A     3.31517e-01     4.13229e-01    ;  uncertainty sigma = 0.000008, epsilon = 0.000553
 h28bf                                  1      0.0000       0.00000       A     2.53615e-01     6.71853e-02    ;  uncertainty sigma = 0.000061, epsilon = 0.000866
 h29bf                                  1      0.0000       0.00000       A     2.42314e-01     8.67745e-02    ;  uncertainty sigma = 0.000097, epsilon = 0.000594
 h30bf                                  1      0.0000       0.00000       A     2.42150e-01     8.68976e-02    ;  uncertainty sigma = 0.000136, epsilon = 0.000578
 h31bf                                  1      0.0000       0.00000       A     5.37699e-02     1.94207e-02    ;  uncertainty sigma = 0.000075, epsilon = 0.001021
 h32bf                                  1      0.0000       0.00000       A     2.42148e-01     8.70400e-02    ;  uncertainty sigma = 0.000125, epsilon = 0.000654
 h33bf                                  1      0.0000       0.00000       A     5.37509e-02     1.95242e-02    ;  uncertainty sigma = 0.000059, epsilon = 0.001184
 h34bf                                  1      0.0000       0.00000       A     2.42295e-01     8.69263e-02    ;  uncertainty sigma = 0.000086, epsilon = 0.000919
 h35bf                                  1      0.0000       0.00000       A     2.42123e-01     8.66913e-02    ;  uncertainty sigma = 0.000015, epsilon = 0.000817
 h36bf                                  1      0.0000       0.00000       A     2.42123e-01     8.66913e-02    ;  uncertainty sigma = 0.000015, epsilon = 0.000817
 h37bf                                  1      0.0000       0.00000       A     5.37919e-02     1.95436e-02    ;  uncertainty sigma = 0.000077, epsilon = 0.000848
 h38bf                                  1      0.0000       0.00000       A     2.25392e-01     8.79591e-02    ;  uncertainty sigma = 0.000386, epsilon = 0.001528
 h39bf                                  1      0.0000       0.00000       A     2.62569e-01     6.71318e-02    ;  uncertainty sigma = 0.000009, epsilon = 0.000486
 h40bf                                  1      0.0000       0.00000       A     2.62564e-01     6.70918e-02    ;  uncertainty sigma = 0.000008, epsilon = 0.000519
 h41bf                                  1      0.0000       0.00000       A     2.62564e-01     6.70918e-02    ;  uncertainty sigma = 0.000008, epsilon = 0.000519
 h42bf                                  1      0.0000       0.00000       A     2.62569e-01     6.71318e-02    ;  uncertainty sigma = 0.000009, epsilon = 0.000486
 f43bf                                  9      0.0000       0.00000       A     3.03428e-01     3.47992e-01    ;  uncertainty sigma = 0.000016, epsilon = 0.000826
 c44bf                                  6      0.0000       0.00000       A     3.39773e-01     4.50878e-01    ;  uncertainty sigma = 0.000005, epsilon = 0.000421
 h45bf                                  1      0.0000       0.00000       A     2.60034e-01     8.66894e-02    ;  uncertainty sigma = 0.000006, epsilon = 0.000488
 h46bf                                  1      0.0000       0.00000       A     2.60034e-01     8.66894e-02    ;  uncertainty sigma = 0.000006, epsilon = 0.000488
 h47bf                                  1      0.0000       0.00000       A     2.60034e-01     8.66894e-02    ;  uncertainty sigma = 0.000006, epsilon = 0.000488
 h48bf                                  1      0.0000       0.00000       A     2.62558e-01     6.70264e-02    ;  uncertainty sigma = 0.000011, epsilon = 0.000445
 h49bf                                  1      0.0000       0.00000       A     2.62566e-01     6.70749e-02    ;  uncertainty sigma = 0.000008, epsilon = 0.000462
 h50bf                                  1      0.0000       0.00000       A     2.62560e-01     6.69793e-02    ;  uncertainty sigma = 0.000009, epsilon = 0.000524
 h51bf                                  1      0.0000       0.00000       A     2.62562e-01     6.70534e-02    ;  uncertainty sigma = 0.000011, epsilon = 0.000399

[ moleculetype ]
;name             nrexcl
 MOL                   3

[ atoms ]
;       nr            type      resi   res      atom      cgnr      charge          mass ; qtot
         1            c0bf         1   UNL        c0         1    -0.14723       12.0110 ; qtot   -0.147
         2            c1bf         1   UNL        c1         2    -0.08904       12.0110 ; qtot   -0.236
         3            c2bf         1   UNL        c2         3    -0.09372       12.0110 ; qtot   -0.330
         4            c3bf         1   UNL        c3         4    -0.16995       12.0110 ; qtot   -0.500
         5            c4bf         1   UNL        c4         5     0.14414       12.0110 ; qtot   -0.356
         6            c5bf         1   UNL        c5         6    -0.14035       12.0110 ; qtot   -0.496
         7            c6bf         1   UNL        c6         7     0.31737       12.0110 ; qtot   -0.179
         8            n7bf         1   UNL        n7         8    -0.34189       14.0070 ; qtot   -0.521
         9            n8bf         1   UNL        n8         9    -0.20535       14.0070 ; qtot   -0.726
        10            c9bf         1   UNL        c9        10    -0.19169       12.0110 ; qtot   -0.918
        11           n10bf         1   UNL       n10        11     0.08737       14.0070 ; qtot   -0.830
        12           c11bf         1   UNL       c11        12     0.03718       12.0110 ; qtot   -0.793
        13           c12bf         1   UNL       c12        13     0.13773       12.0110 ; qtot   -0.655
        14           o13bf         1   UNL       o13        14    -0.59205       15.9990 ; qtot   -1.247
        15           c14bf         1   UNL       c14        15     0.12846       12.0110 ; qtot   -1.119
        16           o15bf         1   UNL       o15        16    -0.59538       15.9990 ; qtot   -1.714
        17           c16bf         1   UNL       c16        17     0.09794       12.0110 ; qtot   -1.616
        18           c17bf         1   UNL       c17        18     0.13320       12.0110 ; qtot   -1.483
        19           o18bf         1   UNL       o18        19    -0.59965       15.9990 ; qtot   -2.083
        20           o19bf         1   UNL       o19        20    -0.39620       15.9990 ; qtot   -2.479
        21           c20bf         1   UNL       c20        21     0.22984       12.0110 ; qtot   -2.249
        22           s21bf         1   UNL       s21        22    -0.29369       32.0670 ; qtot   -2.543
        23           c22bf         1   UNL       c22        23     0.01270       12.0110 ; qtot   -2.530
        24           c23bf         1   UNL       c23        24    -0.09102       12.0110 ; qtot   -2.621
        25           c24bf         1   UNL       c24        25    -0.13512       12.0110 ; qtot   -2.756
        26           c25bf         1   UNL       c25        26    -0.05605       12.0110 ; qtot   -2.812
        27           c26bf         1   UNL       c26        27    -0.13512       12.0110 ; qtot   -2.948
        28           c27bf         1   UNL       c27        28    -0.09102       12.0110 ; qtot   -3.039
        29           h28bf         1   UNL       h28        29     0.19577        1.0080 ; qtot   -2.843
        30           h29bf         1   UNL       h29        30     0.09442        1.0080 ; qtot   -2.748
        31           h30bf         1   UNL       h30        31     0.07817        1.0080 ; qtot   -2.670
        32           h31bf         1   UNL       h31        32     0.42879        1.0080 ; qtot   -2.241
        33           h32bf         1   UNL       h32        33     0.07395        1.0080 ; qtot   -2.167
        34           h33bf         1   UNL       h33        34     0.42496        1.0080 ; qtot   -1.743
        35           h34bf         1   UNL       h34        35     0.07367        1.0080 ; qtot   -1.669
        36           h35bf         1   UNL       h35        36     0.05099        1.0080 ; qtot   -1.618
        37           h36bf         1   UNL       h36        37     0.05099        1.0080 ; qtot   -1.567
        38           h37bf         1   UNL       h37        38     0.41123        1.0080 ; qtot   -1.156
        39           h38bf         1   UNL       h38        39     0.08832        1.0080 ; qtot   -1.067
        40           h39bf         1   UNL       h39        40     0.14071        1.0080 ; qtot   -0.927
        41           h40bf         1   UNL       h40        41     0.13401        1.0080 ; qtot   -0.793
        42           h41bf         1   UNL       h41        42     0.13401        1.0080 ; qtot   -0.659
        43           h42bf         1   UNL       h42        43     0.14071        1.0080 ; qtot   -0.518
        44           f43bf         1   UNL       f43        44    -0.14053       18.9980 ; qtot   -0.658
        45           c44bf         1   UNL       c44        45    -0.05057       12.0110 ; qtot   -0.709
        46           h45bf         1   UNL       h45        46     0.04329        1.0080 ; qtot   -0.666
        47           h46bf         1   UNL       h46        47     0.04329        1.0080 ; qtot   -0.622
        48           h47bf         1   UNL       h47        48     0.04329        1.0080 ; qtot   -0.579
        49           h48bf         1   UNL       h48        49     0.13914        1.0080 ; qtot   -0.440
        50           h49bf         1   UNL       h49        50     0.14696        1.0080 ; qtot   -0.293
        51           h50bf         1   UNL       h50        51     0.14004        1.0080 ; qtot   -0.153
        52           h51bf         1   UNL       h51        52     0.15298        1.0080 ; qtot    0.000

[ bonds ]
;       ai        aj funct               r               k
         1         2     1        0.139282   367214.899121    ;  uncertainty r = 0.000015, k = 1.110667
         1         3     1        0.139657   373166.220313    ;  uncertainty r = 0.000013, k = 1.047123
         1        49     1        0.108801   333263.184521    ;  uncertainty r = 0.000015, k = 0.973389
         2         6     1        0.140328   348731.496875    ;  uncertainty r = 0.000058, k = 4.090791
         2        50     1        0.108689   333315.407910    ;  uncertainty r = 0.000006, k = 0.838140
         3         4     1        0.139404   379054.873437    ;  uncertainty r = 0.000023, k = 1.801860
         3        51     1        0.108756   334083.283252    ;  uncertainty r = 0.000009, k = 1.055875
         4         5     1        0.138893   353337.242236    ;  uncertainty r = 0.000035, k = 3.273070
         4        52     1        0.108788   336497.127441    ;  uncertainty r = 0.000009, k = 0.714751
         5         6     1        0.139695   338326.937939    ;  uncertainty r = 0.000035, k = 7.517752
         5        44     1        0.135615   334119.903467    ;  uncertainty r = 0.000039, k = 4.591712
         6         7     1        0.146413   275987.074463    ;  uncertainty r = 0.000120, k = 6.008729
         7         8     1        0.137937   246837.868652    ;  uncertainty r = 0.000115, k = 13.426110
         7        10     1        0.138832   438561.598926    ;  uncertainty r = 0.000065, k = 12.668626
         8         9     1        0.130451   453975.747070    ;  uncertainty r = 0.000053, k = 3.384882
         9        11     1        0.135903   233298.169873    ;  uncertainty r = 0.000149, k = 12.312535
        10        11     1        0.136044   301695.231396    ;  uncertainty r = 0.000071, k = 8.169373
        10        29     1        0.108165   343407.111719    ;  uncertainty r = 0.000034, k = 4.142487
        11        12     1        0.145237   237557.836328    ;  uncertainty r = 0.000204, k = 6.795436
        12        13     1        0.152197   188201.613843    ;  uncertainty r = 0.000192, k = 8.216347
        12        15     1        0.152242   189482.287109    ;  uncertainty r = 0.000225, k = 7.204018
        12        30     1        0.109521   308595.486035    ;  uncertainty r = 0.000060, k = 4.627269
        13        14     1        0.141112   255571.457910    ;  uncertainty r = 0.000133, k = 10.775081
        13        21     1        0.151795   195953.824756    ;  uncertainty r = 0.000220, k = 7.518907
        13        31     1        0.109646   304732.155518    ;  uncertainty r = 0.000030, k = 1.257698
        14        32     1        0.097065   447735.907617    ;  uncertainty r = 0.000022, k = 2.843500
        15        16     1        0.141577   252957.147412    ;  uncertainty r = 0.000096, k = 9.080986
        15        17     1        0.151787   194051.514404    ;  uncertainty r = 0.000051, k = 5.272028
        15        33     1        0.109666   303884.910840    ;  uncertainty r = 0.000035, k = 2.180842
        16        34     1        0.097048   450902.764551    ;  uncertainty r = 0.000018, k = 3.349293
        17        18     1        0.151618   203501.917554    ;  uncertainty r = 0.000125, k = 6.264156
        17        20     1        0.142011   234157.493604    ;  uncertainty r = 0.000263, k = 8.190043
        17        35     1        0.109922   307243.934521    ;  uncertainty r = 0.000031, k = 1.845416
        18        19     1        0.142092   261467.338037    ;  uncertainty r = 0.000062, k = 4.434858
        18        36     1        0.109761   309531.982910    ;  uncertainty r = 0.000022, k = 2.053540
        18        37     1        0.109761   309531.982910    ;  uncertainty r = 0.000022, k = 2.053540
        19        38     1        0.097013   462818.941602    ;  uncertainty r = 0.000022, k = 2.302141
        20        21     1        0.140261   232205.156055    ;  uncertainty r = 0.000298, k = 17.002598
        21        22     1        0.184466   133169.513428    ;  uncertainty r = 0.000195, k = 13.146840
        21        39     1        0.109643   309186.925488    ;  uncertainty r = 0.000063, k = 4.096350
        22        23     1        0.179121   206179.189795    ;  uncertainty r = 0.000089, k = 7.782768
        23        24     1        0.140095   360007.458594    ;  uncertainty r = 0.000063, k = 2.797086
        23        28     1        0.140095   360007.458594    ;  uncertainty r = 0.000063, k = 2.797086
        24        25     1        0.139505   367196.614551    ;  uncertainty r = 0.000029, k = 1.961353
        24        40     1        0.108793   333998.704346    ;  uncertainty r = 0.000039, k = 2.030538
        25        26     1        0.140220   353169.182520    ;  uncertainty r = 0.000028, k = 2.666792
        25        41     1        0.108868   334513.609082    ;  uncertainty r = 0.000009, k = 0.953696
        26        27     1        0.140220   353169.182520    ;  uncertainty r = 0.000028, k = 2.666792
        26        45     1        0.151054   252476.717773    ;  uncertainty r = 0.000015, k = 5.525231
        27        28     1        0.139505   367196.614551    ;  uncertainty r = 0.000029, k = 1.961353
        27        42     1        0.108868   334513.609082    ;  uncertainty r = 0.000009, k = 0.953696
        28        43     1        0.108793   333998.704346    ;  uncertainty r = 0.000039, k = 2.030538
        45        46     1        0.109534   307895.028662    ;  uncertainty r = 0.000008, k = 1.140238
        45        47     1        0.109534   307895.028662    ;  uncertainty r = 0.000008, k = 1.140228
        45        48     1        0.109534   307895.028662    ;  uncertainty r = 0.000008, k = 1.140238

[ angles ]
;       ai        aj        ak funct           theta             cth
         1         2         6     1      122.251663      524.175792    ;  uncertainty theta = 0.002285, k = 0.091808
         1         2        50     1      120.592224      290.950352    ;  uncertainty theta = 0.001079, k = 0.052676
         1         3         4     1      118.958900      523.130431    ;  uncertainty theta = 0.001644, k = 0.030104
         1         3        51     1      120.754272      285.932693    ;  uncertainty theta = 0.001631, k = 0.015760
         2         1         3     1      119.216675      515.895640    ;  uncertainty theta = 0.000756, k = 0.052237
         2         1        49     1      120.164841      286.248204    ;  uncertainty theta = 0.001601, k = 0.038903
         2         6         5     1      119.954575      395.532253    ;  uncertainty theta = 0.004616, k = 0.240671
         2         6         7     1      120.560387      425.852080    ;  uncertainty theta = 0.002925, k = 0.096256
         3         1        49     1      120.754860      288.603556    ;  uncertainty theta = 0.001441, k = 0.016122
         3         4         5     1      118.878830      483.515288    ;  uncertainty theta = 0.002160, k = 0.094220
         3         4        52     1      122.015747      281.039496    ;  uncertainty theta = 0.000742, k = 0.039679
         4         3        51     1      119.866859      284.349680    ;  uncertainty theta = 0.001550, k = 0.029756
         4         5         6     1      125.783310      371.344205    ;  uncertainty theta = 0.004436, k = 0.124261
         4         5        44     1      118.378090      536.433477    ;  uncertainty theta = 0.002925, k = 0.104960
         5         4        52     1      119.780563      276.491528    ;  uncertainty theta = 0.000803, k = 0.066108
         5         6         7     1      119.671066      397.753024    ;  uncertainty theta = 0.001968, k = 0.230758
         6         2        50     1      117.145859      270.971810    ;  uncertainty theta = 0.001598, k = 0.016748
         6         5        44     1      116.463585      501.204173    ;  uncertainty theta = 0.003075, k = 0.184066
         6         7         8     1      120.284180      404.876473    ;  uncertainty theta = 0.004843, k = 0.128912
         6         7        10     1      128.502075      333.164439    ;  uncertainty theta = 0.004439, k = 0.159219
         7         8         9     1      109.539833      977.168935    ;  uncertainty theta = 0.002307, k = 0.109063
         7        10        11     1      105.225723      745.730199    ;  uncertainty theta = 0.003021, k = 0.261678
         7        10        29     1      130.210373      218.706269    ;  uncertainty theta = 0.006544, k = 0.092421
         8         7        10     1      109.258888      804.168171    ;  uncertainty theta = 0.002303, k = 0.124570
         8         9        11     1      108.394638     1202.550525    ;  uncertainty theta = 0.001943, k = 0.089679
         9        11        10     1      108.524918      943.616749    ;  uncertainty theta = 0.002704, k = 0.099714
         9        11        12     1      115.571121      437.659513    ;  uncertainty theta = 0.003078, k = 0.204767
        10        11        12     1      122.779678      358.116110    ;  uncertainty theta = 0.003438, k = 0.094898
        11        10        29     1      118.743309      274.462828    ;  uncertainty theta = 0.002725, k = 0.113214
        11        12        13     1      108.612854      611.432839    ;  uncertainty theta = 0.006773, k = 0.151825
        11        12        15     1      108.860092      608.822563    ;  uncertainty theta = 0.005620, k = 0.122032
        11        12        30     1      105.087402      460.773119    ;  uncertainty theta = 0.003041, k = 0.158681
        12        13        14     1      109.012962      665.533844    ;  uncertainty theta = 0.006748, k = 0.200619
        12        13        21     1      108.964066      543.101919    ;  uncertainty theta = 0.001961, k = 0.150905
        12        13        31     1      107.740005      378.522080    ;  uncertainty theta = 0.003343, k = 0.116338
        12        15        16     1      109.313431      671.008872    ;  uncertainty theta = 0.003313, k = 0.184556
        12        15        17     1      109.086327      550.828810    ;  uncertainty theta = 0.003114, k = 0.083717
        12        15        33     1      107.334900      380.433118    ;  uncertainty theta = 0.003532, k = 0.100701
        13        12        15     1      109.016258      555.541747    ;  uncertainty theta = 0.004332, k = 0.211730
        13        12        30     1      107.679733      392.750942    ;  uncertainty theta = 0.002487, k = 0.068899
        13        14        32     1      107.738342      464.297017    ;  uncertainty theta = 0.001111, k = 0.064721
        13        21        20     1      109.329178      613.859822    ;  uncertainty theta = 0.003845, k = 0.207721
        13        21        22     1      109.276794      472.352762    ;  uncertainty theta = 0.003541, k = 0.185259
        13        21        39     1      109.789139      376.594411    ;  uncertainty theta = 0.003445, k = 0.064049
        14        13        21     1      108.751869      695.476934    ;  uncertainty theta = 0.004518, k = 0.195360
        14        13        31     1      108.464233      469.798604    ;  uncertainty theta = 0.000985, k = 0.059230
        15        12        30     1      107.891098      392.700028    ;  uncertainty theta = 0.001699, k = 0.068486
        15        16        34     1      107.735207      463.269914    ;  uncertainty theta = 0.000463, k = 0.071624
        15        17        18     1      110.619675      536.827451    ;  uncertainty theta = 0.003047, k = 0.044496
        15        17        20     1      108.464928      617.827076    ;  uncertainty theta = 0.003259, k = 0.135769
        15        17        35     1      107.915344      383.395997    ;  uncertainty theta = 0.002933, k = 0.008098
        16        15        17     1      108.664330      684.054888    ;  uncertainty theta = 0.003176, k = 0.109786
        16        15        33     1      108.417618      469.024606    ;  uncertainty theta = 0.000812, k = 0.043732
        17        15        33     1      108.204239      382.143370    ;  uncertainty theta = 0.002080, k = 0.061683
        17        18        19     1      110.168129      716.776224    ;  uncertainty theta = 0.001875, k = 0.128387
        17        18        36     1      107.923988      394.631623    ;  uncertainty theta = 0.001881, k = 0.054203
        17        18        37     1      107.923988      394.631623    ;  uncertainty theta = 0.001881, k = 0.054203
        17        20        21     1      109.179161      507.510722    ;  uncertainty theta = 0.006739, k = 0.158124
        18        17        20     1      105.910133      561.353674    ;  uncertainty theta = 0.003507, k = 0.091813
        18        17        35     1      108.719131      396.919716    ;  uncertainty theta = 0.003871, k = 0.046746
        18        19        38     1      107.223572      450.200245    ;  uncertainty theta = 0.001789, k = 0.036471
        19        18        36     1      108.661911      477.517993    ;  uncertainty theta = 0.000920, k = 0.032620
        19        18        37     1      108.661911      477.517993    ;  uncertainty theta = 0.000920, k = 0.032620
        20        17        35     1      107.155716      448.878476    ;  uncertainty theta = 0.002856, k = 0.118174
        20        21        22     1      108.488548      600.802060    ;  uncertainty theta = 0.005721, k = 0.267014
        20        21        39     1      107.581093      454.886975    ;  uncertainty theta = 0.003084, k = 0.162160
        21        13        31     1      108.036217      382.649643    ;  uncertainty theta = 0.001208, k = 0.065214
        21        22        23     1       98.071030      620.356080    ;  uncertainty theta = 0.003494, k = 0.101606
        22        21        39     1      106.804665      347.470743    ;  uncertainty theta = 0.004979, k = 0.169894
        22        23        24     1      122.596130      363.243706    ;  uncertainty theta = 0.004725, k = 0.050914
        22        23        28     1      122.596130      363.243706    ;  uncertainty theta = 0.004725, k = 0.050914
        23        24        25     1      119.504860      523.522298    ;  uncertainty theta = 0.001632, k = 0.071975
        23        24        40     1      120.291687      280.122011    ;  uncertainty theta = 0.002517, k = 0.047831
        23        28        27     1      119.504860      523.522298    ;  uncertainty theta = 0.001632, k = 0.071975
        23        28        43     1      120.291687      280.122011    ;  uncertainty theta = 0.002517, k = 0.047831
        24        23        28     1      119.364845      413.056966    ;  uncertainty theta = 0.002836, k = 0.076384
        24        25        26     1      121.433678      521.891019    ;  uncertainty theta = 0.001255, k = 0.060016
        24        25        41     1      119.655823      287.521580    ;  uncertainty theta = 0.001168, k = 0.024751
        25        24        40     1      120.399857      289.970493    ;  uncertainty theta = 0.001680, k = 0.045815
        25        26        27     1      118.352539      470.446065    ;  uncertainty theta = 0.001842, k = 0.119193
        25        26        45     1      120.748802      431.769794    ;  uncertainty theta = 0.001285, k = 0.023615
        26        25        41     1      119.443199      279.848828    ;  uncertainty theta = 0.001504, k = 0.086733
        26        27        28     1      121.433678      521.891019    ;  uncertainty theta = 0.001255, k = 0.060016
        26        27        42     1      119.443199      279.848828    ;  uncertainty theta = 0.001504, k = 0.086733
        26        45        46     1      109.896507      397.950585    ;  uncertainty theta = 0.001093, k = 0.021393
        26        45        47     1      109.896507      397.950585    ;  uncertainty theta = 0.001093, k = 0.021393
        26        45        48     1      109.896507      397.950585    ;  uncertainty theta = 0.001093, k = 0.021393
        27        26        45     1      120.748802      431.769794    ;  uncertainty theta = 0.001285, k = 0.023615
        27        28        43     1      120.399857      289.970493    ;  uncertainty theta = 0.001680, k = 0.045815
        28        27        42     1      119.655823      287.521580    ;  uncertainty theta = 0.001168, k = 0.024751
        36        18        37     1      107.726463      326.410991    ;  uncertainty theta = 0.001745, k = 0.070753
        46        45        47     1      106.736984      316.781394    ;  uncertainty theta = 0.000965, k = 0.019303
        46        45        48     1      106.736984      316.781394    ;  uncertainty theta = 0.000965, k = 0.019303
        47        45        48     1      106.736984      316.781394    ;  uncertainty theta = 0.000965, k = 0.019302

[ dihedrals ] ; propers for gromacs 4.5 or higher, use funct 9
;       ai        aj        ak        al funct           phase               k        pn
         1         2         6         5     9        0.000000       -0.086586         1    ;  uncertainty k = 0.186345
         1         2         6         5     9      180.000000       10.444101         2    ;  uncertainty k = 0.362196
         1         2         6         5     9        0.000000       -0.073183         3    ;  uncertainty k = 0.332105
         1         2         6         5     9      180.000000        1.150260         4    ;  uncertainty k = 0.344768
         1         2         6         7     9        0.000000        0.020630         1    ;  uncertainty k = 0.332332
         1         2         6         7     9      180.000000        9.657608         2    ;  uncertainty k = 0.283535
         1         2         6         7     9        0.000000        1.181672         3    ;  uncertainty k = 0.247415
         1         2         6         7     9      180.000000        1.630856         4    ;  uncertainty k = 0.187256
         1         3         4         5     9        0.000000       -0.117504         1    ;  uncertainty k = 0.079188
         1         3         4         5     9      180.000000       14.374421         2    ;  uncertainty k = 0.289034
         1         3         4         5     9        0.000000       -1.025248         3    ;  uncertainty k = 0.476378
         1         3         4         5     9      180.000000        0.742483         4    ;  uncertainty k = 0.190409
         1         3         4        52     9        0.000000        0.113235         1    ;  uncertainty k = 0.107827
         1         3         4        52     9      180.000000        7.629314         2    ;  uncertainty k = 0.322195
         1         3         4        52     9        0.000000        1.497261         3    ;  uncertainty k = 0.341932
         1         3         4        52     9      180.000000        1.832787         4    ;  uncertainty k = 0.172708
         2         1         3         4     9        0.000000       -0.045446         1    ;  uncertainty k = 0.034204
         2         1         3         4     9      180.000000       14.895458         2    ;  uncertainty k = 0.309392
         2         1         3         4     9        0.000000       -1.201008         3    ;  uncertainty k = 0.469763
         2         1         3         4     9      180.000000        0.542069         4    ;  uncertainty k = 0.229438
         2         1         3        51     9        0.000000        0.093888         1    ;  uncertainty k = 0.102214
         2         1         3        51     9      180.000000        7.291133         2    ;  uncertainty k = 0.328344
         2         1         3        51     9        0.000000        1.479780         3    ;  uncertainty k = 0.286574
         2         1         3        51     9      180.000000        1.760589         4    ;  uncertainty k = 0.101102
         2         6         5         4     9        0.000000       -0.082115         1    ;  uncertainty k = 0.362667
         2         6         5         4     9      180.000000        6.229340         2    ;  uncertainty k = 0.708884
         2         6         5         4     9        0.000000        0.427644         3    ;  uncertainty k = 0.318447
         2         6         5         4     9      180.000000        1.325202         4    ;  uncertainty k = 0.246612
         2         6         5        44     9        0.000000        0.173711         1    ;  uncertainty k = 0.237257
         2         6         5        44     9      180.000000        9.797499         2    ;  uncertainty k = 0.248881
         2         6         5        44     9        0.000000        1.490048         3    ;  uncertainty k = 0.277061
         2         6         5        44     9      180.000000        1.662826         4    ;  uncertainty k = 0.114444
         2         6         7         8     9        0.000000        0.676071         1    ;  uncertainty k = 0.720354
         2         6         7         8     9      180.000000        3.670753         2    ;  uncertainty k = 0.295604
         2         6         7         8     9        0.000000        0.446228         3    ;  uncertainty k = 0.150267
         2         6         7         8     9      180.000000        0.064195         4    ;  uncertainty k = 0.076074
         2         6         7        10     9        0.000000        0.088117         1    ;  uncertainty k = 0.539533
         2         6         7        10     9      180.000000        3.619054         2    ;  uncertainty k = 0.150514
         2         6         7        10     9        0.000000        1.041641         3    ;  uncertainty k = 0.189971
         2         6         7        10     9      180.000000       -0.091914         4    ;  uncertainty k = 0.085126
         3         1         2         6     9        0.000000       -0.167276         1    ;  uncertainty k = 0.158324
         3         1         2         6     9      180.000000       13.997318         2    ;  uncertainty k = 0.233488
         3         1         2         6     9        0.000000       -0.870941         3    ;  uncertainty k = 0.396013
         3         1         2         6     9      180.000000        0.708234         4    ;  uncertainty k = 0.259740
         3         1         2        50     9        0.000000        0.059255         1    ;  uncertainty k = 0.084456
         3         1         2        50     9      180.000000        7.858109         2    ;  uncertainty k = 0.203917
         3         1         2        50     9        0.000000        1.385424         3    ;  uncertainty k = 0.266686
         3         1         2        50     9      180.000000        1.852679         4    ;  uncertainty k = 0.182860
         3         4         5         6     9        0.000000        0.078245         1    ;  uncertainty k = 0.267423
         3         4         5         6     9      180.000000        8.453741         2    ;  uncertainty k = 0.325335
         3         4         5         6     9        0.000000        0.205172         3    ;  uncertainty k = 0.407195
         3         4         5         6     9      180.000000        1.268615         4    ;  uncertainty k = 0.262523
         3         4         5        44     9        0.000000       -0.010057         1    ;  uncertainty k = 0.446472
         3         4         5        44     9      180.000000       13.247759         2    ;  uncertainty k = 0.464819
         3         4         5        44     9        0.000000        1.337127         3    ;  uncertainty k = 0.271838
         3         4         5        44     9      180.000000        1.467136         4    ;  uncertainty k = 0.213341
         4         3         1        49     9        0.000000        0.083338         1    ;  uncertainty k = 0.017789
         4         3         1        49     9      180.000000        7.608976         2    ;  uncertainty k = 0.334784
         4         3         1        49     9        0.000000        1.464152         3    ;  uncertainty k = 0.299905
         4         3         1        49     9      180.000000        1.817176         4    ;  uncertainty k = 0.126311
         4         5         6         7     9        0.000000        0.064022         1    ;  uncertainty k = 0.415485
         4         5         6         7     9      180.000000        6.568897         2    ;  uncertainty k = 0.502311
         4         5         6         7     9        0.000000        1.168580         3    ;  uncertainty k = 0.187169
         4         5         6         7     9      180.000000        1.580071         4    ;  uncertainty k = 0.316732
         5         4         3        51     9        0.000000        0.024220         1    ;  uncertainty k = 0.119014
         5         4         3        51     9      180.000000        7.444909         2    ;  uncertainty k = 0.376721
         5         4         3        51     9        0.000000        1.457961         3    ;  uncertainty k = 0.299550
         5         4         3        51     9      180.000000        1.745987         4    ;  uncertainty k = 0.166627
         5         6         2        50     9        0.000000        0.097616         1    ;  uncertainty k = 0.187190
         5         6         2        50     9      180.000000        6.996991         2    ;  uncertainty k = 0.502606
         5         6         2        50     9        0.000000        1.307926         3    ;  uncertainty k = 0.310767
         5         6         2        50     9      180.000000        1.675756         4    ;  uncertainty k = 0.147627
         5         6         7         8     9        0.000000       -0.727053         1    ;  uncertainty k = 0.882947
         5         6         7         8     9      180.000000        3.539451         2    ;  uncertainty k = 0.238821
         5         6         7         8     9        0.000000        1.181470         3    ;  uncertainty k = 0.267716
         5         6         7         8     9      180.000000        0.076151         4    ;  uncertainty k = 0.162615
         5         6         7        10     9        0.000000        0.422747         1    ;  uncertainty k = 0.252883
         5         6         7        10     9      180.000000        3.302717         2    ;  uncertainty k = 0.162894
         5         6         7        10     9        0.000000        0.276332         3    ;  uncertainty k = 0.210319
         5         6         7        10     9      180.000000        0.025156         4    ;  uncertainty k = 0.116757
         6         2         1        49     9        0.000000        0.144899         1    ;  uncertainty k = 0.068679
         6         2         1        49     9      180.000000        7.565839         2    ;  uncertainty k = 0.362666
         6         2         1        49     9        0.000000        1.462728         3    ;  uncertainty k = 0.273903
         6         2         1        49     9      180.000000        1.887079         4    ;  uncertainty k = 0.073495
         6         5         4        52     9        0.000000        0.086086         1    ;  uncertainty k = 0.347922
         6         5         4        52     9      180.000000        5.543150         2    ;  uncertainty k = 0.546516
         6         5         4        52     9        0.000000        1.364734         3    ;  uncertainty k = 0.379054
         6         5         4        52     9      180.000000        1.571695         4    ;  uncertainty k = 0.168729
         6         7         8         9     9        0.000000        0.381534         1    ;  uncertainty k = 1.181850
         6         7         8         9     9      180.000000       17.365326         2    ;  uncertainty k = 0.263509
         6         7         8         9     9        0.000000        1.966719         3    ;  uncertainty k = 0.626778
         6         7         8         9     9      180.000000        1.005106         4    ;  uncertainty k = 0.343762
         6         7        10        11     9        0.000000        0.813935         1    ;  uncertainty k = 0.648626
         6         7        10        11     9      180.000000       13.699558         2    ;  uncertainty k = 0.281708
         6         7        10        11     9        0.000000        1.754889         3    ;  uncertainty k = 0.473281
         6         7        10        11     9      180.000000        0.807978         4    ;  uncertainty k = 0.307125
         6         7        10        29     9        0.000000        0.356404         1    ;  uncertainty k = 0.202575
         6         7        10        29     9      180.000000        5.976263         2    ;  uncertainty k = 0.857606
         6         7        10        29     9        0.000000        1.274438         3    ;  uncertainty k = 0.499542
         6         7        10        29     9      180.000000        0.342334         4    ;  uncertainty k = 0.087455
         7         6         2        50     9        0.000000       -0.093456         1    ;  uncertainty k = 0.374347
         7         6         2        50     9      180.000000        7.509604         2    ;  uncertainty k = 0.166297
         7         6         2        50     9        0.000000        0.860766         3    ;  uncertainty k = 0.257158
         7         6         2        50     9      180.000000        1.214466         4    ;  uncertainty k = 0.218767
         7         6         5        44     9        0.000000       -0.073149         1    ;  uncertainty k = 0.137284
         7         6         5        44     9      180.000000       11.019098         2    ;  uncertainty k = 0.282437
         7         6         5        44     9        0.000000        1.436639         3    ;  uncertainty k = 0.191861
         7         6         5        44     9      180.000000        1.435775         4    ;  uncertainty k = 0.273889
         7         8         9        11     9        0.000000       -1.418227         1    ;  uncertainty k = 1.887370
         7         8         9        11     9      180.000000       32.141584         2    ;  uncertainty k = 0.758629
         7         8         9        11     9        0.000000       -7.731124         3    ;  uncertainty k = 3.461207
         7         8         9        11     9      180.000000        2.379324         4    ;  uncertainty k = 0.503483
         7        10        11         9     9        0.000000       -0.189615         1    ;  uncertainty k = 0.828286
         7        10        11         9     9      180.000000       15.965747         2    ;  uncertainty k = 0.748284
         7        10        11         9     9        0.000000       -9.867343         3    ;  uncertainty k = 0.584900
         7        10        11         9     9      180.000000        1.428380         4    ;  uncertainty k = 0.486879
         7        10        11        12     9        0.000000        1.306432         1    ;  uncertainty k = 0.499270
         7        10        11        12     9      180.000000        9.847255         2    ;  uncertainty k = 0.593181
         7        10        11        12     9        0.000000        2.006372         3    ;  uncertainty k = 0.659545
         7        10        11        12     9      180.000000       -0.142876         4    ;  uncertainty k = 0.192158
         8         7        10        11     9        0.000000       -0.178322         1    ;  uncertainty k = 0.441228
         8         7        10        11     9      180.000000       20.400300         2    ;  uncertainty k = 0.422820
         8         7        10        11     9        0.000000      -11.763962         3    ;  uncertainty k = 0.400446
         8         7        10        11     9      180.000000        1.728404         4    ;  uncertainty k = 0.715817
         8         7        10        29     9        0.000000        0.252788         1    ;  uncertainty k = 0.641740
         8         7        10        29     9      180.000000       12.470842         2    ;  uncertainty k = 0.422380
         8         7        10        29     9        0.000000        1.553179         3    ;  uncertainty k = 0.375508
         8         7        10        29     9      180.000000        0.731664         4    ;  uncertainty k = 0.319196
         8         9        11        10     9        0.000000       -0.010681         1    ;  uncertainty k = 0.579369
         8         9        11        10     9      180.000000       21.783047         2    ;  uncertainty k = 0.255519
         8         9        11        10     9        0.000000       -8.981792         3    ;  uncertainty k = 1.571828
         8         9        11        10     9      180.000000        1.705769         4    ;  uncertainty k = 0.459855
         8         9        11        12     9        0.000000        0.046539         1    ;  uncertainty k = 1.558790
         8         9        11        12     9      180.000000       20.145280         2    ;  uncertainty k = 0.166750
         8         9        11        12     9        0.000000        2.020692         3    ;  uncertainty k = 0.828891
         8         9        11        12     9      180.000000        0.023148         4    ;  uncertainty k = 0.169289
         9         8         7        10     9        0.000000       -0.059216         1    ;  uncertainty k = 0.485914
         9         8         7        10     9      180.000000       18.013426         2    ;  uncertainty k = 0.659094
         9         8         7        10     9        0.000000       -6.946483         3    ;  uncertainty k = 0.612263
         9         8         7        10     9      180.000000        2.161504         4    ;  uncertainty k = 0.278325
         9        11        10        29     9        0.000000        1.294514         1    ;  uncertainty k = 0.806754
         9        11        10        29     9      180.000000       12.319304         2    ;  uncertainty k = 0.712196
         9        11        10        29     9        0.000000        1.476613         3    ;  uncertainty k = 0.326657
         9        11        10        29     9      180.000000        0.104848         4    ;  uncertainty k = 0.250432
         9        11        12        13     9        0.000000       -0.009105         1    ;  uncertainty k = 0.692244
         9        11        12        13     9      180.000000        0.066711         2    ;  uncertainty k = 0.246017
         9        11        12        13     9        0.000000        0.312028         3    ;  uncertainty k = 0.123630
         9        11        12        13     9      180.000000        0.103161         4    ;  uncertainty k = 0.076901
         9        11        12        15     9        0.000000       -0.106158         1    ;  uncertainty k = 0.777761
         9        11        12        15     9      180.000000        0.064579         2    ;  uncertainty k = 0.226843
         9        11        12        15     9        0.000000        0.308178         3    ;  uncertainty k = 0.149986
         9        11        12        15     9      180.000000        0.113248         4    ;  uncertainty k = 0.070341
         9        11        12        30     9        0.000000        0.714307         1    ;  uncertainty k = 0.983851
         9        11        12        30     9      180.000000        0.364247         2    ;  uncertainty k = 0.290736
         9        11        12        30     9        0.000000        0.522046         3    ;  uncertainty k = 0.247879
         9        11        12        30     9      180.000000        0.241460         4    ;  uncertainty k = 0.108131
        10        11        12        13     9        0.000000       -0.131293         1    ;  uncertainty k = 0.866539
        10        11        12        13     9      180.000000        0.211705         2    ;  uncertainty k = 0.285274
        10        11        12        13     9        0.000000        0.658187         3    ;  uncertainty k = 0.198919
        10        11        12        13     9      180.000000        0.152776         4    ;  uncertainty k = 0.158200
        10        11        12        15     9        0.000000       -0.122866         1    ;  uncertainty k = 0.837379
        10        11        12        15     9      180.000000        0.213025         2    ;  uncertainty k = 0.244116
        10        11        12        15     9        0.000000        0.658995         3    ;  uncertainty k = 0.186646
        10        11        12        15     9      180.000000        0.154584         4    ;  uncertainty k = 0.156877
        10        11        12        30     9        0.000000       -1.571346         1    ;  uncertainty k = 0.636047
        10        11        12        30     9      180.000000        0.305997         2    ;  uncertainty k = 0.449703
        10        11        12        30     9        0.000000        0.752323         3    ;  uncertainty k = 0.278587
        10        11        12        30     9      180.000000        0.201775         4    ;  uncertainty k = 0.035156
        11        12        13        14     9        0.000000       -0.147358         1    ;  uncertainty k = 0.797265
        11        12        13        14     9      180.000000       -1.698827         2    ;  uncertainty k = 0.980893
        11        12        13        14     9        0.000000        1.227299         3    ;  uncertainty k = 0.349651
        11        12        13        14     9      180.000000        0.166080         4    ;  uncertainty k = 0.174093
        11        12        13        21     9        0.000000       -2.016394         1    ;  uncertainty k = 1.590031
        11        12        13        21     9      180.000000        0.086928         2    ;  uncertainty k = 0.816425
        11        12        13        21     9        0.000000        0.341197         3    ;  uncertainty k = 0.189461
        11        12        13        21     9      180.000000        0.048646         4    ;  uncertainty k = 0.109494
        11        12        13        31     9        0.000000        2.337077         1    ;  uncertainty k = 0.931591
        11        12        13        31     9      180.000000       -1.235715         2    ;  uncertainty k = 0.658162
        11        12        13        31     9        0.000000        0.372495         3    ;  uncertainty k = 0.191479
        11        12        13        31     9      180.000000       -0.062935         4    ;  uncertainty k = 0.197249
        11        12        15        16     9        0.000000       -0.347792         1    ;  uncertainty k = 1.034762
        11        12        15        16     9      180.000000       -1.789150         2    ;  uncertainty k = 0.958867
        11        12        15        16     9        0.000000        1.275832         3    ;  uncertainty k = 0.359262
        11        12        15        16     9      180.000000        0.170499         4    ;  uncertainty k = 0.181086
        11        12        15        17     9        0.000000       -2.542908         1    ;  uncertainty k = 1.256796
        11        12        15        17     9      180.000000        0.379972         2    ;  uncertainty k = 0.786625
        11        12        15        17     9        0.000000        0.405235         3    ;  uncertainty k = 0.173097
        11        12        15        17     9      180.000000        0.013644         4    ;  uncertainty k = 0.156073
        11        12        15        33     9        0.000000        2.403955         1    ;  uncertainty k = 0.872134
        11        12        15        33     9      180.000000       -1.306092         2    ;  uncertainty k = 0.681026
        11        12        15        33     9        0.000000        0.349530         3    ;  uncertainty k = 0.202678
        11        12        15        33     9      180.000000       -0.059130         4    ;  uncertainty k = 0.195345
        12        11        10        29     9        0.000000       -0.163340         1    ;  uncertainty k = 0.447335
        12        11        10        29     9      180.000000        3.556488         2    ;  uncertainty k = 0.414107
        12        11        10        29     9        0.000000        1.139767         3    ;  uncertainty k = 0.421565
        12        11        10        29     9      180.000000        0.057035         4    ;  uncertainty k = 0.192864
        12        13        14        32     9        0.000000       19.044279         1    ;  uncertainty k = 0.344640
        12        13        14        32     9      180.000000       -4.420536         2    ;  uncertainty k = 0.691287
        12        13        14        32     9        0.000000        1.320106         3    ;  uncertainty k = 0.147243
        12        13        14        32     9      180.000000        0.341335         4    ;  uncertainty k = 0.134615
        12        13        21        20     9        0.000000        2.476190         1    ;  uncertainty k = 1.472552
        12        13        21        20     9      180.000000       -0.994219         2    ;  uncertainty k = 0.524314
        12        13        21        20     9        0.000000        0.317990         3    ;  uncertainty k = 0.156301
        12        13        21        20     9      180.000000       -0.304493         4    ;  uncertainty k = 0.208551
        12        13        21        22     9        0.000000        4.940144         1    ;  uncertainty k = 2.504019
        12        13        21        22     9      180.000000       -2.238992         2    ;  uncertainty k = 1.274267
        12        13        21        22     9        0.000000       -0.074955         3    ;  uncertainty k = 0.452027
        12        13        21        22     9      180.000000        0.245914         4    ;  uncertainty k = 0.382620
        12        13        21        39     9        0.000000        1.847884         1    ;  uncertainty k = 1.045974
        12        13        21        39     9      180.000000       -1.923607         2    ;  uncertainty k = 0.722349
        12        13        21        39     9        0.000000       -0.575999         3    ;  uncertainty k = 0.258125
        12        13        21        39     9      180.000000       -0.003987         4    ;  uncertainty k = 0.220980
        12        15        16        34     9        0.000000       18.958064         1    ;  uncertainty k = 0.310976
        12        15        16        34     9      180.000000       -4.586035         2    ;  uncertainty k = 0.581125
        12        15        16        34     9        0.000000        1.334176         3    ;  uncertainty k = 0.130127
        12        15        16        34     9      180.000000        0.345473         4    ;  uncertainty k = 0.145001
        12        15        17        18     9        0.000000       -1.308231         1    ;  uncertainty k = 0.869332
        12        15        17        18     9      180.000000        0.094018         2    ;  uncertainty k = 0.478296
        12        15        17        18     9        0.000000       -0.367923         3    ;  uncertainty k = 0.241802
        12        15        17        18     9      180.000000       -0.399938         4    ;  uncertainty k = 0.145659
        12        15        17        20     9        0.000000        3.553061         1    ;  uncertainty k = 0.895519
        12        15        17        20     9      180.000000       -2.208702         2    ;  uncertainty k = 0.359186
        12        15        17        20     9        0.000000        0.326549         3    ;  uncertainty k = 0.294440
        12        15        17        20     9      180.000000       -0.285750         4    ;  uncertainty k = 0.285027
        12        15        17        35     9        0.000000        2.036427         1    ;  uncertainty k = 1.131719
        12        15        17        35     9      180.000000       -2.349776         2    ;  uncertainty k = 0.563042
        12        15        17        35     9        0.000000       -0.763005         3    ;  uncertainty k = 0.211769
        12        15        17        35     9      180.000000        0.143621         4    ;  uncertainty k = 0.154913
        13        12        15        16     9        0.000000       -3.448269         1    ;  uncertainty k = 1.266604
        13        12        15        16     9      180.000000        0.305704         2    ;  uncertainty k = 0.570105
        13        12        15        16     9        0.000000        0.393945         3    ;  uncertainty k = 0.364929
        13        12        15        16     9      180.000000        0.151720         4    ;  uncertainty k = 0.175027
        13        12        15        17     9        0.000000        0.874429         1    ;  uncertainty k = 2.283968
        13        12        15        17     9      180.000000       -0.220719         2    ;  uncertainty k = 1.293880
        13        12        15        17     9        0.000000       -0.343897         3    ;  uncertainty k = 0.575670
        13        12        15        17     9      180.000000       -1.183033         4    ;  uncertainty k = 0.285774
        13        12        15        33     9        0.000000       -0.713932         1    ;  uncertainty k = 0.769816
        13        12        15        33     9      180.000000       -0.384863         2    ;  uncertainty k = 0.311310
        13        12        15        33     9        0.000000       -0.334372         3    ;  uncertainty k = 0.125597
        13        12        15        33     9      180.000000       -0.140088         4    ;  uncertainty k = 0.056708
        13        21        20        17     9        0.000000        0.917470         1    ;  uncertainty k = 0.954609
        13        21        20        17     9      180.000000       -1.288452         2    ;  uncertainty k = 0.653278
        13        21        20        17     9        0.000000       -0.220560         3    ;  uncertainty k = 0.269291
        13        21        20        17     9      180.000000        0.068427         4    ;  uncertainty k = 0.310172
        13        21        22        23     9        0.000000        2.007748         1    ;  uncertainty k = 1.077285
        13        21        22        23     9      180.000000       -1.565577         2    ;  uncertainty k = 0.676593
        13        21        22        23     9        0.000000        0.919131         3    ;  uncertainty k = 0.274750
        13        21        22        23     9      180.000000        0.227517         4    ;  uncertainty k = 0.084913
        14        13        12        15     9        0.000000       -3.578282         1    ;  uncertainty k = 1.035681
        14        13        12        15     9      180.000000        0.410067         2    ;  uncertainty k = 0.568989
        14        13        12        15     9        0.000000        0.367593         3    ;  uncertainty k = 0.369072
        14        13        12        15     9      180.000000        0.155951         4    ;  uncertainty k = 0.234608
        14        13        12        30     9        0.000000       -0.277446         1    ;  uncertainty k = 0.257119
        14        13        12        30     9      180.000000       -0.078068         2    ;  uncertainty k = 0.367591
        14        13        12        30     9        0.000000        0.607389         3    ;  uncertainty k = 0.240198
        14        13        12        30     9      180.000000       -0.047773         4    ;  uncertainty k = 0.122692
        14        13        21        20     9        0.000000       -2.698621         1    ;  uncertainty k = 1.293589
        14        13        21        20     9      180.000000       -0.125900         2    ;  uncertainty k = 1.044604
        14        13        21        20     9        0.000000        1.801831         3    ;  uncertainty k = 0.166031
        14        13        21        20     9      180.000000       -0.136263         4    ;  uncertainty k = 0.170447
        14        13        21        22     9        0.000000        5.310159         1    ;  uncertainty k = 0.577732
        14        13        21        22     9      180.000000       -1.858820         2    ;  uncertainty k = 0.847232
        14        13        21        22     9        0.000000        1.450881         3    ;  uncertainty k = 0.493019
        14        13        21        22     9      180.000000        0.366462         4    ;  uncertainty k = 0.119783
        14        13        21        39     9        0.000000       -0.793494         1    ;  uncertainty k = 0.377453
        14        13        21        39     9      180.000000        0.444309         2    ;  uncertainty k = 0.325823
        14        13        21        39     9        0.000000        0.779019         3    ;  uncertainty k = 0.275482
        14        13        21        39     9      180.000000       -0.005974         4    ;  uncertainty k = 0.167622
        15        12        13        21     9        0.000000        1.882885         1    ;  uncertainty k = 3.197102
        15        12        13        21     9      180.000000       -0.079189         2    ;  uncertainty k = 1.467430
        15        12        13        21     9        0.000000       -0.301895         3    ;  uncertainty k = 0.422850
        15        12        13        21     9      180.000000       -1.165809         4    ;  uncertainty k = 0.225366
        15        12        13        31     9        0.000000       -0.661686         1    ;  uncertainty k = 0.822951
        15        12        13        31     9      180.000000       -0.334970         2    ;  uncertainty k = 0.296578
        15        12        13        31     9        0.000000       -0.318884         3    ;  uncertainty k = 0.088763
        15        12        13        31     9      180.000000       -0.125217         4    ;  uncertainty k = 0.064688
        15        17        18        19     9        0.000000       -3.500645         1    ;  uncertainty k = 0.864914
        15        17        18        19     9      180.000000       -0.040227         2    ;  uncertainty k = 0.302685
        15        17        18        19     9        0.000000        1.496269         3    ;  uncertainty k = 0.173304
        15        17        18        19     9      180.000000       -0.330862         4    ;  uncertainty k = 0.160910
        15        17        18        36     9        0.000000       -0.389752         1    ;  uncertainty k = 0.566702
        15        17        18        36     9      180.000000       -0.633416         2    ;  uncertainty k = 0.206369
        15        17        18        36     9        0.000000        0.100397         3    ;  uncertainty k = 0.128757
        15        17        18        36     9      180.000000       -0.241270         4    ;  uncertainty k = 0.092306
        15        17        18        37     9        0.000000       -0.389752         1    ;  uncertainty k = 0.566702
        15        17        18        37     9      180.000000       -0.633416         2    ;  uncertainty k = 0.206369
        15        17        18        37     9        0.000000        0.100397         3    ;  uncertainty k = 0.128757
        15        17        18        37     9      180.000000       -0.241270         4    ;  uncertainty k = 0.092306
        15        17        20        21     9        0.000000        1.710819         1    ;  uncertainty k = 1.967719
        15        17        20        21     9      180.000000       -2.820808         2    ;  uncertainty k = 0.590799
        15        17        20        21     9        0.000000       -0.265511         3    ;  uncertainty k = 0.316061
        15        17        20        21     9      180.000000        0.030797         4    ;  uncertainty k = 0.180924
        16        15        12        30     9        0.000000       -0.321265         1    ;  uncertainty k = 0.177617
        16        15        12        30     9      180.000000       -0.103056         2    ;  uncertainty k = 0.359919
        16        15        12        30     9        0.000000        0.594651         3    ;  uncertainty k = 0.215430
        16        15        12        30     9      180.000000       -0.061306         4    ;  uncertainty k = 0.114212
        16        15        17        18     9        0.000000       -2.146249         1    ;  uncertainty k = 0.952515
        16        15        17        18     9      180.000000        0.106301         2    ;  uncertainty k = 0.229016
        16        15        17        18     9        0.000000        0.807370         3    ;  uncertainty k = 0.172859
        16        15        17        18     9      180.000000       -0.255912         4    ;  uncertainty k = 0.234311
        16        15        17        20     9        0.000000       -3.683487         1    ;  uncertainty k = 1.032183
        16        15        17        20     9      180.000000       -0.908155         2    ;  uncertainty k = 0.571417
        16        15        17        20     9        0.000000        2.093692         3    ;  uncertainty k = 0.314978
        16        15        17        20     9      180.000000       -0.114035         4    ;  uncertainty k = 0.099391
        16        15        17        35     9        0.000000       -0.332347         1    ;  uncertainty k = 0.439850
        16        15        17        35     9      180.000000       -0.000255         2    ;  uncertainty k = 0.271243
        16        15        17        35     9        0.000000        0.580127         3    ;  uncertainty k = 0.193597
        16        15        17        35     9      180.000000       -0.095134         4    ;  uncertainty k = 0.183032
        17        15        12        30     9        0.000000       -1.471971         1    ;  uncertainty k = 0.757751
        17        15        12        30     9      180.000000       -0.387765         2    ;  uncertainty k = 0.427985
        17        15        12        30     9        0.000000       -0.386106         3    ;  uncertainty k = 0.127911
        17        15        12        30     9      180.000000       -0.123242         4    ;  uncertainty k = 0.108983
        17        15        16        34     9        0.000000       18.553540         1    ;  uncertainty k = 0.350139
        17        15        16        34     9      180.000000       -4.302102         2    ;  uncertainty k = 0.320512
        17        15        16        34     9        0.000000        1.261962         3    ;  uncertainty k = 0.099603
        17        15        16        34     9      180.000000        0.432553         4    ;  uncertainty k = 0.084339
        17        18        19        38     9        0.000000       12.803371         1    ;  uncertainty k = 0.176801
        17        18        19        38     9      180.000000       -4.408763         2    ;  uncertainty k = 0.479248
        17        18        19        38     9        0.000000        1.225569         3    ;  uncertainty k = 0.219872
        17        18        19        38     9      180.000000        0.130954         4    ;  uncertainty k = 0.066305
        17        20        21        22     9        0.000000       -2.926971         1    ;  uncertainty k = 3.130055
        17        20        21        22     9      180.000000       -2.564676         2    ;  uncertainty k = 1.420082
        17        20        21        22     9        0.000000        0.716063         3    ;  uncertainty k = 0.197310
        17        20        21        22     9      180.000000       -0.095130         4    ;  uncertainty k = 0.349354
        17        20        21        39     9        0.000000       -1.916764         1    ;  uncertainty k = 0.747113
        17        20        21        39     9      180.000000        0.286798         2    ;  uncertainty k = 0.756983
        17        20        21        39     9        0.000000        0.238864         3    ;  uncertainty k = 0.128323
        17        20        21        39     9      180.000000       -0.367195         4    ;  uncertainty k = 0.168117
        18        17        15        33     9        0.000000       -1.151783         1    ;  uncertainty k = 0.623435
        18        17        15        33     9      180.000000        0.138239         2    ;  uncertainty k = 0.201798
        18        17        15        33     9        0.000000       -0.215346         3    ;  uncertainty k = 0.154972
        18        17        15        33     9      180.000000       -0.318334         4    ;  uncertainty k = 0.121552
        18        17        20        21     9        0.000000       -4.857638         1    ;  uncertainty k = 1.137696
        18        17        20        21     9      180.000000        0.917053         2    ;  uncertainty k = 0.617072
        18        17        20        21     9        0.000000        0.320186         3    ;  uncertainty k = 0.288726
        18        17        20        21     9      180.000000       -0.125902         4    ;  uncertainty k = 0.250358
        19        18        17        20     9        0.000000       -1.195280         1    ;  uncertainty k = 0.547640
        19        18        17        20     9      180.000000       -3.298099         2    ;  uncertainty k = 0.199322
        19        18        17        20     9        0.000000        2.717044         3    ;  uncertainty k = 0.305228
        19        18        17        20     9      180.000000       -0.208307         4    ;  uncertainty k = 0.128814
        19        18        17        35     9        0.000000       -2.028010         1    ;  uncertainty k = 0.722924
        19        18        17        35     9      180.000000        0.685399         2    ;  uncertainty k = 0.313942
        19        18        17        35     9        0.000000        1.166981         3    ;  uncertainty k = 0.311765
        19        18        17        35     9      180.000000       -0.195732         4    ;  uncertainty k = 0.045240
        20        17        15        33     9        0.000000       -0.095707         1    ;  uncertainty k = 0.475472
        20        17        15        33     9      180.000000       -0.600072         2    ;  uncertainty k = 0.320846
        20        17        15        33     9        0.000000        0.248942         3    ;  uncertainty k = 0.333119
        20        17        15        33     9      180.000000        0.105109         4    ;  uncertainty k = 0.089467
        20        17        18        36     9        0.000000        0.526900         1    ;  uncertainty k = 0.329165
        20        17        18        36     9      180.000000       -1.466090         2    ;  uncertainty k = 0.305903
        20        17        18        36     9        0.000000        0.270792         3    ;  uncertainty k = 0.233657
        20        17        18        36     9      180.000000       -0.091616         4    ;  uncertainty k = 0.101291
        20        17        18        37     9        0.000000        0.526900         1    ;  uncertainty k = 0.329165
        20        17        18        37     9      180.000000       -1.466090         2    ;  uncertainty k = 0.305903
        20        17        18        37     9        0.000000        0.270792         3    ;  uncertainty k = 0.233657
        20        17        18        37     9      180.000000       -0.091616         4    ;  uncertainty k = 0.101291
        20        21        13        31     9        0.000000       -0.162108         1    ;  uncertainty k = 0.690391
        20        21        13        31     9      180.000000       -0.679322         2    ;  uncertainty k = 0.276900
        20        21        13        31     9        0.000000        0.226951         3    ;  uncertainty k = 0.338395
        20        21        13        31     9      180.000000        0.125752         4    ;  uncertainty k = 0.152593
        20        21        22        23     9        0.000000        3.183562         1    ;  uncertainty k = 0.884859
        20        21        22        23     9      180.000000       -5.436577         2    ;  uncertainty k = 0.699848
        20        21        22        23     9        0.000000        1.259612         3    ;  uncertainty k = 0.434034
        20        21        22        23     9      180.000000        0.368477         4    ;  uncertainty k = 0.291496
        21        13        12        30     9        0.000000       -1.226265         1    ;  uncertainty k = 0.720609
        21        13        12        30     9      180.000000       -0.617388         2    ;  uncertainty k = 0.393468
        21        13        12        30     9        0.000000       -0.401093         3    ;  uncertainty k = 0.103574
        21        13        12        30     9      180.000000       -0.116608         4    ;  uncertainty k = 0.090880
        21        13        14        32     9        0.000000       18.425671         1    ;  uncertainty k = 0.339412
        21        13        14        32     9      180.000000       -4.642088         2    ;  uncertainty k = 0.438829
        21        13        14        32     9        0.000000        1.143722         3    ;  uncertainty k = 0.149175
        21        13        14        32     9      180.000000        0.382008         4    ;  uncertainty k = 0.101401
        21        20        17        35     9        0.000000       -2.121900         1    ;  uncertainty k = 0.521152
        21        20        17        35     9      180.000000       -1.268057         2    ;  uncertainty k = 0.577886
        21        20        17        35     9        0.000000        0.231856         3    ;  uncertainty k = 0.127960
        21        20        17        35     9      180.000000       -0.237800         4    ;  uncertainty k = 0.180440
        21        22        23        24     9        0.000000        3.177932         1    ;  uncertainty k = 2.151279
        21        22        23        24     9      180.000000        2.740787         2    ;  uncertainty k = 0.263278
        21        22        23        24     9        0.000000        0.277594         3    ;  uncertainty k = 0.291896
        21        22        23        24     9      180.000000        0.328068         4    ;  uncertainty k = 0.080835
        21        22        23        28     9        0.000000        3.177932         1    ;  uncertainty k = 2.151279
        21        22        23        28     9      180.000000        2.740787         2    ;  uncertainty k = 0.263278
        21        22        23        28     9        0.000000        0.277594         3    ;  uncertainty k = 0.291896
        21        22        23        28     9      180.000000        0.328068         4    ;  uncertainty k = 0.080835
        22        21        13        31     9        0.000000        2.581950         1    ;  uncertainty k = 0.784321
        22        21        13        31     9      180.000000       -1.367223         2    ;  uncertainty k = 0.615574
        22        21        13        31     9        0.000000        0.413421         3    ;  uncertainty k = 0.158680
        22        21        13        31     9      180.000000       -0.024784         4    ;  uncertainty k = 0.117766
        22        23        24        25     9        0.000000        0.062072         1    ;  uncertainty k = 0.417313
        22        23        24        25     9      180.000000        7.419842         2    ;  uncertainty k = 0.519111
        22        23        24        25     9        0.000000        1.109992         3    ;  uncertainty k = 0.330811
        22        23        24        25     9      180.000000        1.700873         4    ;  uncertainty k = 0.103413
        22        23        24        40     9        0.000000       -0.324403         1    ;  uncertainty k = 0.406827
        22        23        24        40     9      180.000000        6.518985         2    ;  uncertainty k = 0.532134
        22        23        24        40     9        0.000000        0.789417         3    ;  uncertainty k = 0.187425
        22        23        24        40     9      180.000000        1.036678         4    ;  uncertainty k = 0.126625
        22        23        28        27     9        0.000000        0.062072         1    ;  uncertainty k = 0.417313
        22        23        28        27     9      180.000000        7.419842         2    ;  uncertainty k = 0.519111
        22        23        28        27     9        0.000000        1.109992         3    ;  uncertainty k = 0.330811
        22        23        28        27     9      180.000000        1.700873         4    ;  uncertainty k = 0.103413
        22        23        28        43     9        0.000000       -0.324403         1    ;  uncertainty k = 0.406827
        22        23        28        43     9      180.000000        6.518985         2    ;  uncertainty k = 0.532134
        22        23        28        43     9        0.000000        0.789417         3    ;  uncertainty k = 0.187425
        22        23        28        43     9      180.000000        1.036678         4    ;  uncertainty k = 0.126625
        23        22        21        39     9        0.000000        4.078705         1    ;  uncertainty k = 1.076481
        23        22        21        39     9      180.000000       -2.455779         2    ;  uncertainty k = 0.835987
        23        22        21        39     9        0.000000        0.554515         3    ;  uncertainty k = 0.127842
        23        22        21        39     9      180.000000       -0.001864         4    ;  uncertainty k = 0.210606
        23        24        25        26     9        0.000000       -0.127263         1    ;  uncertainty k = 0.141698
        23        24        25        26     9      180.000000       14.225482         2    ;  uncertainty k = 0.114156
        23        24        25        26     9        0.000000       -0.985336         3    ;  uncertainty k = 0.627196
        23        24        25        26     9      180.000000        0.658378         4    ;  uncertainty k = 0.330608
        23        24        25        41     9        0.000000       -0.008817         1    ;  uncertainty k = 0.089727
        23        24        25        41     9      180.000000        8.312278         2    ;  uncertainty k = 0.286072
        23        24        25        41     9        0.000000        1.348940         3    ;  uncertainty k = 0.188593
        23        24        25        41     9      180.000000        1.838528         4    ;  uncertainty k = 0.183015
        23        28        27        26     9        0.000000       -0.127263         1    ;  uncertainty k = 0.141698
        23        28        27        26     9      180.000000       14.225482         2    ;  uncertainty k = 0.114156
        23        28        27        26     9        0.000000       -0.985336         3    ;  uncertainty k = 0.627196
        23        28        27        26     9      180.000000        0.658378         4    ;  uncertainty k = 0.330608
        23        28        27        42     9        0.000000       -0.008817         1    ;  uncertainty k = 0.089727
        23        28        27        42     9      180.000000        8.312278         2    ;  uncertainty k = 0.286072
        23        28        27        42     9        0.000000        1.348940         3    ;  uncertainty k = 0.188593
        23        28        27        42     9      180.000000        1.838528         4    ;  uncertainty k = 0.183015
        24        23        28        27     9        0.000000       -0.156871         1    ;  uncertainty k = 0.126213
        24        23        28        27     9      180.000000       10.965607         2    ;  uncertainty k = 0.455519
        24        23        28        27     9        0.000000       -0.528095         3    ;  uncertainty k = 0.423553
        24        23        28        27     9      180.000000        0.857619         4    ;  uncertainty k = 0.432466
        24        23        28        43     9        0.000000        0.072440         1    ;  uncertainty k = 0.376040
        24        23        28        43     9      180.000000        6.562952         2    ;  uncertainty k = 0.763072
        24        23        28        43     9        0.000000        1.445396         3    ;  uncertainty k = 0.299971
        24        23        28        43     9      180.000000        1.585416         4    ;  uncertainty k = 0.178642
        24        25        26        27     9        0.000000       -0.193178         1    ;  uncertainty k = 0.184505
        24        25        26        27     9      180.000000       11.680381         2    ;  uncertainty k = 0.380066
        24        25        26        27     9        0.000000       -0.464248         3    ;  uncertainty k = 0.440275
        24        25        26        27     9      180.000000        0.808662         4    ;  uncertainty k = 0.464268
        24        25        26        45     9        0.000000        0.085947         1    ;  uncertainty k = 0.260078
        24        25        26        45     9      180.000000        9.181143         2    ;  uncertainty k = 0.434375
        24        25        26        45     9        0.000000        1.462752         3    ;  uncertainty k = 0.304781
        24        25        26        45     9      180.000000        1.830171         4    ;  uncertainty k = 0.164748
        25        24        23        28     9        0.000000       -0.156871         1    ;  uncertainty k = 0.126213
        25        24        23        28     9      180.000000       10.965607         2    ;  uncertainty k = 0.455519
        25        24        23        28     9        0.000000       -0.528095         3    ;  uncertainty k = 0.423553
        25        24        23        28     9      180.000000        0.857619         4    ;  uncertainty k = 0.432466
        25        26        27        28     9        0.000000       -0.193178         1    ;  uncertainty k = 0.184505
        25        26        27        28     9      180.000000       11.680381         2    ;  uncertainty k = 0.380066
        25        26        27        28     9        0.000000       -0.464248         3    ;  uncertainty k = 0.440275
        25        26        27        28     9      180.000000        0.808662         4    ;  uncertainty k = 0.464268
        25        26        27        42     9        0.000000        0.033450         1    ;  uncertainty k = 0.124148
        25        26        27        42     9      180.000000        7.140961         2    ;  uncertainty k = 0.383307
        25        26        27        42     9        0.000000        1.479885         3    ;  uncertainty k = 0.375479
        25        26        27        42     9      180.000000        1.615246         4    ;  uncertainty k = 0.151832
        25        26        45        46     9        0.000000        0.024708         1    ;  uncertainty k = 0.037574
        25        26        45        46     9      180.000000        1.245377         2    ;  uncertainty k = 0.103962
        25        26        45        46     9        0.000000        0.346041         3    ;  uncertainty k = 0.034499
        25        26        45        46     9      180.000000        0.177401         4    ;  uncertainty k = 0.012952
        25        26        45        47     9        0.000000        0.024708         1    ;  uncertainty k = 0.037574
        25        26        45        47     9      180.000000        1.245377         2    ;  uncertainty k = 0.103962
        25        26        45        47     9        0.000000        0.346041         3    ;  uncertainty k = 0.034499
        25        26        45        47     9      180.000000        0.177401         4    ;  uncertainty k = 0.012952
        25        26        45        48     9        0.000000        0.024708         1    ;  uncertainty k = 0.037574
        25        26        45        48     9      180.000000        1.245377         2    ;  uncertainty k = 0.103962
        25        26        45        48     9        0.000000        0.346041         3    ;  uncertainty k = 0.034499
        25        26        45        48     9      180.000000        0.177401         4    ;  uncertainty k = 0.012952
        26        25        24        40     9        0.000000        0.124113         1    ;  uncertainty k = 0.209646
        26        25        24        40     9      180.000000        7.646778         2    ;  uncertainty k = 0.344928
        26        25        24        40     9        0.000000        1.407906         3    ;  uncertainty k = 0.235482
        26        25        24        40     9      180.000000        1.836191         4    ;  uncertainty k = 0.152560
        26        27        28        43     9        0.000000        0.124113         1    ;  uncertainty k = 0.209646
        26        27        28        43     9      180.000000        7.646778         2    ;  uncertainty k = 0.344928
        26        27        28        43     9        0.000000        1.407906         3    ;  uncertainty k = 0.235482
        26        27        28        43     9      180.000000        1.836191         4    ;  uncertainty k = 0.152560
        27        26        25        41     9        0.000000        0.033450         1    ;  uncertainty k = 0.124148
        27        26        25        41     9      180.000000        7.140961         2    ;  uncertainty k = 0.383307
        27        26        25        41     9        0.000000        1.479885         3    ;  uncertainty k = 0.375479
        27        26        25        41     9      180.000000        1.615246         4    ;  uncertainty k = 0.151832
        27        26        45        46     9        0.000000        0.024708         1    ;  uncertainty k = 0.037574
        27        26        45        46     9      180.000000        1.245377         2    ;  uncertainty k = 0.103962
        27        26        45        46     9        0.000000        0.346041         3    ;  uncertainty k = 0.034499
        27        26        45        46     9      180.000000        0.177401         4    ;  uncertainty k = 0.012952
        27        26        45        47     9        0.000000        0.024708         1    ;  uncertainty k = 0.037574
        27        26        45        47     9      180.000000        1.245377         2    ;  uncertainty k = 0.103962
        27        26        45        47     9        0.000000        0.346041         3    ;  uncertainty k = 0.034499
        27        26        45        47     9      180.000000        0.177401         4    ;  uncertainty k = 0.012952
        27        26        45        48     9        0.000000        0.024708         1    ;  uncertainty k = 0.037574
        27        26        45        48     9      180.000000        1.245377         2    ;  uncertainty k = 0.103962
        27        26        45        48     9        0.000000        0.346041         3    ;  uncertainty k = 0.034499
        27        26        45        48     9      180.000000        0.177401         4    ;  uncertainty k = 0.012952
        28        23        24        40     9        0.000000        0.072440         1    ;  uncertainty k = 0.376040
        28        23        24        40     9      180.000000        6.562952         2    ;  uncertainty k = 0.763072
        28        23        24        40     9        0.000000        1.445396         3    ;  uncertainty k = 0.299971
        28        23        24        40     9      180.000000        1.585416         4    ;  uncertainty k = 0.178642
        28        27        26        45     9        0.000000        0.085947         1    ;  uncertainty k = 0.260078
        28        27        26        45     9      180.000000        9.181143         2    ;  uncertainty k = 0.434375
        28        27        26        45     9        0.000000        1.462752         3    ;  uncertainty k = 0.304781
        28        27        26        45     9      180.000000        1.830171         4    ;  uncertainty k = 0.164748
        30        12        13        31     9        0.000000        0.737636         1    ;  uncertainty k = 0.403740
        30        12        13        31     9      180.000000       -0.466697         2    ;  uncertainty k = 0.387474
        30        12        13        31     9        0.000000       -0.165766         3    ;  uncertainty k = 0.332283
        30        12        13        31     9      180.000000       -0.168513         4    ;  uncertainty k = 0.127703
        30        12        15        33     9        0.000000        0.782112         1    ;  uncertainty k = 0.449114
        30        12        15        33     9      180.000000       -0.479108         2    ;  uncertainty k = 0.387845
        30        12        15        33     9        0.000000       -0.193577         3    ;  uncertainty k = 0.312499
        30        12        15        33     9      180.000000       -0.172114         4    ;  uncertainty k = 0.106697
        31        13        14        32     9        0.000000       15.402551         1    ;  uncertainty k = 0.447078
        31        13        14        32     9      180.000000       -1.787025         2    ;  uncertainty k = 0.288762
        31        13        14        32     9        0.000000        0.563549         3    ;  uncertainty k = 0.141418
        31        13        14        32     9      180.000000        0.388149         4    ;  uncertainty k = 0.058640
        31        13        21        39     9        0.000000       -0.190583         1    ;  uncertainty k = 0.256009
        31        13        21        39     9      180.000000       -0.018306         2    ;  uncertainty k = 0.316387
        31        13        21        39     9        0.000000        0.129412         3    ;  uncertainty k = 0.264290
        31        13        21        39     9      180.000000       -0.212594         4    ;  uncertainty k = 0.201546
        33        15        16        34     9        0.000000       15.204568         1    ;  uncertainty k = 0.383293
        33        15        16        34     9      180.000000       -2.008800         2    ;  uncertainty k = 0.361223
        33        15        16        34     9        0.000000        0.572217         3    ;  uncertainty k = 0.162951
        33        15        16        34     9      180.000000        0.405645         4    ;  uncertainty k = 0.081230
        33        15        17        35     9        0.000000        0.295960         1    ;  uncertainty k = 0.296986
        33        15        17        35     9      180.000000       -0.050225         2    ;  uncertainty k = 0.461878
        33        15        17        35     9        0.000000       -0.200187         3    ;  uncertainty k = 0.217268
        33        15        17        35     9      180.000000       -0.260240         4    ;  uncertainty k = 0.109658
        35        17        18        36     9        0.000000       -0.167653         1    ;  uncertainty k = 0.174272
        35        17        18        36     9      180.000000       -0.232874         2    ;  uncertainty k = 0.123290
        35        17        18        36     9        0.000000        0.093127         3    ;  uncertainty k = 0.089625
        35        17        18        36     9      180.000000       -0.087467         4    ;  uncertainty k = 0.104346
        35        17        18        37     9        0.000000       -0.167653         1    ;  uncertainty k = 0.174272
        35        17        18        37     9      180.000000       -0.232874         2    ;  uncertainty k = 0.123290
        35        17        18        37     9        0.000000        0.093127         3    ;  uncertainty k = 0.089625
        35        17        18        37     9      180.000000       -0.087467         4    ;  uncertainty k = 0.104346
        36        18        19        38     9        0.000000       10.479494         1    ;  uncertainty k = 0.097216
        36        18        19        38     9      180.000000       -1.870970         2    ;  uncertainty k = 0.389127
        36        18        19        38     9        0.000000        0.826769         3    ;  uncertainty k = 0.020297
        36        18        19        38     9      180.000000        0.085753         4    ;  uncertainty k = 0.063309
        37        18        19        38     9        0.000000       10.479494         1    ;  uncertainty k = 0.097216
        37        18        19        38     9      180.000000       -1.870970         2    ;  uncertainty k = 0.389127
        37        18        19        38     9        0.000000        0.826769         3    ;  uncertainty k = 0.020297
        37        18        19        38     9      180.000000        0.085753         4    ;  uncertainty k = 0.063309
        40        24        25        41     9        0.000000       -0.157292         1    ;  uncertainty k = 0.178485
        40        24        25        41     9      180.000000        7.628097         2    ;  uncertainty k = 0.442866
        40        24        25        41     9        0.000000       -0.477939         3    ;  uncertainty k = 0.282385
        40        24        25        41     9      180.000000        0.148042         4    ;  uncertainty k = 0.156058
        41        25        26        45     9        0.000000       -0.391576         1    ;  uncertainty k = 0.425690
        41        25        26        45     9      180.000000        8.399313         2    ;  uncertainty k = 0.266950
        41        25        26        45     9        0.000000        0.463757         3    ;  uncertainty k = 0.267844
        41        25        26        45     9      180.000000        0.838733         4    ;  uncertainty k = 0.257393
        42        27        26        45     9        0.000000       -0.391576         1    ;  uncertainty k = 0.425690
        42        27        26        45     9      180.000000        8.399313         2    ;  uncertainty k = 0.266950
        42        27        26        45     9        0.000000        0.463756         3    ;  uncertainty k = 0.267844
        42        27        26        45     9      180.000000        0.838733         4    ;  uncertainty k = 0.257393
        42        27        28        43     9        0.000000       -0.157292         1    ;  uncertainty k = 0.178485
        42        27        28        43     9      180.000000        7.628097         2    ;  uncertainty k = 0.442866
        42        27        28        43     9        0.000000       -0.477939         3    ;  uncertainty k = 0.282385
        42        27        28        43     9      180.000000        0.148042         4    ;  uncertainty k = 0.156058
        44         5         4        52     9        0.000000       -0.297675         1    ;  uncertainty k = 0.289302
        44         5         4        52     9      180.000000        9.724757         2    ;  uncertainty k = 0.403836
        44         5         4        52     9        0.000000        0.803141         3    ;  uncertainty k = 0.184337
        44         5         4        52     9      180.000000        1.033878         4    ;  uncertainty k = 0.264373
        49         1         2        50     9        0.000000       -0.073512         1    ;  uncertainty k = 0.153687
        49         1         2        50     9      180.000000        7.932391         2    ;  uncertainty k = 0.354979
        49         1         2        50     9        0.000000       -0.406561         3    ;  uncertainty k = 0.264636
        49         1         2        50     9      180.000000        0.142812         4    ;  uncertainty k = 0.157756
        49         1         3        51     9        0.000000       -0.036107         1    ;  uncertainty k = 0.091881
        49         1         3        51     9      180.000000        7.667990         2    ;  uncertainty k = 0.476308
        49         1         3        51     9        0.000000       -0.394868         3    ;  uncertainty k = 0.301779
        49         1         3        51     9      180.000000        0.015399         4    ;  uncertainty k = 0.172489
        51         3         4        52     9        0.000000       -0.030696         1    ;  uncertainty k = 0.079210
        51         3         4        52     9      180.000000        7.584540         2    ;  uncertainty k = 0.453813
        51         3         4        52     9        0.000000       -0.455427         3    ;  uncertainty k = 0.288389
        51         3         4        52     9      180.000000        0.024533         4    ;  uncertainty k = 0.174830

[ dihedrals ] ; impropers
;       ai        aj        ak        al funct           phase               k        pn
         1         2         3        49     4      180.000000        3.487480         2    ;  uncertainty k = 0.130146
         1         3        49         2     4      180.000000        3.487480         2    ;  uncertainty k = 0.130146
         1        49         2         3     4      180.000000        3.487480         2    ;  uncertainty k = 0.130146
         2         1         6        50     4      180.000000        4.281300         2    ;  uncertainty k = 0.079280
         2         6        50         1     4      180.000000        4.281300         2    ;  uncertainty k = 0.079280
         2        50         1         6     4      180.000000        4.281300         2    ;  uncertainty k = 0.079280
         3         1         4        51     4      180.000000        4.796687         2    ;  uncertainty k = 0.194058
         3         4        51         1     4      180.000000        4.796687         2    ;  uncertainty k = 0.194058
         3        51         1         4     4      180.000000        4.796687         2    ;  uncertainty k = 0.194058
         4         3         5        52     4      180.000000        1.852750         2    ;  uncertainty k = 0.160699
         4         5        52         3     4      180.000000        1.852750         2    ;  uncertainty k = 0.160699
         4        52         3         5     4      180.000000        1.852750         2    ;  uncertainty k = 0.160699
         5         4         6        44     4      180.000000       16.265066         2    ;  uncertainty k = 0.107891
         5         6        44         4     4      180.000000       16.265066         2    ;  uncertainty k = 0.107891
         5        44         4         6     4      180.000000       16.265066         2    ;  uncertainty k = 0.107891
         6         2         5         7     4      180.000000       10.602002         2    ;  uncertainty k = 0.148234
         6         5         7         2     4      180.000000       10.602002         2    ;  uncertainty k = 0.148234
         6         7         2         5     4      180.000000       10.602002         2    ;  uncertainty k = 0.148234
         7         6         8        10     4      180.000000        5.522072         2    ;  uncertainty k = 0.480174
         7         8        10         6     4      180.000000        5.522072         2    ;  uncertainty k = 0.480174
         7        10         6         8     4      180.000000        5.522072         2    ;  uncertainty k = 0.480174
        10         7        11        29     4      180.000000        0.351980         2    ;  uncertainty k = 0.787051
        10        11        29         7     4      180.000000        0.351980         2    ;  uncertainty k = 0.787051
        10        29         7        11     4      180.000000        0.351980         2    ;  uncertainty k = 0.787051
        23        22        24        28     4      180.000000       11.790034         2    ;  uncertainty k = 0.101837
        23        24        28        22     4      180.000000       11.790034         2    ;  uncertainty k = 0.101837
        23        28        22        24     4      180.000000       11.790034         2    ;  uncertainty k = 0.101837
        24        23        25        40     4      180.000000        4.631440         2    ;  uncertainty k = 0.175194
        24        25        40        23     4      180.000000        4.631440         2    ;  uncertainty k = 0.175194
        24        40        23        25     4      180.000000        4.631440         2    ;  uncertainty k = 0.175194
        25        24        26        41     4      180.000000        3.995376         2    ;  uncertainty k = 0.157754
        25        26        41        24     4      180.000000        3.995376         2    ;  uncertainty k = 0.157754
        25        41        24        26     4      180.000000        3.995376         2    ;  uncertainty k = 0.157754
        26        25        27        45     4      180.000000       16.407561         2    ;  uncertainty k = 0.051646
        26        27        45        25     4      180.000000       16.407561         2    ;  uncertainty k = 0.051646
        26        45        25        27     4      180.000000       16.407561         2    ;  uncertainty k = 0.051646
        27        26        28        42     4      180.000000        3.995374         2    ;  uncertainty k = 0.157755
        27        28        42        26     4      180.000000        3.995374         2    ;  uncertainty k = 0.157755
        27        42        26        28     4      180.000000        3.995374         2    ;  uncertainty k = 0.157755
        28        23        27        43     4      180.000000        4.631443         2    ;  uncertainty k = 0.175195
        28        27        43        23     4      180.000000        4.631443         2    ;  uncertainty k = 0.175195
        28        43        23        27     4      180.000000        4.631443         2    ;  uncertainty k = 0.175195

[ pairs ]
;       ai        aj funct
         1         5     1
         1         7     1
         1        52     1
         2         4     1
         2         8     1
         2        10     1
         2        44     1
         2        51     1
         3         6     1
         3        44     1
         3        50     1
         4         7     1
         4        49     1
         5         8     1
         5        10     1
         5        50     1
         5        51     1
         6         9     1
         6        11     1
         6        29     1
         6        49     1
         6        52     1
         7        12     1
         7        44     1
         7        50     1
         8        12     1
         8        29     1
         9        13     1
         9        15     1
         9        29     1
         9        30     1
        10        13     1
        10        15     1
        10        30     1
        11        14     1
        11        16     1
        11        17     1
        11        21     1
        11        31     1
        11        33     1
        12        18     1
        12        20     1
        12        22     1
        12        29     1
        12        32     1
        12        34     1
        12        35     1
        12        39     1
        13        16     1
        13        17     1
        13        23     1
        13        33     1
        14        15     1
        14        20     1
        14        22     1
        14        30     1
        14        39     1
        15        19     1
        15        21     1
        15        31     1
        15        36     1
        15        37     1
        16        18     1
        16        20     1
        16        30     1
        16        35     1
        17        22     1
        17        30     1
        17        34     1
        17        38     1
        17        39     1
        18        21     1
        18        33     1
        19        20     1
        19        35     1
        20        23     1
        20        31     1
        20        33     1
        20        36     1
        20        37     1
        21        24     1
        21        28     1
        21        30     1
        21        32     1
        21        35     1
        22        25     1
        22        27     1
        22        31     1
        22        40     1
        22        43     1
        23        26     1
        23        39     1
        23        41     1
        23        42     1
        24        27     1
        24        43     1
        24        45     1
        25        28     1
        25        42     1
        25        46     1
        25        47     1
        25        48     1
        26        40     1
        26        43     1
        27        41     1
        27        46     1
        27        47     1
        27        48     1
        28        40     1
        28        45     1
        30        31     1
        30        33     1
        31        32     1
        31        39     1
        33        34     1
        33        35     1
        35        36     1
        35        37     1
        36        38     1
        37        38     1
        40        41     1
        41        45     1
        42        43     1
        42        45     1
        44        52     1
        49        50     1
        49        51     1
        51        52     1
