; ITP file created by ByteFF-joint-25, 2025-07-14 11:36:25.359161

[ atomtypes ]
;name           bonded.type        at.num        mass        charge   ptype           sigma         epsilon
 c0bf                                   6      0.0000       0.00000       A     3.31521e-01     4.13489e-01    ;  uncertainty sigma = 0.000004, epsilon = 0.000684
 c1bf                                   6      0.0000       0.00000       A     3.31516e-01     4.13419e-01    ;  uncertainty sigma = 0.000004, epsilon = 0.000618
 c2bf                                   6      0.0000       0.00000       A     3.31519e-01     4.13372e-01    ;  uncertainty sigma = 0.000004, epsilon = 0.000633
 c3bf                                   6      0.0000       0.00000       A     3.31512e-01     4.13294e-01    ;  uncertainty sigma = 0.000008, epsilon = 0.000496
 c4bf                                   6      0.0000       0.00000       A     3.31527e-01     4.13600e-01    ;  uncertainty sigma = 0.000009, epsilon = 0.000748
 c5bf                                   6      0.0000       0.00000       A     3.31518e-01     4.13260e-01    ;  uncertainty sigma = 0.000006, epsilon = 0.000986
 c6bf                                   6      0.0000       0.00000       A     3.31541e-01     4.13388e-01    ;  uncertainty sigma = 0.000007, epsilon = 0.000960
 n7bf                                   7      0.0000       0.00000       A     3.38442e-01     3.93729e-01    ;  uncertainty sigma = 0.000021, epsilon = 0.000602
 n8bf                                   7      0.0000       0.00000       A     3.38410e-01     3.93741e-01    ;  uncertainty sigma = 0.000016, epsilon = 0.001215
 c9bf                                   6      0.0000       0.00000       A     3.31531e-01     4.13636e-01    ;  uncertainty sigma = 0.000017, epsilon = 0.000702
 n10bf                                  7      0.0000       0.00000       A     3.20652e-01     8.52236e-01    ;  uncertainty sigma = 0.000054, epsilon = 0.002958
 c11bf                                  6      0.0000       0.00000       A     3.39713e-01     4.50652e-01    ;  uncertainty sigma = 0.000026, epsilon = 0.001404
 c12bf                                  6      0.0000       0.00000       A     3.39779e-01     4.49718e-01    ;  uncertainty sigma = 0.000015, epsilon = 0.002118
 o13bf                                  8      0.0000       0.00000       A     3.24313e-01     3.89156e-01    ;  uncertainty sigma = 0.000010, epsilon = 0.000595
 c14bf                                  6      0.0000       0.00000       A     3.39779e-01     4.49976e-01    ;  uncertainty sigma = 0.000018, epsilon = 0.001841
 o15bf                                  8      0.0000       0.00000       A     3.24318e-01     3.89663e-01    ;  uncertainty sigma = 0.000007, epsilon = 0.000651
 c16bf                                  6      0.0000       0.00000       A     3.39813e-01     4.51725e-01    ;  uncertainty sigma = 0.000016, epsilon = 0.001146
 c17bf                                  6      0.0000       0.00000       A     3.39797e-01     4.50403e-01    ;  uncertainty sigma = 0.000017, epsilon = 0.000902
 o18bf                                  8      0.0000       0.00000       A     3.24274e-01     3.88861e-01    ;  uncertainty sigma = 0.000020, epsilon = 0.000688
 o19bf                                  8      0.0000       0.00000       A     3.15611e-01     3.03419e-01    ;  uncertainty sigma = 0.000029, epsilon = 0.002245
 c20bf                                  6      0.0000       0.00000       A     3.39781e-01     4.51054e-01    ;  uncertainty sigma = 0.000013, epsilon = 0.000917
 s21bf                                 16      0.0000       0.00000       A     3.53296e-01     1.18046e+00    ;  uncertainty sigma = 0.000030, epsilon = 0.002394
 c22bf                                  6      0.0000       0.00000       A     3.31487e-01     4.13043e-01    ;  uncertainty sigma = 0.000026, epsilon = 0.000640
 c23bf                                  6      0.0000       0.00000       A     3.31517e-01     4.13229e-01    ;  uncertainty sigma = 0.000008, epsilon = 0.000553
 c24bf                                  6      0.0000       0.00000       A     3.31524e-01     4.13304e-01    ;  uncertainty sigma = 0.000004, epsilon = 0.000505
 c25bf                                  6      0.0000       0.00000       A     3.31516e-01     4.13253e-01    ;  uncertainty sigma = 0.000004, epsilon = 0.000640
 c26bf                                  6      0.0000       0.00000       A     3.31524e-01     4.13304e-01    ;  uncertainty sigma = 0.000004, epsilon = 0.000505
 c27bf                                  6      0.0000       0.00000       A     3.31517e-01     4.13229e-01    ;  uncertainty sigma = 0.000008, epsilon = 0.000553
 h28bf                                  1      0.0000       0.00000       A     2.53615e-01     6.71853e-02    ;  uncertainty sigma = 0.000061, epsilon = 0.000866
 h29bf                                  1      0.0000       0.00000       A     2.42314e-01     8.67745e-02    ;  uncertainty sigma = 0.000097, epsilon = 0.000594
 h30bf                                  1      0.0000       0.00000       A     2.42150e-01     8.68976e-02    ;  uncertainty sigma = 0.000136, epsilon = 0.000578
 h31bf                                  1      0.0000       0.00000       A     5.37699e-02     1.94207e-02    ;  uncertainty sigma = 0.000075, epsilon = 0.001021
 h32bf                                  1      0.0000       0.00000       A     2.42148e-01     8.70400e-02    ;  uncertainty sigma = 0.000125, epsilon = 0.000654
 h33bf                                  1      0.0000       0.00000       A     5.37509e-02     1.95242e-02    ;  uncertainty sigma = 0.000059, epsilon = 0.001184
 h34bf                                  1      0.0000       0.00000       A     2.42295e-01     8.69263e-02    ;  uncertainty sigma = 0.000086, epsilon = 0.000919
 h35bf                                  1      0.0000       0.00000       A     2.42123e-01     8.66913e-02    ;  uncertainty sigma = 0.000015, epsilon = 0.000817
 h36bf                                  1      0.0000       0.00000       A     2.42123e-01     8.66913e-02    ;  uncertainty sigma = 0.000015, epsilon = 0.000817
 h37bf                                  1      0.0000       0.00000       A     5.37919e-02     1.95436e-02    ;  uncertainty sigma = 0.000077, epsilon = 0.000848
 h38bf                                  1      0.0000       0.00000       A     2.25392e-01     8.79591e-02    ;  uncertainty sigma = 0.000386, epsilon = 0.001528
 h39bf                                  1      0.0000       0.00000       A     2.62569e-01     6.71318e-02    ;  uncertainty sigma = 0.000009, epsilon = 0.000486
 h40bf                                  1      0.0000       0.00000       A     2.62564e-01     6.70918e-02    ;  uncertainty sigma = 0.000008, epsilon = 0.000519
 h41bf                                  1      0.0000       0.00000       A     2.62564e-01     6.70918e-02    ;  uncertainty sigma = 0.000008, epsilon = 0.000519
 h42bf                                  1      0.0000       0.00000       A     2.62569e-01     6.71318e-02    ;  uncertainty sigma = 0.000009, epsilon = 0.000486
 f43bf                                  9      0.0000       0.00000       A     3.03438e-01     3.47931e-01    ;  uncertainty sigma = 0.000010, epsilon = 0.000796
 c44bf                                  6      0.0000       0.00000       A     3.39773e-01     4.50878e-01    ;  uncertainty sigma = 0.000005, epsilon = 0.000421
 h45bf                                  1      0.0000       0.00000       A     2.60034e-01     8.66894e-02    ;  uncertainty sigma = 0.000006, epsilon = 0.000488
 h46bf                                  1      0.0000       0.00000       A     2.60034e-01     8.66894e-02    ;  uncertainty sigma = 0.000006, epsilon = 0.000488
 h47bf                                  1      0.0000       0.00000       A     2.60034e-01     8.66894e-02    ;  uncertainty sigma = 0.000006, epsilon = 0.000488
 h48bf                                  1      0.0000       0.00000       A     2.62566e-01     6.69694e-02    ;  uncertainty sigma = 0.000009, epsilon = 0.000502
 h49bf                                  1      0.0000       0.00000       A     2.62559e-01     6.70225e-02    ;  uncertainty sigma = 0.000009, epsilon = 0.000451
 h50bf                                  1      0.0000       0.00000       A     2.62565e-01     6.71044e-02    ;  uncertainty sigma = 0.000012, epsilon = 0.000451
 h51bf                                  1      0.0000       0.00000       A     2.62557e-01     6.70298e-02    ;  uncertainty sigma = 0.000012, epsilon = 0.000595

[ moleculetype ]
;name             nrexcl
 MOL                   3

[ atoms ]
;       nr            type      resi   res      atom      cgnr      charge          mass ; qtot
         1            c0bf         1   UNL        c0         1    -0.10557       12.0110 ; qtot   -0.106
         2            c1bf         1   UNL        c1         2    -0.12654       12.0110 ; qtot   -0.232
         3            c2bf         1   UNL        c2         3    -0.15737       12.0110 ; qtot   -0.389
         4            c3bf         1   UNL        c3         4     0.12599       12.0110 ; qtot   -0.263
         5            c4bf         1   UNL        c4         5    -0.15142       12.0110 ; qtot   -0.415
         6            c5bf         1   UNL        c5         6    -0.08227       12.0110 ; qtot   -0.497
         7            c6bf         1   UNL        c6         7     0.31468       12.0110 ; qtot   -0.183
         8            n7bf         1   UNL        n7         8    -0.34194       14.0070 ; qtot   -0.524
         9            n8bf         1   UNL        n8         9    -0.20660       14.0070 ; qtot   -0.731
        10            c9bf         1   UNL        c9        10    -0.19873       12.0110 ; qtot   -0.930
        11           n10bf         1   UNL       n10        11     0.08745       14.0070 ; qtot   -0.842
        12           c11bf         1   UNL       c11        12     0.03718       12.0110 ; qtot   -0.805
        13           c12bf         1   UNL       c12        13     0.13773       12.0110 ; qtot   -0.667
        14           o13bf         1   UNL       o13        14    -0.59205       15.9990 ; qtot   -1.259
        15           c14bf         1   UNL       c14        15     0.12846       12.0110 ; qtot   -1.131
        16           o15bf         1   UNL       o15        16    -0.59538       15.9990 ; qtot   -1.726
        17           c16bf         1   UNL       c16        17     0.09794       12.0110 ; qtot   -1.628
        18           c17bf         1   UNL       c17        18     0.13320       12.0110 ; qtot   -1.495
        19           o18bf         1   UNL       o18        19    -0.59965       15.9990 ; qtot   -2.095
        20           o19bf         1   UNL       o19        20    -0.39620       15.9990 ; qtot   -2.491
        21           c20bf         1   UNL       c20        21     0.22984       12.0110 ; qtot   -2.261
        22           s21bf         1   UNL       s21        22    -0.29369       32.0670 ; qtot   -2.555
        23           c22bf         1   UNL       c22        23     0.01270       12.0110 ; qtot   -2.542
        24           c23bf         1   UNL       c23        24    -0.09102       12.0110 ; qtot   -2.633
        25           c24bf         1   UNL       c24        25    -0.13512       12.0110 ; qtot   -2.768
        26           c25bf         1   UNL       c25        26    -0.05605       12.0110 ; qtot   -2.824
        27           c26bf         1   UNL       c26        27    -0.13512       12.0110 ; qtot   -2.960
        28           c27bf         1   UNL       c27        28    -0.09102       12.0110 ; qtot   -3.051
        29           h28bf         1   UNL       h28        29     0.19246        1.0080 ; qtot   -2.858
        30           h29bf         1   UNL       h29        30     0.09442        1.0080 ; qtot   -2.764
        31           h30bf         1   UNL       h30        31     0.07817        1.0080 ; qtot   -2.686
        32           h31bf         1   UNL       h31        32     0.42879        1.0080 ; qtot   -2.257
        33           h32bf         1   UNL       h32        33     0.07395        1.0080 ; qtot   -2.183
        34           h33bf         1   UNL       h33        34     0.42496        1.0080 ; qtot   -1.758
        35           h34bf         1   UNL       h34        35     0.07367        1.0080 ; qtot   -1.684
        36           h35bf         1   UNL       h35        36     0.05099        1.0080 ; qtot   -1.633
        37           h36bf         1   UNL       h36        37     0.05099        1.0080 ; qtot   -1.582
        38           h37bf         1   UNL       h37        38     0.41123        1.0080 ; qtot   -1.171
        39           h38bf         1   UNL       h38        39     0.08832        1.0080 ; qtot   -1.083
        40           h39bf         1   UNL       h39        40     0.14071        1.0080 ; qtot   -0.942
        41           h40bf         1   UNL       h40        41     0.13401        1.0080 ; qtot   -0.808
        42           h41bf         1   UNL       h41        42     0.13401        1.0080 ; qtot   -0.674
        43           h42bf         1   UNL       h42        43     0.14071        1.0080 ; qtot   -0.533
        44           f43bf         1   UNL       f43        44    -0.14590       18.9980 ; qtot   -0.679
        45           c44bf         1   UNL       c44        45    -0.05057       12.0110 ; qtot   -0.730
        46           h45bf         1   UNL       h45        46     0.04329        1.0080 ; qtot   -0.686
        47           h46bf         1   UNL       h46        47     0.04329        1.0080 ; qtot   -0.643
        48           h47bf         1   UNL       h47        48     0.04329        1.0080 ; qtot   -0.600
        49           h48bf         1   UNL       h48        49     0.14030        1.0080 ; qtot   -0.459
        50           h49bf         1   UNL       h49        50     0.14564        1.0080 ; qtot   -0.314
        51           h50bf         1   UNL       h50        51     0.15385        1.0080 ; qtot   -0.160
        52           h51bf         1   UNL       h51        52     0.15999        1.0080 ; qtot   -0.000

[ bonds ]
;       ai        aj funct               r               k
         1         2     1        0.139399   365151.704980    ;  uncertainty r = 0.000013, k = 1.183442
         1         3     1        0.139545   376642.050732    ;  uncertainty r = 0.000019, k = 1.655371
         1        49     1        0.108758   333159.989063    ;  uncertainty r = 0.000010, k = 1.204666
         2         6     1        0.140100   347435.105518    ;  uncertainty r = 0.000042, k = 1.789503
         2        50     1        0.108759   334435.771973    ;  uncertainty r = 0.000018, k = 0.809181
         3         4     1        0.139021   360751.661035    ;  uncertainty r = 0.000028, k = 2.778653
         3        51     1        0.108778   336725.582422    ;  uncertainty r = 0.000011, k = 0.597473
         4         5     1        0.138773   356783.245312    ;  uncertainty r = 0.000021, k = 0.933775
         4        44     1        0.135734   338781.651709    ;  uncertainty r = 0.000038, k = 1.121501
         5         6     1        0.140000   356155.645312    ;  uncertainty r = 0.000056, k = 2.815849
         5        52     1        0.108769   336787.892969    ;  uncertainty r = 0.000017, k = 0.688168
         6         7     1        0.146131   269867.182812    ;  uncertainty r = 0.000073, k = 7.012723
         7         8     1        0.137864   246234.120313    ;  uncertainty r = 0.000091, k = 11.271234
         7        10     1        0.138795   439248.393945    ;  uncertainty r = 0.000057, k = 10.415083
         8         9     1        0.130519   453134.146094    ;  uncertainty r = 0.000068, k = 3.549568
         9        11     1        0.135903   233298.169873    ;  uncertainty r = 0.000149, k = 12.312535
        10        11     1        0.136151   301432.326855    ;  uncertainty r = 0.000060, k = 8.178463
        10        29     1        0.108203   343420.671924    ;  uncertainty r = 0.000040, k = 4.150845
        11        12     1        0.145237   237557.836328    ;  uncertainty r = 0.000204, k = 6.795436
        12        13     1        0.152197   188201.613843    ;  uncertainty r = 0.000192, k = 8.216347
        12        15     1        0.152242   189482.287109    ;  uncertainty r = 0.000225, k = 7.204018
        12        30     1        0.109521   308595.486035    ;  uncertainty r = 0.000060, k = 4.627269
        13        14     1        0.141112   255571.457910    ;  uncertainty r = 0.000133, k = 10.775081
        13        21     1        0.151795   195953.824756    ;  uncertainty r = 0.000220, k = 7.518907
        13        31     1        0.109646   304732.155518    ;  uncertainty r = 0.000030, k = 1.257698
        14        32     1        0.097065   447735.907617    ;  uncertainty r = 0.000022, k = 2.843500
        15        16     1        0.141577   252957.147412    ;  uncertainty r = 0.000096, k = 9.080986
        15        17     1        0.151787   194051.514404    ;  uncertainty r = 0.000051, k = 5.272028
        15        33     1        0.109666   303884.910840    ;  uncertainty r = 0.000035, k = 2.180842
        16        34     1        0.097048   450902.764551    ;  uncertainty r = 0.000018, k = 3.349293
        17        18     1        0.151618   203501.917554    ;  uncertainty r = 0.000125, k = 6.264156
        17        20     1        0.142011   234157.493604    ;  uncertainty r = 0.000263, k = 8.190043
        17        35     1        0.109922   307243.934521    ;  uncertainty r = 0.000031, k = 1.845416
        18        19     1        0.142092   261467.338037    ;  uncertainty r = 0.000062, k = 4.434858
        18        36     1        0.109761   309531.982910    ;  uncertainty r = 0.000022, k = 2.053540
        18        37     1        0.109761   309531.982910    ;  uncertainty r = 0.000022, k = 2.053540
        19        38     1        0.097013   462818.941602    ;  uncertainty r = 0.000022, k = 2.302141
        20        21     1        0.140261   232205.156055    ;  uncertainty r = 0.000298, k = 17.002598
        21        22     1        0.184466   133169.513428    ;  uncertainty r = 0.000195, k = 13.146840
        21        39     1        0.109643   309186.925488    ;  uncertainty r = 0.000063, k = 4.096350
        22        23     1        0.179121   206179.189795    ;  uncertainty r = 0.000089, k = 7.782768
        23        24     1        0.140095   360007.458594    ;  uncertainty r = 0.000063, k = 2.797086
        23        28     1        0.140095   360007.458594    ;  uncertainty r = 0.000063, k = 2.797086
        24        25     1        0.139505   367196.614551    ;  uncertainty r = 0.000029, k = 1.961353
        24        40     1        0.108793   333998.704346    ;  uncertainty r = 0.000039, k = 2.030538
        25        26     1        0.140220   353169.182520    ;  uncertainty r = 0.000028, k = 2.666792
        25        41     1        0.108868   334513.609082    ;  uncertainty r = 0.000009, k = 0.953696
        26        27     1        0.140220   353169.182520    ;  uncertainty r = 0.000028, k = 2.666792
        26        45     1        0.151054   252476.717773    ;  uncertainty r = 0.000015, k = 5.525231
        27        28     1        0.139505   367196.614551    ;  uncertainty r = 0.000029, k = 1.961353
        27        42     1        0.108868   334513.609082    ;  uncertainty r = 0.000009, k = 0.953696
        28        43     1        0.108793   333998.704346    ;  uncertainty r = 0.000039, k = 2.030538
        45        46     1        0.109534   307895.028662    ;  uncertainty r = 0.000008, k = 1.140238
        45        47     1        0.109534   307895.028662    ;  uncertainty r = 0.000008, k = 1.140228
        45        48     1        0.109534   307895.028662    ;  uncertainty r = 0.000008, k = 1.140238

[ angles ]
;       ai        aj        ak funct           theta             cth
         1         2         6     1      120.317459      533.179347    ;  uncertainty theta = 0.001573, k = 0.071437
         1         2        50     1      120.481728      295.484338    ;  uncertainty theta = 0.001758, k = 0.036979
         1         3         4     1      116.795029      498.030676    ;  uncertainty theta = 0.001481, k = 0.054482
         1         3        51     1      121.967995      282.205552    ;  uncertainty theta = 0.001670, k = 0.023319
         2         1         3     1      120.966858      515.554815    ;  uncertainty theta = 0.002152, k = 0.024798
         2         1        49     1      120.059669      281.442280    ;  uncertainty theta = 0.000943, k = 0.033932
         2         6         5     1      121.386597      423.920804    ;  uncertainty theta = 0.002251, k = 0.142902
         2         6         7     1      119.865829      418.386050    ;  uncertainty theta = 0.001026, k = 0.043440
         3         1        49     1      119.873802      284.145159    ;  uncertainty theta = 0.000432, k = 0.021882
         3         4         5     1      122.947044      356.662729    ;  uncertainty theta = 0.005250, k = 0.154928
         3         4        44     1      119.144249      514.490461    ;  uncertainty theta = 0.001552, k = 0.057868
         4         3        51     1      120.954201      283.262884    ;  uncertainty theta = 0.001952, k = 0.040378
         4         5         6     1      118.990891      499.721297    ;  uncertainty theta = 0.003167, k = 0.128059
         4         5        52     1      120.857933      288.611632    ;  uncertainty theta = 0.000669, k = 0.059000
         5         4        44     1      118.589584      506.343835    ;  uncertainty theta = 0.001721, k = 0.042089
         5         6         7     1      119.182999      414.478777    ;  uncertainty theta = 0.001353, k = 0.052395
         6         2        50     1      118.765503      272.629136    ;  uncertainty theta = 0.001793, k = 0.029646
         6         5        52     1      120.385216      265.960439    ;  uncertainty theta = 0.001066, k = 0.063752
         6         7         8     1      120.480179      412.475231    ;  uncertainty theta = 0.002146, k = 0.137700
         6         7        10     1      129.269928      337.694499    ;  uncertainty theta = 0.003198, k = 0.138395
         7         8         9     1      109.596680      973.791653    ;  uncertainty theta = 0.002258, k = 0.116585
         7        10        11     1      105.510696      736.606556    ;  uncertainty theta = 0.003496, k = 0.208753
         7        10        29     1      130.343216      218.591352    ;  uncertainty theta = 0.005762, k = 0.071244
         8         7        10     1      109.104027      800.340286    ;  uncertainty theta = 0.002487, k = 0.134344
         8         9        11     1      108.374352     1198.891440    ;  uncertainty theta = 0.001950, k = 0.087544
         9        11        10     1      108.506020      943.956775    ;  uncertainty theta = 0.002740, k = 0.117802
         9        11        12     1      115.571121      437.659513    ;  uncertainty theta = 0.003078, k = 0.204767
        10        11        12     1      122.779984      358.793258    ;  uncertainty theta = 0.003510, k = 0.078673
        11        10        29     1      118.559799      276.483133    ;  uncertainty theta = 0.002742, k = 0.118946
        11        12        13     1      108.612854      611.432839    ;  uncertainty theta = 0.006773, k = 0.151825
        11        12        15     1      108.860092      608.822563    ;  uncertainty theta = 0.005620, k = 0.122032
        11        12        30     1      105.087402      460.773119    ;  uncertainty theta = 0.003041, k = 0.158681
        12        13        14     1      109.012962      665.533844    ;  uncertainty theta = 0.006748, k = 0.200619
        12        13        21     1      108.964066      543.101919    ;  uncertainty theta = 0.001961, k = 0.150905
        12        13        31     1      107.740005      378.522080    ;  uncertainty theta = 0.003343, k = 0.116338
        12        15        16     1      109.313431      671.008872    ;  uncertainty theta = 0.003313, k = 0.184556
        12        15        17     1      109.086327      550.828810    ;  uncertainty theta = 0.003114, k = 0.083717
        12        15        33     1      107.334900      380.433118    ;  uncertainty theta = 0.003532, k = 0.100701
        13        12        15     1      109.016258      555.541747    ;  uncertainty theta = 0.004332, k = 0.211730
        13        12        30     1      107.679733      392.750942    ;  uncertainty theta = 0.002487, k = 0.068899
        13        14        32     1      107.738342      464.297017    ;  uncertainty theta = 0.001111, k = 0.064721
        13        21        20     1      109.329178      613.859822    ;  uncertainty theta = 0.003845, k = 0.207721
        13        21        22     1      109.276794      472.352762    ;  uncertainty theta = 0.003541, k = 0.185259
        13        21        39     1      109.789139      376.594411    ;  uncertainty theta = 0.003445, k = 0.064049
        14        13        21     1      108.751869      695.476934    ;  uncertainty theta = 0.004518, k = 0.195360
        14        13        31     1      108.464233      469.798604    ;  uncertainty theta = 0.000985, k = 0.059230
        15        12        30     1      107.891098      392.700028    ;  uncertainty theta = 0.001699, k = 0.068486
        15        16        34     1      107.735207      463.269914    ;  uncertainty theta = 0.000463, k = 0.071624
        15        17        18     1      110.619675      536.827451    ;  uncertainty theta = 0.003047, k = 0.044496
        15        17        20     1      108.464928      617.827076    ;  uncertainty theta = 0.003259, k = 0.135769
        15        17        35     1      107.915344      383.395997    ;  uncertainty theta = 0.002933, k = 0.008098
        16        15        17     1      108.664330      684.054888    ;  uncertainty theta = 0.003176, k = 0.109786
        16        15        33     1      108.417618      469.024606    ;  uncertainty theta = 0.000812, k = 0.043732
        17        15        33     1      108.204239      382.143370    ;  uncertainty theta = 0.002080, k = 0.061683
        17        18        19     1      110.168129      716.776224    ;  uncertainty theta = 0.001875, k = 0.128387
        17        18        36     1      107.923988      394.631623    ;  uncertainty theta = 0.001881, k = 0.054203
        17        18        37     1      107.923988      394.631623    ;  uncertainty theta = 0.001881, k = 0.054203
        17        20        21     1      109.179161      507.510722    ;  uncertainty theta = 0.006739, k = 0.158124
        18        17        20     1      105.910133      561.353674    ;  uncertainty theta = 0.003507, k = 0.091813
        18        17        35     1      108.719131      396.919716    ;  uncertainty theta = 0.003871, k = 0.046746
        18        19        38     1      107.223572      450.200245    ;  uncertainty theta = 0.001789, k = 0.036471
        19        18        36     1      108.661911      477.517993    ;  uncertainty theta = 0.000920, k = 0.032620
        19        18        37     1      108.661911      477.517993    ;  uncertainty theta = 0.000920, k = 0.032620
        20        17        35     1      107.155716      448.878476    ;  uncertainty theta = 0.002856, k = 0.118174
        20        21        22     1      108.488548      600.802060    ;  uncertainty theta = 0.005721, k = 0.267014
        20        21        39     1      107.581093      454.886975    ;  uncertainty theta = 0.003084, k = 0.162160
        21        13        31     1      108.036217      382.649643    ;  uncertainty theta = 0.001208, k = 0.065214
        21        22        23     1       98.071030      620.356080    ;  uncertainty theta = 0.003494, k = 0.101606
        22        21        39     1      106.804665      347.470743    ;  uncertainty theta = 0.004979, k = 0.169894
        22        23        24     1      122.596130      363.243706    ;  uncertainty theta = 0.004725, k = 0.050914
        22        23        28     1      122.596130      363.243706    ;  uncertainty theta = 0.004725, k = 0.050914
        23        24        25     1      119.504860      523.522298    ;  uncertainty theta = 0.001632, k = 0.071975
        23        24        40     1      120.291687      280.122011    ;  uncertainty theta = 0.002517, k = 0.047831
        23        28        27     1      119.504860      523.522298    ;  uncertainty theta = 0.001632, k = 0.071975
        23        28        43     1      120.291687      280.122011    ;  uncertainty theta = 0.002517, k = 0.047831
        24        23        28     1      119.364845      413.056966    ;  uncertainty theta = 0.002836, k = 0.076384
        24        25        26     1      121.433678      521.891019    ;  uncertainty theta = 0.001255, k = 0.060016
        24        25        41     1      119.655823      287.521580    ;  uncertainty theta = 0.001168, k = 0.024751
        25        24        40     1      120.399857      289.970493    ;  uncertainty theta = 0.001680, k = 0.045815
        25        26        27     1      118.352539      470.446065    ;  uncertainty theta = 0.001842, k = 0.119193
        25        26        45     1      120.748802      431.769794    ;  uncertainty theta = 0.001285, k = 0.023615
        26        25        41     1      119.443199      279.848828    ;  uncertainty theta = 0.001504, k = 0.086733
        26        27        28     1      121.433678      521.891019    ;  uncertainty theta = 0.001255, k = 0.060016
        26        27        42     1      119.443199      279.848828    ;  uncertainty theta = 0.001504, k = 0.086733
        26        45        46     1      109.896507      397.950585    ;  uncertainty theta = 0.001093, k = 0.021393
        26        45        47     1      109.896507      397.950585    ;  uncertainty theta = 0.001093, k = 0.021393
        26        45        48     1      109.896507      397.950585    ;  uncertainty theta = 0.001093, k = 0.021393
        27        26        45     1      120.748802      431.769794    ;  uncertainty theta = 0.001285, k = 0.023615
        27        28        43     1      120.399857      289.970493    ;  uncertainty theta = 0.001680, k = 0.045815
        28        27        42     1      119.655823      287.521580    ;  uncertainty theta = 0.001168, k = 0.024751
        36        18        37     1      107.726463      326.410991    ;  uncertainty theta = 0.001745, k = 0.070753
        46        45        47     1      106.736984      316.781394    ;  uncertainty theta = 0.000965, k = 0.019303
        46        45        48     1      106.736984      316.781394    ;  uncertainty theta = 0.000965, k = 0.019303
        47        45        48     1      106.736984      316.781394    ;  uncertainty theta = 0.000965, k = 0.019302

[ dihedrals ] ; propers for gromacs 4.5 or higher, use funct 9
;       ai        aj        ak        al funct           phase               k        pn
         1         2         6         5     9        0.000000       -0.122797         1    ;  uncertainty k = 0.134224
         1         2         6         5     9      180.000000       10.940520         2    ;  uncertainty k = 0.214778
         1         2         6         5     9        0.000000       -0.539430         3    ;  uncertainty k = 0.253451
         1         2         6         5     9      180.000000        0.907658         4    ;  uncertainty k = 0.253689
         1         2         6         7     9        0.000000        0.120781         1    ;  uncertainty k = 0.345553
         1         2         6         7     9      180.000000        9.223824         2    ;  uncertainty k = 0.353002
         1         2         6         7     9        0.000000        1.110497         3    ;  uncertainty k = 0.171345
         1         2         6         7     9      180.000000        1.640473         4    ;  uncertainty k = 0.195086
         1         3         4         5     9        0.000000        0.072850         1    ;  uncertainty k = 0.184385
         1         3         4         5     9      180.000000        9.454084         2    ;  uncertainty k = 0.508876
         1         3         4         5     9        0.000000       -0.145628         3    ;  uncertainty k = 0.430416
         1         3         4         5     9      180.000000        1.133747         4    ;  uncertainty k = 0.308090
         1         3         4        44     9        0.000000       -0.052710         1    ;  uncertainty k = 0.348741
         1         3         4        44     9      180.000000       12.446712         2    ;  uncertainty k = 0.656529
         1         3         4        44     9        0.000000        1.453835         3    ;  uncertainty k = 0.287280
         1         3         4        44     9      180.000000        1.488034         4    ;  uncertainty k = 0.268309
         2         1         3         4     9        0.000000       -0.109990         1    ;  uncertainty k = 0.179634
         2         1         3         4     9      180.000000       14.452621         2    ;  uncertainty k = 0.216925
         2         1         3         4     9        0.000000       -0.965820         3    ;  uncertainty k = 0.486112
         2         1         3         4     9      180.000000        0.724511         4    ;  uncertainty k = 0.192618
         2         1         3        51     9        0.000000        0.117298         1    ;  uncertainty k = 0.023020
         2         1         3        51     9      180.000000        7.494386         2    ;  uncertainty k = 0.358403
         2         1         3        51     9        0.000000        1.540739         3    ;  uncertainty k = 0.302080
         2         1         3        51     9      180.000000        1.800158         4    ;  uncertainty k = 0.139657
         2         6         5         4     9        0.000000        0.103111         1    ;  uncertainty k = 0.249577
         2         6         5         4     9      180.000000       10.972241         2    ;  uncertainty k = 0.263975
         2         6         5         4     9        0.000000       -0.456425         3    ;  uncertainty k = 0.296008
         2         6         5         4     9      180.000000        1.006159         4    ;  uncertainty k = 0.283835
         2         6         5        52     9        0.000000        0.212846         1    ;  uncertainty k = 0.128980
         2         6         5        52     9      180.000000        6.812381         2    ;  uncertainty k = 0.569349
         2         6         5        52     9        0.000000        1.463355         3    ;  uncertainty k = 0.301587
         2         6         5        52     9      180.000000        1.708153         4    ;  uncertainty k = 0.236238
         2         6         7         8     9        0.000000        0.539460         1    ;  uncertainty k = 0.961852
         2         6         7         8     9      180.000000        3.272687         2    ;  uncertainty k = 0.104662
         2         6         7         8     9        0.000000        0.567398         3    ;  uncertainty k = 0.109583
         2         6         7         8     9      180.000000       -0.004987         4    ;  uncertainty k = 0.045501
         2         6         7        10     9        0.000000        0.112760         1    ;  uncertainty k = 0.647467
         2         6         7        10     9      180.000000        3.203219         2    ;  uncertainty k = 0.141610
         2         6         7        10     9        0.000000        0.625220         3    ;  uncertainty k = 0.093847
         2         6         7        10     9      180.000000       -0.176507         4    ;  uncertainty k = 0.087849
         3         1         2         6     9        0.000000       -0.073704         1    ;  uncertainty k = 0.112978
         3         1         2         6     9      180.000000       14.231767         2    ;  uncertainty k = 0.206814
         3         1         2         6     9        0.000000       -0.840010         3    ;  uncertainty k = 0.394201
         3         1         2         6     9      180.000000        0.690887         4    ;  uncertainty k = 0.261611
         3         1         2        50     9        0.000000        0.072431         1    ;  uncertainty k = 0.049085
         3         1         2        50     9      180.000000        8.032941         2    ;  uncertainty k = 0.232492
         3         1         2        50     9        0.000000        1.453269         3    ;  uncertainty k = 0.246913
         3         1         2        50     9      180.000000        1.924672         4    ;  uncertainty k = 0.174586
         3         4         5         6     9        0.000000        0.110599         1    ;  uncertainty k = 0.181495
         3         4         5         6     9      180.000000        9.030047         2    ;  uncertainty k = 0.595323
         3         4         5         6     9        0.000000       -0.000307         3    ;  uncertainty k = 0.304337
         3         4         5         6     9      180.000000        1.231164         4    ;  uncertainty k = 0.343436
         3         4         5        52     9        0.000000        0.083180         1    ;  uncertainty k = 0.158662
         3         4         5        52     9      180.000000        5.869989         2    ;  uncertainty k = 0.587904
         3         4         5        52     9        0.000000        1.326453         3    ;  uncertainty k = 0.304130
         3         4         5        52     9      180.000000        1.627413         4    ;  uncertainty k = 0.161342
         4         3         1        49     9        0.000000       -0.054338         1    ;  uncertainty k = 0.123803
         4         3         1        49     9      180.000000        7.572712         2    ;  uncertainty k = 0.364767
         4         3         1        49     9        0.000000        1.386491         3    ;  uncertainty k = 0.285826
         4         3         1        49     9      180.000000        1.760219         4    ;  uncertainty k = 0.179332
         4         5         6         7     9        0.000000        0.089668         1    ;  uncertainty k = 0.399571
         4         5         6         7     9      180.000000        9.321015         2    ;  uncertainty k = 0.258513
         4         5         6         7     9        0.000000        1.175971         3    ;  uncertainty k = 0.171951
         4         5         6         7     9      180.000000        1.619564         4    ;  uncertainty k = 0.108778
         5         4         3        51     9        0.000000        0.018135         1    ;  uncertainty k = 0.128875
         5         4         3        51     9      180.000000        5.593217         2    ;  uncertainty k = 0.666450
         5         4         3        51     9        0.000000        1.268007         3    ;  uncertainty k = 0.310756
         5         4         3        51     9      180.000000        1.494776         4    ;  uncertainty k = 0.120072
         5         6         2        50     9        0.000000        0.115860         1    ;  uncertainty k = 0.221417
         5         6         2        50     9      180.000000        6.908621         2    ;  uncertainty k = 0.598095
         5         6         2        50     9        0.000000        1.448300         3    ;  uncertainty k = 0.241476
         5         6         2        50     9      180.000000        1.728709         4    ;  uncertainty k = 0.228609
         5         6         7         8     9        0.000000        0.009401         1    ;  uncertainty k = 0.945595
         5         6         7         8     9      180.000000        3.240081         2    ;  uncertainty k = 0.072446
         5         6         7         8     9        0.000000        0.626822         3    ;  uncertainty k = 0.101440
         5         6         7         8     9      180.000000        0.004819         4    ;  uncertainty k = 0.075201
         5         6         7        10     9        0.000000        0.358678         1    ;  uncertainty k = 0.576455
         5         6         7        10     9      180.000000        3.169243         2    ;  uncertainty k = 0.129461
         5         6         7        10     9        0.000000        0.539958         3    ;  uncertainty k = 0.177591
         5         6         7        10     9      180.000000       -0.192156         4    ;  uncertainty k = 0.087534
         6         2         1        49     9        0.000000        0.052283         1    ;  uncertainty k = 0.158173
         6         2         1        49     9      180.000000        7.619670         2    ;  uncertainty k = 0.264578
         6         2         1        49     9        0.000000        1.438848         3    ;  uncertainty k = 0.270388
         6         2         1        49     9      180.000000        1.841978         4    ;  uncertainty k = 0.127627
         6         5         4        44     9        0.000000       -0.044157         1    ;  uncertainty k = 0.256070
         6         5         4        44     9      180.000000       12.870450         2    ;  uncertainty k = 0.518952
         6         5         4        44     9        0.000000        1.603588         3    ;  uncertainty k = 0.325058
         6         5         4        44     9      180.000000        1.467509         4    ;  uncertainty k = 0.183847
         6         7         8         9     9        0.000000        0.379931         1    ;  uncertainty k = 0.978158
         6         7         8         9     9      180.000000       17.002426         2    ;  uncertainty k = 0.319600
         6         7         8         9     9        0.000000        1.904105         3    ;  uncertainty k = 0.507441
         6         7         8         9     9      180.000000        1.043578         4    ;  uncertainty k = 0.337402
         6         7        10        11     9        0.000000        0.784265         1    ;  uncertainty k = 0.824695
         6         7        10        11     9      180.000000       13.335876         2    ;  uncertainty k = 0.171094
         6         7        10        11     9        0.000000        1.601358         3    ;  uncertainty k = 0.427568
         6         7        10        11     9      180.000000        0.808075         4    ;  uncertainty k = 0.357233
         6         7        10        29     9        0.000000        0.337755         1    ;  uncertainty k = 0.471754
         6         7        10        29     9      180.000000        5.777386         2    ;  uncertainty k = 1.033808
         6         7        10        29     9        0.000000        1.230467         3    ;  uncertainty k = 0.609693
         6         7        10        29     9      180.000000        0.353057         4    ;  uncertainty k = 0.097831
         7         6         2        50     9        0.000000       -0.232113         1    ;  uncertainty k = 0.334596
         7         6         2        50     9      180.000000        7.266642         2    ;  uncertainty k = 0.179971
         7         6         2        50     9        0.000000        0.802649         3    ;  uncertainty k = 0.222368
         7         6         2        50     9      180.000000        1.161850         4    ;  uncertainty k = 0.225545
         7         6         5        52     9        0.000000       -0.307245         1    ;  uncertainty k = 0.379938
         7         6         5        52     9      180.000000        7.120190         2    ;  uncertainty k = 0.214153
         7         6         5        52     9        0.000000        0.747850         3    ;  uncertainty k = 0.268231
         7         6         5        52     9      180.000000        1.106539         4    ;  uncertainty k = 0.255325
         7         8         9        11     9        0.000000       -1.291937         1    ;  uncertainty k = 1.899978
         7         8         9        11     9      180.000000       32.070527         2    ;  uncertainty k = 0.745479
         7         8         9        11     9        0.000000       -7.747520         3    ;  uncertainty k = 3.611915
         7         8         9        11     9      180.000000        2.370576         4    ;  uncertainty k = 0.500447
         7        10        11         9     9        0.000000       -0.300500         1    ;  uncertainty k = 0.804803
         7        10        11         9     9      180.000000       15.845301         2    ;  uncertainty k = 0.779549
         7        10        11         9     9        0.000000       -9.917379         3    ;  uncertainty k = 0.610620
         7        10        11         9     9      180.000000        1.456034         4    ;  uncertainty k = 0.461533
         7        10        11        12     9        0.000000        1.259911         1    ;  uncertainty k = 0.528423
         7        10        11        12     9      180.000000        9.757852         2    ;  uncertainty k = 0.660847
         7        10        11        12     9        0.000000        2.057823         3    ;  uncertainty k = 0.698186
         7        10        11        12     9      180.000000       -0.151018         4    ;  uncertainty k = 0.213241
         8         7        10        11     9        0.000000       -0.206089         1    ;  uncertainty k = 0.546739
         8         7        10        11     9      180.000000       20.351809         2    ;  uncertainty k = 0.363731
         8         7        10        11     9        0.000000      -11.647802         3    ;  uncertainty k = 0.362498
         8         7        10        11     9      180.000000        1.716203         4    ;  uncertainty k = 0.705430
         8         7        10        29     9        0.000000        0.261678         1    ;  uncertainty k = 0.634408
         8         7        10        29     9      180.000000       12.419304         2    ;  uncertainty k = 0.476204
         8         7        10        29     9        0.000000        1.534205         3    ;  uncertainty k = 0.492841
         8         7        10        29     9      180.000000        0.689165         4    ;  uncertainty k = 0.356114
         8         9        11        10     9        0.000000        0.002025         1    ;  uncertainty k = 0.585855
         8         9        11        10     9      180.000000       21.850034         2    ;  uncertainty k = 0.258023
         8         9        11        10     9        0.000000       -8.980968         3    ;  uncertainty k = 1.601288
         8         9        11        10     9      180.000000        1.717952         4    ;  uncertainty k = 0.437294
         8         9        11        12     9        0.000000        0.022199         1    ;  uncertainty k = 1.641851
         8         9        11        12     9      180.000000       20.234785         2    ;  uncertainty k = 0.175558
         8         9        11        12     9        0.000000        2.001586         3    ;  uncertainty k = 0.834610
         8         9        11        12     9      180.000000        0.016990         4    ;  uncertainty k = 0.143205
         9         8         7        10     9        0.000000       -0.170586         1    ;  uncertainty k = 0.530972
         9         8         7        10     9      180.000000       17.900329         2    ;  uncertainty k = 0.705484
         9         8         7        10     9        0.000000       -6.897814         3    ;  uncertainty k = 0.780879
         9         8         7        10     9      180.000000        2.171020         4    ;  uncertainty k = 0.266621
         9        11        10        29     9        0.000000        1.319198         1    ;  uncertainty k = 0.786472
         9        11        10        29     9      180.000000       12.213801         2    ;  uncertainty k = 0.745567
         9        11        10        29     9        0.000000        1.499155         3    ;  uncertainty k = 0.313534
         9        11        10        29     9      180.000000        0.089699         4    ;  uncertainty k = 0.236838
         9        11        12        13     9        0.000000       -0.009105         1    ;  uncertainty k = 0.692244
         9        11        12        13     9      180.000000        0.066711         2    ;  uncertainty k = 0.246017
         9        11        12        13     9        0.000000        0.312028         3    ;  uncertainty k = 0.123630
         9        11        12        13     9      180.000000        0.103161         4    ;  uncertainty k = 0.076901
         9        11        12        15     9        0.000000       -0.106158         1    ;  uncertainty k = 0.777761
         9        11        12        15     9      180.000000        0.064579         2    ;  uncertainty k = 0.226843
         9        11        12        15     9        0.000000        0.308178         3    ;  uncertainty k = 0.149986
         9        11        12        15     9      180.000000        0.113248         4    ;  uncertainty k = 0.070341
         9        11        12        30     9        0.000000        0.714307         1    ;  uncertainty k = 0.983851
         9        11        12        30     9      180.000000        0.364247         2    ;  uncertainty k = 0.290736
         9        11        12        30     9        0.000000        0.522046         3    ;  uncertainty k = 0.247879
         9        11        12        30     9      180.000000        0.241460         4    ;  uncertainty k = 0.108131
        10        11        12        13     9        0.000000       -0.116624         1    ;  uncertainty k = 0.898323
        10        11        12        13     9      180.000000        0.228241         2    ;  uncertainty k = 0.307134
        10        11        12        13     9        0.000000        0.646881         3    ;  uncertainty k = 0.202629
        10        11        12        13     9      180.000000        0.153052         4    ;  uncertainty k = 0.156901
        10        11        12        15     9        0.000000       -0.116930         1    ;  uncertainty k = 0.870122
        10        11        12        15     9      180.000000        0.224271         2    ;  uncertainty k = 0.261067
        10        11        12        15     9        0.000000        0.649323         3    ;  uncertainty k = 0.190560
        10        11        12        15     9      180.000000        0.153987         4    ;  uncertainty k = 0.155077
        10        11        12        30     9        0.000000       -1.544068         1    ;  uncertainty k = 0.622477
        10        11        12        30     9      180.000000        0.319932         2    ;  uncertainty k = 0.418987
        10        11        12        30     9        0.000000        0.745504         3    ;  uncertainty k = 0.271164
        10        11        12        30     9      180.000000        0.194031         4    ;  uncertainty k = 0.031627
        11        12        13        14     9        0.000000       -0.147358         1    ;  uncertainty k = 0.797265
        11        12        13        14     9      180.000000       -1.698827         2    ;  uncertainty k = 0.980893
        11        12        13        14     9        0.000000        1.227299         3    ;  uncertainty k = 0.349651
        11        12        13        14     9      180.000000        0.166080         4    ;  uncertainty k = 0.174093
        11        12        13        21     9        0.000000       -2.016394         1    ;  uncertainty k = 1.590031
        11        12        13        21     9      180.000000        0.086928         2    ;  uncertainty k = 0.816425
        11        12        13        21     9        0.000000        0.341197         3    ;  uncertainty k = 0.189461
        11        12        13        21     9      180.000000        0.048646         4    ;  uncertainty k = 0.109494
        11        12        13        31     9        0.000000        2.337077         1    ;  uncertainty k = 0.931591
        11        12        13        31     9      180.000000       -1.235715         2    ;  uncertainty k = 0.658162
        11        12        13        31     9        0.000000        0.372495         3    ;  uncertainty k = 0.191479
        11        12        13        31     9      180.000000       -0.062935         4    ;  uncertainty k = 0.197249
        11        12        15        16     9        0.000000       -0.347792         1    ;  uncertainty k = 1.034762
        11        12        15        16     9      180.000000       -1.789150         2    ;  uncertainty k = 0.958867
        11        12        15        16     9        0.000000        1.275832         3    ;  uncertainty k = 0.359262
        11        12        15        16     9      180.000000        0.170499         4    ;  uncertainty k = 0.181086
        11        12        15        17     9        0.000000       -2.542908         1    ;  uncertainty k = 1.256796
        11        12        15        17     9      180.000000        0.379972         2    ;  uncertainty k = 0.786625
        11        12        15        17     9        0.000000        0.405235         3    ;  uncertainty k = 0.173097
        11        12        15        17     9      180.000000        0.013644         4    ;  uncertainty k = 0.156073
        11        12        15        33     9        0.000000        2.403955         1    ;  uncertainty k = 0.872134
        11        12        15        33     9      180.000000       -1.306092         2    ;  uncertainty k = 0.681026
        11        12        15        33     9        0.000000        0.349530         3    ;  uncertainty k = 0.202678
        11        12        15        33     9      180.000000       -0.059130         4    ;  uncertainty k = 0.195345
        12        11        10        29     9        0.000000       -0.225807         1    ;  uncertainty k = 0.478356
        12        11        10        29     9      180.000000        3.426642         2    ;  uncertainty k = 0.480749
        12        11        10        29     9        0.000000        1.136219         3    ;  uncertainty k = 0.409239
        12        11        10        29     9      180.000000        0.058273         4    ;  uncertainty k = 0.191148
        12        13        14        32     9        0.000000       19.044279         1    ;  uncertainty k = 0.344640
        12        13        14        32     9      180.000000       -4.420536         2    ;  uncertainty k = 0.691287
        12        13        14        32     9        0.000000        1.320106         3    ;  uncertainty k = 0.147243
        12        13        14        32     9      180.000000        0.341335         4    ;  uncertainty k = 0.134615
        12        13        21        20     9        0.000000        2.476190         1    ;  uncertainty k = 1.472552
        12        13        21        20     9      180.000000       -0.994219         2    ;  uncertainty k = 0.524314
        12        13        21        20     9        0.000000        0.317990         3    ;  uncertainty k = 0.156301
        12        13        21        20     9      180.000000       -0.304493         4    ;  uncertainty k = 0.208551
        12        13        21        22     9        0.000000        4.940144         1    ;  uncertainty k = 2.504019
        12        13        21        22     9      180.000000       -2.238992         2    ;  uncertainty k = 1.274267
        12        13        21        22     9        0.000000       -0.074955         3    ;  uncertainty k = 0.452027
        12        13        21        22     9      180.000000        0.245914         4    ;  uncertainty k = 0.382620
        12        13        21        39     9        0.000000        1.847884         1    ;  uncertainty k = 1.045974
        12        13        21        39     9      180.000000       -1.923607         2    ;  uncertainty k = 0.722349
        12        13        21        39     9        0.000000       -0.575999         3    ;  uncertainty k = 0.258125
        12        13        21        39     9      180.000000       -0.003987         4    ;  uncertainty k = 0.220980
        12        15        16        34     9        0.000000       18.958064         1    ;  uncertainty k = 0.310976
        12        15        16        34     9      180.000000       -4.586035         2    ;  uncertainty k = 0.581125
        12        15        16        34     9        0.000000        1.334176         3    ;  uncertainty k = 0.130127
        12        15        16        34     9      180.000000        0.345473         4    ;  uncertainty k = 0.145001
        12        15        17        18     9        0.000000       -1.308231         1    ;  uncertainty k = 0.869332
        12        15        17        18     9      180.000000        0.094018         2    ;  uncertainty k = 0.478296
        12        15        17        18     9        0.000000       -0.367923         3    ;  uncertainty k = 0.241802
        12        15        17        18     9      180.000000       -0.399938         4    ;  uncertainty k = 0.145659
        12        15        17        20     9        0.000000        3.553061         1    ;  uncertainty k = 0.895519
        12        15        17        20     9      180.000000       -2.208702         2    ;  uncertainty k = 0.359186
        12        15        17        20     9        0.000000        0.326549         3    ;  uncertainty k = 0.294440
        12        15        17        20     9      180.000000       -0.285750         4    ;  uncertainty k = 0.285027
        12        15        17        35     9        0.000000        2.036427         1    ;  uncertainty k = 1.131719
        12        15        17        35     9      180.000000       -2.349776         2    ;  uncertainty k = 0.563042
        12        15        17        35     9        0.000000       -0.763005         3    ;  uncertainty k = 0.211769
        12        15        17        35     9      180.000000        0.143621         4    ;  uncertainty k = 0.154913
        13        12        15        16     9        0.000000       -3.448269         1    ;  uncertainty k = 1.266604
        13        12        15        16     9      180.000000        0.305704         2    ;  uncertainty k = 0.570105
        13        12        15        16     9        0.000000        0.393945         3    ;  uncertainty k = 0.364929
        13        12        15        16     9      180.000000        0.151720         4    ;  uncertainty k = 0.175027
        13        12        15        17     9        0.000000        0.874429         1    ;  uncertainty k = 2.283968
        13        12        15        17     9      180.000000       -0.220719         2    ;  uncertainty k = 1.293880
        13        12        15        17     9        0.000000       -0.343897         3    ;  uncertainty k = 0.575670
        13        12        15        17     9      180.000000       -1.183033         4    ;  uncertainty k = 0.285774
        13        12        15        33     9        0.000000       -0.713932         1    ;  uncertainty k = 0.769816
        13        12        15        33     9      180.000000       -0.384863         2    ;  uncertainty k = 0.311310
        13        12        15        33     9        0.000000       -0.334372         3    ;  uncertainty k = 0.125597
        13        12        15        33     9      180.000000       -0.140088         4    ;  uncertainty k = 0.056708
        13        21        20        17     9        0.000000        0.917470         1    ;  uncertainty k = 0.954609
        13        21        20        17     9      180.000000       -1.288452         2    ;  uncertainty k = 0.653278
        13        21        20        17     9        0.000000       -0.220560         3    ;  uncertainty k = 0.269291
        13        21        20        17     9      180.000000        0.068427         4    ;  uncertainty k = 0.310172
        13        21        22        23     9        0.000000        2.007748         1    ;  uncertainty k = 1.077285
        13        21        22        23     9      180.000000       -1.565577         2    ;  uncertainty k = 0.676593
        13        21        22        23     9        0.000000        0.919131         3    ;  uncertainty k = 0.274750
        13        21        22        23     9      180.000000        0.227517         4    ;  uncertainty k = 0.084913
        14        13        12        15     9        0.000000       -3.578282         1    ;  uncertainty k = 1.035681
        14        13        12        15     9      180.000000        0.410067         2    ;  uncertainty k = 0.568989
        14        13        12        15     9        0.000000        0.367593         3    ;  uncertainty k = 0.369072
        14        13        12        15     9      180.000000        0.155951         4    ;  uncertainty k = 0.234608
        14        13        12        30     9        0.000000       -0.277446         1    ;  uncertainty k = 0.257119
        14        13        12        30     9      180.000000       -0.078068         2    ;  uncertainty k = 0.367591
        14        13        12        30     9        0.000000        0.607389         3    ;  uncertainty k = 0.240198
        14        13        12        30     9      180.000000       -0.047773         4    ;  uncertainty k = 0.122692
        14        13        21        20     9        0.000000       -2.698621         1    ;  uncertainty k = 1.293589
        14        13        21        20     9      180.000000       -0.125900         2    ;  uncertainty k = 1.044604
        14        13        21        20     9        0.000000        1.801831         3    ;  uncertainty k = 0.166031
        14        13        21        20     9      180.000000       -0.136263         4    ;  uncertainty k = 0.170447
        14        13        21        22     9        0.000000        5.310159         1    ;  uncertainty k = 0.577732
        14        13        21        22     9      180.000000       -1.858820         2    ;  uncertainty k = 0.847232
        14        13        21        22     9        0.000000        1.450881         3    ;  uncertainty k = 0.493019
        14        13        21        22     9      180.000000        0.366462         4    ;  uncertainty k = 0.119783
        14        13        21        39     9        0.000000       -0.793494         1    ;  uncertainty k = 0.377453
        14        13        21        39     9      180.000000        0.444309         2    ;  uncertainty k = 0.325823
        14        13        21        39     9        0.000000        0.779019         3    ;  uncertainty k = 0.275482
        14        13        21        39     9      180.000000       -0.005974         4    ;  uncertainty k = 0.167622
        15        12        13        21     9        0.000000        1.882885         1    ;  uncertainty k = 3.197102
        15        12        13        21     9      180.000000       -0.079189         2    ;  uncertainty k = 1.467430
        15        12        13        21     9        0.000000       -0.301895         3    ;  uncertainty k = 0.422850
        15        12        13        21     9      180.000000       -1.165809         4    ;  uncertainty k = 0.225366
        15        12        13        31     9        0.000000       -0.661686         1    ;  uncertainty k = 0.822951
        15        12        13        31     9      180.000000       -0.334970         2    ;  uncertainty k = 0.296578
        15        12        13        31     9        0.000000       -0.318884         3    ;  uncertainty k = 0.088763
        15        12        13        31     9      180.000000       -0.125217         4    ;  uncertainty k = 0.064688
        15        17        18        19     9        0.000000       -3.500645         1    ;  uncertainty k = 0.864914
        15        17        18        19     9      180.000000       -0.040227         2    ;  uncertainty k = 0.302685
        15        17        18        19     9        0.000000        1.496269         3    ;  uncertainty k = 0.173304
        15        17        18        19     9      180.000000       -0.330862         4    ;  uncertainty k = 0.160910
        15        17        18        36     9        0.000000       -0.389752         1    ;  uncertainty k = 0.566702
        15        17        18        36     9      180.000000       -0.633416         2    ;  uncertainty k = 0.206369
        15        17        18        36     9        0.000000        0.100397         3    ;  uncertainty k = 0.128757
        15        17        18        36     9      180.000000       -0.241270         4    ;  uncertainty k = 0.092306
        15        17        18        37     9        0.000000       -0.389752         1    ;  uncertainty k = 0.566702
        15        17        18        37     9      180.000000       -0.633416         2    ;  uncertainty k = 0.206369
        15        17        18        37     9        0.000000        0.100397         3    ;  uncertainty k = 0.128757
        15        17        18        37     9      180.000000       -0.241270         4    ;  uncertainty k = 0.092306
        15        17        20        21     9        0.000000        1.710819         1    ;  uncertainty k = 1.967719
        15        17        20        21     9      180.000000       -2.820808         2    ;  uncertainty k = 0.590799
        15        17        20        21     9        0.000000       -0.265511         3    ;  uncertainty k = 0.316061
        15        17        20        21     9      180.000000        0.030797         4    ;  uncertainty k = 0.180924
        16        15        12        30     9        0.000000       -0.321265         1    ;  uncertainty k = 0.177617
        16        15        12        30     9      180.000000       -0.103056         2    ;  uncertainty k = 0.359919
        16        15        12        30     9        0.000000        0.594651         3    ;  uncertainty k = 0.215430
        16        15        12        30     9      180.000000       -0.061306         4    ;  uncertainty k = 0.114212
        16        15        17        18     9        0.000000       -2.146249         1    ;  uncertainty k = 0.952515
        16        15        17        18     9      180.000000        0.106301         2    ;  uncertainty k = 0.229016
        16        15        17        18     9        0.000000        0.807370         3    ;  uncertainty k = 0.172859
        16        15        17        18     9      180.000000       -0.255912         4    ;  uncertainty k = 0.234311
        16        15        17        20     9        0.000000       -3.683487         1    ;  uncertainty k = 1.032183
        16        15        17        20     9      180.000000       -0.908155         2    ;  uncertainty k = 0.571417
        16        15        17        20     9        0.000000        2.093692         3    ;  uncertainty k = 0.314978
        16        15        17        20     9      180.000000       -0.114035         4    ;  uncertainty k = 0.099391
        16        15        17        35     9        0.000000       -0.332347         1    ;  uncertainty k = 0.439850
        16        15        17        35     9      180.000000       -0.000255         2    ;  uncertainty k = 0.271243
        16        15        17        35     9        0.000000        0.580127         3    ;  uncertainty k = 0.193597
        16        15        17        35     9      180.000000       -0.095134         4    ;  uncertainty k = 0.183032
        17        15        12        30     9        0.000000       -1.471971         1    ;  uncertainty k = 0.757751
        17        15        12        30     9      180.000000       -0.387765         2    ;  uncertainty k = 0.427985
        17        15        12        30     9        0.000000       -0.386106         3    ;  uncertainty k = 0.127911
        17        15        12        30     9      180.000000       -0.123242         4    ;  uncertainty k = 0.108983
        17        15        16        34     9        0.000000       18.553540         1    ;  uncertainty k = 0.350139
        17        15        16        34     9      180.000000       -4.302102         2    ;  uncertainty k = 0.320512
        17        15        16        34     9        0.000000        1.261962         3    ;  uncertainty k = 0.099603
        17        15        16        34     9      180.000000        0.432553         4    ;  uncertainty k = 0.084339
        17        18        19        38     9        0.000000       12.803371         1    ;  uncertainty k = 0.176801
        17        18        19        38     9      180.000000       -4.408763         2    ;  uncertainty k = 0.479248
        17        18        19        38     9        0.000000        1.225569         3    ;  uncertainty k = 0.219872
        17        18        19        38     9      180.000000        0.130954         4    ;  uncertainty k = 0.066305
        17        20        21        22     9        0.000000       -2.926971         1    ;  uncertainty k = 3.130055
        17        20        21        22     9      180.000000       -2.564676         2    ;  uncertainty k = 1.420082
        17        20        21        22     9        0.000000        0.716063         3    ;  uncertainty k = 0.197310
        17        20        21        22     9      180.000000       -0.095130         4    ;  uncertainty k = 0.349354
        17        20        21        39     9        0.000000       -1.916764         1    ;  uncertainty k = 0.747113
        17        20        21        39     9      180.000000        0.286798         2    ;  uncertainty k = 0.756983
        17        20        21        39     9        0.000000        0.238864         3    ;  uncertainty k = 0.128323
        17        20        21        39     9      180.000000       -0.367195         4    ;  uncertainty k = 0.168117
        18        17        15        33     9        0.000000       -1.151783         1    ;  uncertainty k = 0.623435
        18        17        15        33     9      180.000000        0.138239         2    ;  uncertainty k = 0.201798
        18        17        15        33     9        0.000000       -0.215346         3    ;  uncertainty k = 0.154972
        18        17        15        33     9      180.000000       -0.318334         4    ;  uncertainty k = 0.121552
        18        17        20        21     9        0.000000       -4.857638         1    ;  uncertainty k = 1.137696
        18        17        20        21     9      180.000000        0.917053         2    ;  uncertainty k = 0.617072
        18        17        20        21     9        0.000000        0.320186         3    ;  uncertainty k = 0.288726
        18        17        20        21     9      180.000000       -0.125902         4    ;  uncertainty k = 0.250358
        19        18        17        20     9        0.000000       -1.195280         1    ;  uncertainty k = 0.547640
        19        18        17        20     9      180.000000       -3.298099         2    ;  uncertainty k = 0.199322
        19        18        17        20     9        0.000000        2.717044         3    ;  uncertainty k = 0.305228
        19        18        17        20     9      180.000000       -0.208307         4    ;  uncertainty k = 0.128814
        19        18        17        35     9        0.000000       -2.028010         1    ;  uncertainty k = 0.722924
        19        18        17        35     9      180.000000        0.685399         2    ;  uncertainty k = 0.313942
        19        18        17        35     9        0.000000        1.166981         3    ;  uncertainty k = 0.311765
        19        18        17        35     9      180.000000       -0.195732         4    ;  uncertainty k = 0.045240
        20        17        15        33     9        0.000000       -0.095707         1    ;  uncertainty k = 0.475472
        20        17        15        33     9      180.000000       -0.600072         2    ;  uncertainty k = 0.320846
        20        17        15        33     9        0.000000        0.248942         3    ;  uncertainty k = 0.333119
        20        17        15        33     9      180.000000        0.105109         4    ;  uncertainty k = 0.089467
        20        17        18        36     9        0.000000        0.526900         1    ;  uncertainty k = 0.329165
        20        17        18        36     9      180.000000       -1.466090         2    ;  uncertainty k = 0.305903
        20        17        18        36     9        0.000000        0.270792         3    ;  uncertainty k = 0.233657
        20        17        18        36     9      180.000000       -0.091616         4    ;  uncertainty k = 0.101291
        20        17        18        37     9        0.000000        0.526900         1    ;  uncertainty k = 0.329165
        20        17        18        37     9      180.000000       -1.466090         2    ;  uncertainty k = 0.305903
        20        17        18        37     9        0.000000        0.270792         3    ;  uncertainty k = 0.233657
        20        17        18        37     9      180.000000       -0.091616         4    ;  uncertainty k = 0.101291
        20        21        13        31     9        0.000000       -0.162108         1    ;  uncertainty k = 0.690391
        20        21        13        31     9      180.000000       -0.679322         2    ;  uncertainty k = 0.276900
        20        21        13        31     9        0.000000        0.226951         3    ;  uncertainty k = 0.338395
        20        21        13        31     9      180.000000        0.125752         4    ;  uncertainty k = 0.152593
        20        21        22        23     9        0.000000        3.183562         1    ;  uncertainty k = 0.884859
        20        21        22        23     9      180.000000       -5.436577         2    ;  uncertainty k = 0.699848
        20        21        22        23     9        0.000000        1.259612         3    ;  uncertainty k = 0.434034
        20        21        22        23     9      180.000000        0.368477         4    ;  uncertainty k = 0.291496
        21        13        12        30     9        0.000000       -1.226265         1    ;  uncertainty k = 0.720609
        21        13        12        30     9      180.000000       -0.617388         2    ;  uncertainty k = 0.393468
        21        13        12        30     9        0.000000       -0.401093         3    ;  uncertainty k = 0.103574
        21        13        12        30     9      180.000000       -0.116608         4    ;  uncertainty k = 0.090880
        21        13        14        32     9        0.000000       18.425671         1    ;  uncertainty k = 0.339412
        21        13        14        32     9      180.000000       -4.642088         2    ;  uncertainty k = 0.438829
        21        13        14        32     9        0.000000        1.143722         3    ;  uncertainty k = 0.149175
        21        13        14        32     9      180.000000        0.382008         4    ;  uncertainty k = 0.101401
        21        20        17        35     9        0.000000       -2.121900         1    ;  uncertainty k = 0.521152
        21        20        17        35     9      180.000000       -1.268057         2    ;  uncertainty k = 0.577886
        21        20        17        35     9        0.000000        0.231856         3    ;  uncertainty k = 0.127960
        21        20        17        35     9      180.000000       -0.237800         4    ;  uncertainty k = 0.180440
        21        22        23        24     9        0.000000        3.177932         1    ;  uncertainty k = 2.151279
        21        22        23        24     9      180.000000        2.740787         2    ;  uncertainty k = 0.263278
        21        22        23        24     9        0.000000        0.277594         3    ;  uncertainty k = 0.291896
        21        22        23        24     9      180.000000        0.328068         4    ;  uncertainty k = 0.080835
        21        22        23        28     9        0.000000        3.177932         1    ;  uncertainty k = 2.151279
        21        22        23        28     9      180.000000        2.740787         2    ;  uncertainty k = 0.263278
        21        22        23        28     9        0.000000        0.277594         3    ;  uncertainty k = 0.291896
        21        22        23        28     9      180.000000        0.328068         4    ;  uncertainty k = 0.080835
        22        21        13        31     9        0.000000        2.581950         1    ;  uncertainty k = 0.784321
        22        21        13        31     9      180.000000       -1.367223         2    ;  uncertainty k = 0.615574
        22        21        13        31     9        0.000000        0.413421         3    ;  uncertainty k = 0.158680
        22        21        13        31     9      180.000000       -0.024784         4    ;  uncertainty k = 0.117766
        22        23        24        25     9        0.000000        0.062072         1    ;  uncertainty k = 0.417313
        22        23        24        25     9      180.000000        7.419842         2    ;  uncertainty k = 0.519111
        22        23        24        25     9        0.000000        1.109992         3    ;  uncertainty k = 0.330811
        22        23        24        25     9      180.000000        1.700873         4    ;  uncertainty k = 0.103413
        22        23        24        40     9        0.000000       -0.324403         1    ;  uncertainty k = 0.406827
        22        23        24        40     9      180.000000        6.518985         2    ;  uncertainty k = 0.532134
        22        23        24        40     9        0.000000        0.789417         3    ;  uncertainty k = 0.187425
        22        23        24        40     9      180.000000        1.036678         4    ;  uncertainty k = 0.126625
        22        23        28        27     9        0.000000        0.062072         1    ;  uncertainty k = 0.417313
        22        23        28        27     9      180.000000        7.419842         2    ;  uncertainty k = 0.519111
        22        23        28        27     9        0.000000        1.109992         3    ;  uncertainty k = 0.330811
        22        23        28        27     9      180.000000        1.700873         4    ;  uncertainty k = 0.103413
        22        23        28        43     9        0.000000       -0.324403         1    ;  uncertainty k = 0.406827
        22        23        28        43     9      180.000000        6.518985         2    ;  uncertainty k = 0.532134
        22        23        28        43     9        0.000000        0.789417         3    ;  uncertainty k = 0.187425
        22        23        28        43     9      180.000000        1.036678         4    ;  uncertainty k = 0.126625
        23        22        21        39     9        0.000000        4.078705         1    ;  uncertainty k = 1.076481
        23        22        21        39     9      180.000000       -2.455779         2    ;  uncertainty k = 0.835987
        23        22        21        39     9        0.000000        0.554515         3    ;  uncertainty k = 0.127842
        23        22        21        39     9      180.000000       -0.001864         4    ;  uncertainty k = 0.210606
        23        24        25        26     9        0.000000       -0.127263         1    ;  uncertainty k = 0.141698
        23        24        25        26     9      180.000000       14.225482         2    ;  uncertainty k = 0.114156
        23        24        25        26     9        0.000000       -0.985336         3    ;  uncertainty k = 0.627196
        23        24        25        26     9      180.000000        0.658378         4    ;  uncertainty k = 0.330608
        23        24        25        41     9        0.000000       -0.008817         1    ;  uncertainty k = 0.089727
        23        24        25        41     9      180.000000        8.312278         2    ;  uncertainty k = 0.286072
        23        24        25        41     9        0.000000        1.348940         3    ;  uncertainty k = 0.188593
        23        24        25        41     9      180.000000        1.838528         4    ;  uncertainty k = 0.183015
        23        28        27        26     9        0.000000       -0.127263         1    ;  uncertainty k = 0.141698
        23        28        27        26     9      180.000000       14.225482         2    ;  uncertainty k = 0.114156
        23        28        27        26     9        0.000000       -0.985336         3    ;  uncertainty k = 0.627196
        23        28        27        26     9      180.000000        0.658378         4    ;  uncertainty k = 0.330608
        23        28        27        42     9        0.000000       -0.008817         1    ;  uncertainty k = 0.089727
        23        28        27        42     9      180.000000        8.312278         2    ;  uncertainty k = 0.286072
        23        28        27        42     9        0.000000        1.348940         3    ;  uncertainty k = 0.188593
        23        28        27        42     9      180.000000        1.838528         4    ;  uncertainty k = 0.183015
        24        23        28        27     9        0.000000       -0.156871         1    ;  uncertainty k = 0.126213
        24        23        28        27     9      180.000000       10.965607         2    ;  uncertainty k = 0.455519
        24        23        28        27     9        0.000000       -0.528095         3    ;  uncertainty k = 0.423553
        24        23        28        27     9      180.000000        0.857619         4    ;  uncertainty k = 0.432466
        24        23        28        43     9        0.000000        0.072440         1    ;  uncertainty k = 0.376040
        24        23        28        43     9      180.000000        6.562952         2    ;  uncertainty k = 0.763072
        24        23        28        43     9        0.000000        1.445396         3    ;  uncertainty k = 0.299971
        24        23        28        43     9      180.000000        1.585416         4    ;  uncertainty k = 0.178642
        24        25        26        27     9        0.000000       -0.193178         1    ;  uncertainty k = 0.184505
        24        25        26        27     9      180.000000       11.680381         2    ;  uncertainty k = 0.380066
        24        25        26        27     9        0.000000       -0.464248         3    ;  uncertainty k = 0.440275
        24        25        26        27     9      180.000000        0.808662         4    ;  uncertainty k = 0.464268
        24        25        26        45     9        0.000000        0.085947         1    ;  uncertainty k = 0.260078
        24        25        26        45     9      180.000000        9.181143         2    ;  uncertainty k = 0.434375
        24        25        26        45     9        0.000000        1.462752         3    ;  uncertainty k = 0.304781
        24        25        26        45     9      180.000000        1.830171         4    ;  uncertainty k = 0.164748
        25        24        23        28     9        0.000000       -0.156871         1    ;  uncertainty k = 0.126213
        25        24        23        28     9      180.000000       10.965607         2    ;  uncertainty k = 0.455519
        25        24        23        28     9        0.000000       -0.528095         3    ;  uncertainty k = 0.423553
        25        24        23        28     9      180.000000        0.857619         4    ;  uncertainty k = 0.432466
        25        26        27        28     9        0.000000       -0.193178         1    ;  uncertainty k = 0.184505
        25        26        27        28     9      180.000000       11.680381         2    ;  uncertainty k = 0.380066
        25        26        27        28     9        0.000000       -0.464248         3    ;  uncertainty k = 0.440275
        25        26        27        28     9      180.000000        0.808662         4    ;  uncertainty k = 0.464268
        25        26        27        42     9        0.000000        0.033450         1    ;  uncertainty k = 0.124148
        25        26        27        42     9      180.000000        7.140961         2    ;  uncertainty k = 0.383307
        25        26        27        42     9        0.000000        1.479885         3    ;  uncertainty k = 0.375479
        25        26        27        42     9      180.000000        1.615246         4    ;  uncertainty k = 0.151832
        25        26        45        46     9        0.000000        0.024708         1    ;  uncertainty k = 0.037574
        25        26        45        46     9      180.000000        1.245377         2    ;  uncertainty k = 0.103962
        25        26        45        46     9        0.000000        0.346041         3    ;  uncertainty k = 0.034499
        25        26        45        46     9      180.000000        0.177401         4    ;  uncertainty k = 0.012952
        25        26        45        47     9        0.000000        0.024708         1    ;  uncertainty k = 0.037574
        25        26        45        47     9      180.000000        1.245377         2    ;  uncertainty k = 0.103962
        25        26        45        47     9        0.000000        0.346041         3    ;  uncertainty k = 0.034499
        25        26        45        47     9      180.000000        0.177401         4    ;  uncertainty k = 0.012952
        25        26        45        48     9        0.000000        0.024708         1    ;  uncertainty k = 0.037574
        25        26        45        48     9      180.000000        1.245377         2    ;  uncertainty k = 0.103962
        25        26        45        48     9        0.000000        0.346041         3    ;  uncertainty k = 0.034499
        25        26        45        48     9      180.000000        0.177401         4    ;  uncertainty k = 0.012952
        26        25        24        40     9        0.000000        0.124113         1    ;  uncertainty k = 0.209646
        26        25        24        40     9      180.000000        7.646778         2    ;  uncertainty k = 0.344928
        26        25        24        40     9        0.000000        1.407906         3    ;  uncertainty k = 0.235482
        26        25        24        40     9      180.000000        1.836191         4    ;  uncertainty k = 0.152560
        26        27        28        43     9        0.000000        0.124113         1    ;  uncertainty k = 0.209646
        26        27        28        43     9      180.000000        7.646778         2    ;  uncertainty k = 0.344928
        26        27        28        43     9        0.000000        1.407906         3    ;  uncertainty k = 0.235482
        26        27        28        43     9      180.000000        1.836191         4    ;  uncertainty k = 0.152560
        27        26        25        41     9        0.000000        0.033450         1    ;  uncertainty k = 0.124148
        27        26        25        41     9      180.000000        7.140961         2    ;  uncertainty k = 0.383307
        27        26        25        41     9        0.000000        1.479885         3    ;  uncertainty k = 0.375479
        27        26        25        41     9      180.000000        1.615246         4    ;  uncertainty k = 0.151832
        27        26        45        46     9        0.000000        0.024708         1    ;  uncertainty k = 0.037574
        27        26        45        46     9      180.000000        1.245377         2    ;  uncertainty k = 0.103962
        27        26        45        46     9        0.000000        0.346041         3    ;  uncertainty k = 0.034499
        27        26        45        46     9      180.000000        0.177401         4    ;  uncertainty k = 0.012952
        27        26        45        47     9        0.000000        0.024708         1    ;  uncertainty k = 0.037574
        27        26        45        47     9      180.000000        1.245377         2    ;  uncertainty k = 0.103962
        27        26        45        47     9        0.000000        0.346041         3    ;  uncertainty k = 0.034499
        27        26        45        47     9      180.000000        0.177401         4    ;  uncertainty k = 0.012952
        27        26        45        48     9        0.000000        0.024708         1    ;  uncertainty k = 0.037574
        27        26        45        48     9      180.000000        1.245377         2    ;  uncertainty k = 0.103962
        27        26        45        48     9        0.000000        0.346041         3    ;  uncertainty k = 0.034499
        27        26        45        48     9      180.000000        0.177401         4    ;  uncertainty k = 0.012952
        28        23        24        40     9        0.000000        0.072440         1    ;  uncertainty k = 0.376040
        28        23        24        40     9      180.000000        6.562952         2    ;  uncertainty k = 0.763072
        28        23        24        40     9        0.000000        1.445396         3    ;  uncertainty k = 0.299971
        28        23        24        40     9      180.000000        1.585416         4    ;  uncertainty k = 0.178642
        28        27        26        45     9        0.000000        0.085947         1    ;  uncertainty k = 0.260078
        28        27        26        45     9      180.000000        9.181143         2    ;  uncertainty k = 0.434375
        28        27        26        45     9        0.000000        1.462752         3    ;  uncertainty k = 0.304781
        28        27        26        45     9      180.000000        1.830171         4    ;  uncertainty k = 0.164748
        30        12        13        31     9        0.000000        0.737636         1    ;  uncertainty k = 0.403740
        30        12        13        31     9      180.000000       -0.466697         2    ;  uncertainty k = 0.387474
        30        12        13        31     9        0.000000       -0.165766         3    ;  uncertainty k = 0.332283
        30        12        13        31     9      180.000000       -0.168513         4    ;  uncertainty k = 0.127703
        30        12        15        33     9        0.000000        0.782112         1    ;  uncertainty k = 0.449114
        30        12        15        33     9      180.000000       -0.479108         2    ;  uncertainty k = 0.387845
        30        12        15        33     9        0.000000       -0.193577         3    ;  uncertainty k = 0.312499
        30        12        15        33     9      180.000000       -0.172114         4    ;  uncertainty k = 0.106697
        31        13        14        32     9        0.000000       15.402551         1    ;  uncertainty k = 0.447078
        31        13        14        32     9      180.000000       -1.787025         2    ;  uncertainty k = 0.288762
        31        13        14        32     9        0.000000        0.563549         3    ;  uncertainty k = 0.141418
        31        13        14        32     9      180.000000        0.388149         4    ;  uncertainty k = 0.058640
        31        13        21        39     9        0.000000       -0.190583         1    ;  uncertainty k = 0.256009
        31        13        21        39     9      180.000000       -0.018306         2    ;  uncertainty k = 0.316387
        31        13        21        39     9        0.000000        0.129412         3    ;  uncertainty k = 0.264290
        31        13        21        39     9      180.000000       -0.212594         4    ;  uncertainty k = 0.201546
        33        15        16        34     9        0.000000       15.204568         1    ;  uncertainty k = 0.383293
        33        15        16        34     9      180.000000       -2.008800         2    ;  uncertainty k = 0.361223
        33        15        16        34     9        0.000000        0.572217         3    ;  uncertainty k = 0.162951
        33        15        16        34     9      180.000000        0.405645         4    ;  uncertainty k = 0.081230
        33        15        17        35     9        0.000000        0.295960         1    ;  uncertainty k = 0.296986
        33        15        17        35     9      180.000000       -0.050225         2    ;  uncertainty k = 0.461878
        33        15        17        35     9        0.000000       -0.200187         3    ;  uncertainty k = 0.217268
        33        15        17        35     9      180.000000       -0.260240         4    ;  uncertainty k = 0.109658
        35        17        18        36     9        0.000000       -0.167653         1    ;  uncertainty k = 0.174272
        35        17        18        36     9      180.000000       -0.232874         2    ;  uncertainty k = 0.123290
        35        17        18        36     9        0.000000        0.093127         3    ;  uncertainty k = 0.089625
        35        17        18        36     9      180.000000       -0.087467         4    ;  uncertainty k = 0.104346
        35        17        18        37     9        0.000000       -0.167653         1    ;  uncertainty k = 0.174272
        35        17        18        37     9      180.000000       -0.232874         2    ;  uncertainty k = 0.123290
        35        17        18        37     9        0.000000        0.093127         3    ;  uncertainty k = 0.089625
        35        17        18        37     9      180.000000       -0.087467         4    ;  uncertainty k = 0.104346
        36        18        19        38     9        0.000000       10.479494         1    ;  uncertainty k = 0.097216
        36        18        19        38     9      180.000000       -1.870970         2    ;  uncertainty k = 0.389127
        36        18        19        38     9        0.000000        0.826769         3    ;  uncertainty k = 0.020297
        36        18        19        38     9      180.000000        0.085753         4    ;  uncertainty k = 0.063309
        37        18        19        38     9        0.000000       10.479494         1    ;  uncertainty k = 0.097216
        37        18        19        38     9      180.000000       -1.870970         2    ;  uncertainty k = 0.389127
        37        18        19        38     9        0.000000        0.826769         3    ;  uncertainty k = 0.020297
        37        18        19        38     9      180.000000        0.085753         4    ;  uncertainty k = 0.063309
        40        24        25        41     9        0.000000       -0.157292         1    ;  uncertainty k = 0.178485
        40        24        25        41     9      180.000000        7.628097         2    ;  uncertainty k = 0.442866
        40        24        25        41     9        0.000000       -0.477939         3    ;  uncertainty k = 0.282385
        40        24        25        41     9      180.000000        0.148042         4    ;  uncertainty k = 0.156058
        41        25        26        45     9        0.000000       -0.391576         1    ;  uncertainty k = 0.425690
        41        25        26        45     9      180.000000        8.399313         2    ;  uncertainty k = 0.266950
        41        25        26        45     9        0.000000        0.463757         3    ;  uncertainty k = 0.267844
        41        25        26        45     9      180.000000        0.838733         4    ;  uncertainty k = 0.257393
        42        27        26        45     9        0.000000       -0.391576         1    ;  uncertainty k = 0.425690
        42        27        26        45     9      180.000000        8.399313         2    ;  uncertainty k = 0.266950
        42        27        26        45     9        0.000000        0.463756         3    ;  uncertainty k = 0.267844
        42        27        26        45     9      180.000000        0.838733         4    ;  uncertainty k = 0.257393
        42        27        28        43     9        0.000000       -0.157292         1    ;  uncertainty k = 0.178485
        42        27        28        43     9      180.000000        7.628097         2    ;  uncertainty k = 0.442866
        42        27        28        43     9        0.000000       -0.477939         3    ;  uncertainty k = 0.282385
        42        27        28        43     9      180.000000        0.148042         4    ;  uncertainty k = 0.156058
        44         4         3        51     9        0.000000       -0.325141         1    ;  uncertainty k = 0.225538
        44         4         3        51     9      180.000000        8.831102         2    ;  uncertainty k = 0.284618
        44         4         3        51     9        0.000000        0.777071         3    ;  uncertainty k = 0.236531
        44         4         3        51     9      180.000000        0.922283         4    ;  uncertainty k = 0.147068
        44         4         5        52     9        0.000000       -0.409160         1    ;  uncertainty k = 0.197482
        44         4         5        52     9      180.000000        9.158358         2    ;  uncertainty k = 0.410239
        44         4         5        52     9        0.000000        0.799129         3    ;  uncertainty k = 0.211462
        44         4         5        52     9      180.000000        1.030289         4    ;  uncertainty k = 0.223307
        49         1         2        50     9        0.000000       -0.076970         1    ;  uncertainty k = 0.147024
        49         1         2        50     9      180.000000        7.806318         2    ;  uncertainty k = 0.386614
        49         1         2        50     9        0.000000       -0.435860         3    ;  uncertainty k = 0.256266
        49         1         2        50     9      180.000000        0.111803         4    ;  uncertainty k = 0.128475
        49         1         3        51     9        0.000000       -0.053944         1    ;  uncertainty k = 0.091733
        49         1         3        51     9      180.000000        7.535257         2    ;  uncertainty k = 0.523923
        49         1         3        51     9        0.000000       -0.419455         3    ;  uncertainty k = 0.275522
        49         1         3        51     9      180.000000        0.028285         4    ;  uncertainty k = 0.163175

[ dihedrals ] ; impropers
;       ai        aj        ak        al funct           phase               k        pn
         1         2         3        49     4      180.000000        4.503601         2    ;  uncertainty k = 0.126482
         1         3        49         2     4      180.000000        4.503601         2    ;  uncertainty k = 0.126482
         1        49         2         3     4      180.000000        4.503601         2    ;  uncertainty k = 0.126482
         2         1         6        50     4      180.000000        3.345112         2    ;  uncertainty k = 0.144073
         2         6        50         1     4      180.000000        3.345112         2    ;  uncertainty k = 0.144073
         2        50         1         6     4      180.000000        3.345112         2    ;  uncertainty k = 0.144073
         3         1         4        51     4      180.000000        2.181542         2    ;  uncertainty k = 0.295118
         3         4        51         1     4      180.000000        2.181542         2    ;  uncertainty k = 0.295118
         3        51         1         4     4      180.000000        2.181542         2    ;  uncertainty k = 0.295118
         4         3         5        44     4      180.000000       17.065692         2    ;  uncertainty k = 0.040534
         4         5        44         3     4      180.000000       17.065692         2    ;  uncertainty k = 0.040534
         4        44         3         5     4      180.000000       17.065692         2    ;  uncertainty k = 0.040534
         5         4         6        52     4      180.000000        2.222924         2    ;  uncertainty k = 0.262179
         5         6        52         4     4      180.000000        2.222924         2    ;  uncertainty k = 0.262179
         5        52         4         6     4      180.000000        2.222924         2    ;  uncertainty k = 0.262179
         6         2         5         7     4      180.000000       12.760298         2    ;  uncertainty k = 0.049581
         6         5         7         2     4      180.000000       12.760298         2    ;  uncertainty k = 0.049581
         6         7         2         5     4      180.000000       12.760298         2    ;  uncertainty k = 0.049581
         7         6         8        10     4      180.000000        4.920715         2    ;  uncertainty k = 0.602177
         7         8        10         6     4      180.000000        4.920715         2    ;  uncertainty k = 0.602177
         7        10         6         8     4      180.000000        4.920715         2    ;  uncertainty k = 0.602177
        10         7        11        29     4      180.000000        0.387794         2    ;  uncertainty k = 0.867133
        10        11        29         7     4      180.000000        0.387794         2    ;  uncertainty k = 0.867133
        10        29         7        11     4      180.000000        0.387794         2    ;  uncertainty k = 0.867133
        23        22        24        28     4      180.000000       11.790034         2    ;  uncertainty k = 0.101837
        23        24        28        22     4      180.000000       11.790034         2    ;  uncertainty k = 0.101837
        23        28        22        24     4      180.000000       11.790034         2    ;  uncertainty k = 0.101837
        24        23        25        40     4      180.000000        4.631440         2    ;  uncertainty k = 0.175194
        24        25        40        23     4      180.000000        4.631440         2    ;  uncertainty k = 0.175194
        24        40        23        25     4      180.000000        4.631440         2    ;  uncertainty k = 0.175194
        25        24        26        41     4      180.000000        3.995376         2    ;  uncertainty k = 0.157754
        25        26        41        24     4      180.000000        3.995376         2    ;  uncertainty k = 0.157754
        25        41        24        26     4      180.000000        3.995376         2    ;  uncertainty k = 0.157754
        26        25        27        45     4      180.000000       16.407561         2    ;  uncertainty k = 0.051646
        26        27        45        25     4      180.000000       16.407561         2    ;  uncertainty k = 0.051646
        26        45        25        27     4      180.000000       16.407561         2    ;  uncertainty k = 0.051646
        27        26        28        42     4      180.000000        3.995374         2    ;  uncertainty k = 0.157755
        27        28        42        26     4      180.000000        3.995374         2    ;  uncertainty k = 0.157755
        27        42        26        28     4      180.000000        3.995374         2    ;  uncertainty k = 0.157755
        28        23        27        43     4      180.000000        4.631443         2    ;  uncertainty k = 0.175195
        28        27        43        23     4      180.000000        4.631443         2    ;  uncertainty k = 0.175195
        28        43        23        27     4      180.000000        4.631443         2    ;  uncertainty k = 0.175195

[ pairs ]
;       ai        aj funct
         1         5     1
         1         7     1
         1        44     1
         2         4     1
         2         8     1
         2        10     1
         2        51     1
         2        52     1
         3         6     1
         3        50     1
         3        52     1
         4         7     1
         4        49     1
         5         8     1
         5        10     1
         5        50     1
         5        51     1
         6         9     1
         6        11     1
         6        29     1
         6        44     1
         6        49     1
         7        12     1
         7        50     1
         7        52     1
         8        12     1
         8        29     1
         9        13     1
         9        15     1
         9        29     1
         9        30     1
        10        13     1
        10        15     1
        10        30     1
        11        14     1
        11        16     1
        11        17     1
        11        21     1
        11        31     1
        11        33     1
        12        18     1
        12        20     1
        12        22     1
        12        29     1
        12        32     1
        12        34     1
        12        35     1
        12        39     1
        13        16     1
        13        17     1
        13        23     1
        13        33     1
        14        15     1
        14        20     1
        14        22     1
        14        30     1
        14        39     1
        15        19     1
        15        21     1
        15        31     1
        15        36     1
        15        37     1
        16        18     1
        16        20     1
        16        30     1
        16        35     1
        17        22     1
        17        30     1
        17        34     1
        17        38     1
        17        39     1
        18        21     1
        18        33     1
        19        20     1
        19        35     1
        20        23     1
        20        31     1
        20        33     1
        20        36     1
        20        37     1
        21        24     1
        21        28     1
        21        30     1
        21        32     1
        21        35     1
        22        25     1
        22        27     1
        22        31     1
        22        40     1
        22        43     1
        23        26     1
        23        39     1
        23        41     1
        23        42     1
        24        27     1
        24        43     1
        24        45     1
        25        28     1
        25        42     1
        25        46     1
        25        47     1
        25        48     1
        26        40     1
        26        43     1
        27        41     1
        27        46     1
        27        47     1
        27        48     1
        28        40     1
        28        45     1
        30        31     1
        30        33     1
        31        32     1
        31        39     1
        33        34     1
        33        35     1
        35        36     1
        35        37     1
        36        38     1
        37        38     1
        40        41     1
        41        45     1
        42        43     1
        42        45     1
        44        51     1
        44        52     1
        49        50     1
        49        51     1
