; ITP file created by ByteFF-joint-25, 2025-07-14 11:36:21.965067

[ atomtypes ]
;name           bonded.type        at.num        mass        charge   ptype           sigma         epsilon
 c0bf                                   6      0.0000       0.00000       A     3.31516e-01     4.13540e-01    ;  uncertainty sigma = 0.000008, epsilon = 0.000854
 n1bf                                   7      0.0000       0.00000       A     3.38454e-01     3.93530e-01    ;  uncertainty sigma = 0.000019, epsilon = 0.000692
 n2bf                                   7      0.0000       0.00000       A     3.38406e-01     3.93679e-01    ;  uncertainty sigma = 0.000019, epsilon = 0.001120
 c3bf                                   6      0.0000       0.00000       A     3.31525e-01     4.13563e-01    ;  uncertainty sigma = 0.000011, epsilon = 0.000818
 n4bf                                   7      0.0000       0.00000       A     3.20656e-01     8.52294e-01    ;  uncertainty sigma = 0.000054, epsilon = 0.003074
 c5bf                                   6      0.0000       0.00000       A     3.39713e-01     4.50655e-01    ;  uncertainty sigma = 0.000026, epsilon = 0.001397
 c6bf                                   6      0.0000       0.00000       A     3.39779e-01     4.49718e-01    ;  uncertainty sigma = 0.000015, epsilon = 0.002118
 o7bf                                   8      0.0000       0.00000       A     3.24313e-01     3.89156e-01    ;  uncertainty sigma = 0.000010, epsilon = 0.000595
 c8bf                                   6      0.0000       0.00000       A     3.39779e-01     4.49976e-01    ;  uncertainty sigma = 0.000018, epsilon = 0.001841
 o9bf                                   8      0.0000       0.00000       A     3.24318e-01     3.89663e-01    ;  uncertainty sigma = 0.000007, epsilon = 0.000651
 c10bf                                  6      0.0000       0.00000       A     3.39813e-01     4.51725e-01    ;  uncertainty sigma = 0.000016, epsilon = 0.001146
 c11bf                                  6      0.0000       0.00000       A     3.39797e-01     4.50403e-01    ;  uncertainty sigma = 0.000017, epsilon = 0.000902
 o12bf                                  8      0.0000       0.00000       A     3.24274e-01     3.88861e-01    ;  uncertainty sigma = 0.000020, epsilon = 0.000688
 o13bf                                  8      0.0000       0.00000       A     3.15611e-01     3.03419e-01    ;  uncertainty sigma = 0.000029, epsilon = 0.002245
 c14bf                                  6      0.0000       0.00000       A     3.39781e-01     4.51054e-01    ;  uncertainty sigma = 0.000013, epsilon = 0.000917
 s15bf                                 16      0.0000       0.00000       A     3.53296e-01     1.18046e+00    ;  uncertainty sigma = 0.000030, epsilon = 0.002394
 c16bf                                  6      0.0000       0.00000       A     3.31487e-01     4.13043e-01    ;  uncertainty sigma = 0.000026, epsilon = 0.000640
 c17bf                                  6      0.0000       0.00000       A     3.31517e-01     4.13229e-01    ;  uncertainty sigma = 0.000008, epsilon = 0.000553
 c18bf                                  6      0.0000       0.00000       A     3.31524e-01     4.13304e-01    ;  uncertainty sigma = 0.000004, epsilon = 0.000505
 c19bf                                  6      0.0000       0.00000       A     3.31516e-01     4.13253e-01    ;  uncertainty sigma = 0.000004, epsilon = 0.000640
 c20bf                                  6      0.0000       0.00000       A     3.31524e-01     4.13304e-01    ;  uncertainty sigma = 0.000004, epsilon = 0.000505
 c21bf                                  6      0.0000       0.00000       A     3.31517e-01     4.13229e-01    ;  uncertainty sigma = 0.000008, epsilon = 0.000553
 h22bf                                  1      0.0000       0.00000       A     2.53598e-01     6.71644e-02    ;  uncertainty sigma = 0.000052, epsilon = 0.000892
 h23bf                                  1      0.0000       0.00000       A     2.42314e-01     8.67745e-02    ;  uncertainty sigma = 0.000097, epsilon = 0.000594
 h24bf                                  1      0.0000       0.00000       A     2.42150e-01     8.68976e-02    ;  uncertainty sigma = 0.000136, epsilon = 0.000578
 h25bf                                  1      0.0000       0.00000       A     5.37699e-02     1.94207e-02    ;  uncertainty sigma = 0.000075, epsilon = 0.001021
 h26bf                                  1      0.0000       0.00000       A     2.42148e-01     8.70400e-02    ;  uncertainty sigma = 0.000125, epsilon = 0.000654
 h27bf                                  1      0.0000       0.00000       A     5.37509e-02     1.95242e-02    ;  uncertainty sigma = 0.000059, epsilon = 0.001184
 h28bf                                  1      0.0000       0.00000       A     2.42295e-01     8.69263e-02    ;  uncertainty sigma = 0.000086, epsilon = 0.000919
 h29bf                                  1      0.0000       0.00000       A     2.42123e-01     8.66913e-02    ;  uncertainty sigma = 0.000015, epsilon = 0.000817
 h30bf                                  1      0.0000       0.00000       A     2.42123e-01     8.66913e-02    ;  uncertainty sigma = 0.000015, epsilon = 0.000817
 h31bf                                  1      0.0000       0.00000       A     5.37919e-02     1.95436e-02    ;  uncertainty sigma = 0.000077, epsilon = 0.000848
 h32bf                                  1      0.0000       0.00000       A     2.25392e-01     8.79591e-02    ;  uncertainty sigma = 0.000386, epsilon = 0.001528
 h33bf                                  1      0.0000       0.00000       A     2.62569e-01     6.71318e-02    ;  uncertainty sigma = 0.000009, epsilon = 0.000486
 h34bf                                  1      0.0000       0.00000       A     2.62564e-01     6.70918e-02    ;  uncertainty sigma = 0.000008, epsilon = 0.000519
 h35bf                                  1      0.0000       0.00000       A     2.62564e-01     6.70918e-02    ;  uncertainty sigma = 0.000008, epsilon = 0.000519
 h36bf                                  1      0.0000       0.00000       A     2.62569e-01     6.71318e-02    ;  uncertainty sigma = 0.000009, epsilon = 0.000486
 c37bf                                  6      0.0000       0.00000       A     3.39773e-01     4.50878e-01    ;  uncertainty sigma = 0.000005, epsilon = 0.000421
 h38bf                                  1      0.0000       0.00000       A     2.60034e-01     8.66894e-02    ;  uncertainty sigma = 0.000006, epsilon = 0.000488
 h39bf                                  1      0.0000       0.00000       A     2.60034e-01     8.66894e-02    ;  uncertainty sigma = 0.000006, epsilon = 0.000488
 h40bf                                  1      0.0000       0.00000       A     2.60034e-01     8.66894e-02    ;  uncertainty sigma = 0.000006, epsilon = 0.000488
 c41bf                                  6      0.0000       0.00000       A     3.31507e-01     4.13028e-01    ;  uncertainty sigma = 0.000009, epsilon = 0.000676
 c42bf                                  6      0.0000       0.00000       A     3.31514e-01     4.13054e-01    ;  uncertainty sigma = 0.000005, epsilon = 0.000574
 c43bf                                  6      0.0000       0.00000       A     3.31505e-01     4.13487e-01    ;  uncertainty sigma = 0.000010, epsilon = 0.000485
 o44bf                                  8      0.0000       0.00000       A     3.15680e-01     3.04339e-01    ;  uncertainty sigma = 0.000016, epsilon = 0.000526
 c45bf                                  6      0.0000       0.00000       A     3.31527e-01     4.13116e-01    ;  uncertainty sigma = 0.000010, epsilon = 0.001134
 h46bf                                  1      0.0000       0.00000       A     2.53591e-01     6.70170e-02    ;  uncertainty sigma = 0.000034, epsilon = 0.000475
 h47bf                                  1      0.0000       0.00000       A     2.53618e-01     6.66515e-02    ;  uncertainty sigma = 0.000032, epsilon = 0.000677
 h48bf                                  1      0.0000       0.00000       A     2.62563e-01     6.67614e-02    ;  uncertainty sigma = 0.000035, epsilon = 0.000482

[ moleculetype ]
;name             nrexcl
 MOL                   3

[ atoms ]
;       nr            type      resi   res      atom      cgnr      charge          mass ; qtot
         1            c0bf         1   UNL        c0         1     0.35416       12.0110 ; qtot    0.354
         2            n1bf         1   UNL        n1         2    -0.35254       14.0070 ; qtot    0.002
         3            n2bf         1   UNL        n2         3    -0.20389       14.0070 ; qtot   -0.202
         4            c3bf         1   UNL        c3         4    -0.20593       12.0110 ; qtot   -0.408
         5            n4bf         1   UNL        n4         5     0.08901       14.0070 ; qtot   -0.319
         6            c5bf         1   UNL        c5         6     0.03687       12.0110 ; qtot   -0.282
         7            c6bf         1   UNL        c6         7     0.13775       12.0110 ; qtot   -0.145
         8            o7bf         1   UNL        o7         8    -0.59205       15.9990 ; qtot   -0.737
         9            c8bf         1   UNL        c8         9     0.12849       12.0110 ; qtot   -0.608
        10            o9bf         1   UNL        o9        10    -0.59538       15.9990 ; qtot   -1.204
        11           c10bf         1   UNL       c10        11     0.09794       12.0110 ; qtot   -1.106
        12           c11bf         1   UNL       c11        12     0.13320       12.0110 ; qtot   -0.972
        13           o12bf         1   UNL       o12        13    -0.59965       15.9990 ; qtot   -1.572
        14           o13bf         1   UNL       o13        14    -0.39620       15.9990 ; qtot   -1.968
        15           c14bf         1   UNL       c14        15     0.22984       12.0110 ; qtot   -1.738
        16           s15bf         1   UNL       s15        16    -0.29369       32.0670 ; qtot   -2.032
        17           c16bf         1   UNL       c16        17     0.01270       12.0110 ; qtot   -2.019
        18           c17bf         1   UNL       c17        18    -0.09102       12.0110 ; qtot   -2.110
        19           c18bf         1   UNL       c18        19    -0.13512       12.0110 ; qtot   -2.246
        20           c19bf         1   UNL       c19        20    -0.05605       12.0110 ; qtot   -2.302
        21           c20bf         1   UNL       c20        21    -0.13512       12.0110 ; qtot   -2.437
        22           c21bf         1   UNL       c21        22    -0.09102       12.0110 ; qtot   -2.528
        23           h22bf         1   UNL       h22        23     0.19315        1.0080 ; qtot   -2.335
        24           h23bf         1   UNL       h23        24     0.09445        1.0080 ; qtot   -2.240
        25           h24bf         1   UNL       h24        25     0.07817        1.0080 ; qtot   -2.162
        26           h25bf         1   UNL       h25        26     0.42879        1.0080 ; qtot   -1.733
        27           h26bf         1   UNL       h26        27     0.07395        1.0080 ; qtot   -1.659
        28           h27bf         1   UNL       h27        28     0.42496        1.0080 ; qtot   -1.234
        29           h28bf         1   UNL       h28        29     0.07367        1.0080 ; qtot   -1.161
        30           h29bf         1   UNL       h29        30     0.05099        1.0080 ; qtot   -1.110
        31           h30bf         1   UNL       h30        31     0.05099        1.0080 ; qtot   -1.059
        32           h31bf         1   UNL       h31        32     0.41123        1.0080 ; qtot   -0.647
        33           h32bf         1   UNL       h32        33     0.08832        1.0080 ; qtot   -0.559
        34           h33bf         1   UNL       h33        34     0.14071        1.0080 ; qtot   -0.418
        35           h34bf         1   UNL       h34        35     0.13401        1.0080 ; qtot   -0.284
        36           h35bf         1   UNL       h35        36     0.13401        1.0080 ; qtot   -0.150
        37           h36bf         1   UNL       h36        37     0.14071        1.0080 ; qtot   -0.010
        38           c37bf         1   UNL       c37        38    -0.05057       12.0110 ; qtot   -0.060
        39           h38bf         1   UNL       h38        39     0.04329        1.0080 ; qtot   -0.017
        40           h39bf         1   UNL       h39        40     0.04329        1.0080 ; qtot    0.026
        41           h40bf         1   UNL       h40        41     0.04329        1.0080 ; qtot    0.070
        42           c41bf         1   UNL       c41        42    -0.25615       12.0110 ; qtot   -0.186
        43           c42bf         1   UNL       c42        43    -0.24807       12.0110 ; qtot   -0.435
        44           c43bf         1   UNL       c43        44     0.23150       12.0110 ; qtot   -0.203
        45           o44bf         1   UNL       o44        45    -0.33988       15.9990 ; qtot   -0.543
        46           c45bf         1   UNL       c45        46     0.25801       12.0110 ; qtot   -0.285
        47           h46bf         1   UNL       h46        47     0.06061        1.0080 ; qtot   -0.224
        48           h47bf         1   UNL       h47        48     0.05531        1.0080 ; qtot   -0.169
        49           h48bf         1   UNL       h48        49     0.16896        1.0080 ; qtot    0.000

[ bonds ]
;       ai        aj funct               r               k
         1         2     1        0.137926   249708.699414    ;  uncertainty r = 0.000136, k = 8.092358
         1         4     1        0.138788   450724.362305    ;  uncertainty r = 0.000063, k = 12.033181
         1        42     1        0.145620   286614.802197    ;  uncertainty r = 0.000112, k = 9.070810
         2         3     1        0.130660   453414.543555    ;  uncertainty r = 0.000046, k = 5.340458
         3         5     1        0.135822   233981.517383    ;  uncertainty r = 0.000137, k = 12.120535
         4         5     1        0.136198   302437.339795    ;  uncertainty r = 0.000081, k = 9.865469
         4        23     1        0.108216   343496.670361    ;  uncertainty r = 0.000036, k = 3.765158
         5         6     1        0.145234   237590.651514    ;  uncertainty r = 0.000196, k = 7.659767
         6         7     1        0.152197   188213.884424    ;  uncertainty r = 0.000191, k = 8.218331
         6         9     1        0.152242   189493.357446    ;  uncertainty r = 0.000225, k = 7.200075
         6        24     1        0.109521   308585.986230    ;  uncertainty r = 0.000061, k = 4.629759
         7         8     1        0.141112   255571.457910    ;  uncertainty r = 0.000133, k = 10.775081
         7        15     1        0.151795   195953.824756    ;  uncertainty r = 0.000220, k = 7.518907
         7        25     1        0.109646   304732.155518    ;  uncertainty r = 0.000030, k = 1.257698
         8        26     1        0.097065   447735.907617    ;  uncertainty r = 0.000022, k = 2.843500
         9        10     1        0.141577   252957.147412    ;  uncertainty r = 0.000096, k = 9.080986
         9        11     1        0.151787   194051.514404    ;  uncertainty r = 0.000051, k = 5.272028
         9        27     1        0.109666   303884.910840    ;  uncertainty r = 0.000035, k = 2.180842
        10        28     1        0.097048   450902.764551    ;  uncertainty r = 0.000018, k = 3.349293
        11        12     1        0.151618   203501.917554    ;  uncertainty r = 0.000125, k = 6.264156
        11        14     1        0.142011   234157.493604    ;  uncertainty r = 0.000263, k = 8.190043
        11        29     1        0.109922   307243.934521    ;  uncertainty r = 0.000031, k = 1.845416
        12        13     1        0.142092   261467.312500    ;  uncertainty r = 0.000062, k = 4.434858
        12        30     1        0.109761   309531.982910    ;  uncertainty r = 0.000022, k = 2.053540
        12        31     1        0.109761   309531.982910    ;  uncertainty r = 0.000022, k = 2.053540
        13        32     1        0.097013   462818.941602    ;  uncertainty r = 0.000022, k = 2.302141
        14        15     1        0.140261   232205.130518    ;  uncertainty r = 0.000298, k = 17.002599
        15        16     1        0.184466   133169.526196    ;  uncertainty r = 0.000195, k = 13.146840
        15        33     1        0.109643   309186.925488    ;  uncertainty r = 0.000063, k = 4.096350
        16        17     1        0.179121   206179.189795    ;  uncertainty r = 0.000089, k = 7.782768
        17        18     1        0.140095   360007.458594    ;  uncertainty r = 0.000063, k = 2.797086
        17        22     1        0.140095   360007.458594    ;  uncertainty r = 0.000063, k = 2.797086
        18        19     1        0.139505   367196.614551    ;  uncertainty r = 0.000029, k = 1.961353
        18        34     1        0.108793   333998.704346    ;  uncertainty r = 0.000039, k = 2.030538
        19        20     1        0.140220   353169.182520    ;  uncertainty r = 0.000028, k = 2.666792
        19        35     1        0.108868   334513.609082    ;  uncertainty r = 0.000009, k = 0.953696
        20        21     1        0.140220   353169.182520    ;  uncertainty r = 0.000028, k = 2.666792
        20        38     1        0.151054   252476.717773    ;  uncertainty r = 0.000015, k = 5.525231
        21        22     1        0.139505   367196.614551    ;  uncertainty r = 0.000029, k = 1.961353
        21        36     1        0.108868   334513.609082    ;  uncertainty r = 0.000009, k = 0.953696
        22        37     1        0.108793   333998.704346    ;  uncertainty r = 0.000039, k = 2.030538
        38        39     1        0.109534   307895.054199    ;  uncertainty r = 0.000008, k = 1.140244
        38        40     1        0.109534   307895.054199    ;  uncertainty r = 0.000008, k = 1.140244
        38        41     1        0.109534   307895.054199    ;  uncertainty r = 0.000008, k = 1.140244
        42        43     1        0.143994   278769.291455    ;  uncertainty r = 0.000034, k = 6.514555
        42        46     1        0.137249   416382.925879    ;  uncertainty r = 0.000039, k = 6.739407
        43        44     1        0.136345   427370.113965    ;  uncertainty r = 0.000045, k = 2.037851
        43        49     1        0.108285   338931.018262    ;  uncertainty r = 0.000019, k = 1.043103
        44        45     1        0.136870   292623.888330    ;  uncertainty r = 0.000046, k = 4.529691
        44        48     1        0.108224   341187.477246    ;  uncertainty r = 0.000013, k = 1.881085
        45        46     1        0.136404   293508.672559    ;  uncertainty r = 0.000091, k = 7.583267
        46        47     1        0.108196   342203.113623    ;  uncertainty r = 0.000036, k = 3.355467

[ angles ]
;       ai        aj        ak funct           theta             cth
         1         2         3     1      109.402733      977.909065    ;  uncertainty theta = 0.001868, k = 0.104879
         1         4         5     1      105.214401      743.317134    ;  uncertainty theta = 0.003346, k = 0.195588
         1         4        23     1      130.320709      220.247689    ;  uncertainty theta = 0.006356, k = 0.116554
         1        42        43     1      125.627342      363.438746    ;  uncertainty theta = 0.004330, k = 0.199895
         1        42        46     1      125.244164      359.864253    ;  uncertainty theta = 0.003497, k = 0.132197
         2         1         4     1      108.957298      803.350536    ;  uncertainty theta = 0.002731, k = 0.118744
         2         1        42     1      121.659203      421.935964    ;  uncertainty theta = 0.003055, k = 0.112849
         2         3         5     1      108.491928     1200.034992    ;  uncertainty theta = 0.001266, k = 0.085395
         3         5         4     1      108.540245      944.438533    ;  uncertainty theta = 0.002545, k = 0.135621
         3         5         6     1      115.573524      437.669281    ;  uncertainty theta = 0.002918, k = 0.205629
         4         1        42     1      129.995850      353.123126    ;  uncertainty theta = 0.004655, k = 0.084476
         4         5         6     1      122.789452      357.965505    ;  uncertainty theta = 0.003558, k = 0.089170
         5         4        23     1      118.559288      276.863732    ;  uncertainty theta = 0.002836, k = 0.122410
         5         6         7     1      108.622177      611.118286    ;  uncertainty theta = 0.006809, k = 0.145093
         5         6         9     1      108.869614      608.549891    ;  uncertainty theta = 0.005653, k = 0.116605
         5         6        24     1      105.098206      461.104112    ;  uncertainty theta = 0.003115, k = 0.156714
         6         7         8     1      109.006836      665.478684    ;  uncertainty theta = 0.006799, k = 0.200813
         6         7        15     1      108.963562      543.106898    ;  uncertainty theta = 0.001960, k = 0.150770
         6         7        25     1      107.739502      378.540977    ;  uncertainty theta = 0.003350, k = 0.116138
         6         9        10     1      109.305786      670.963991    ;  uncertainty theta = 0.003376, k = 0.184685
         6         9        11     1      109.085403      550.833981    ;  uncertainty theta = 0.003109, k = 0.083650
         6         9        27     1      107.334274      380.446748    ;  uncertainty theta = 0.003537, k = 0.100456
         7         6         9     1      109.017845      555.549983    ;  uncertainty theta = 0.004346, k = 0.211843
         7         6        24     1      107.680824      392.764190    ;  uncertainty theta = 0.002496, k = 0.068774
         7         8        26     1      107.738342      464.297017    ;  uncertainty theta = 0.001111, k = 0.064721
         7        15        14     1      109.329178      613.859822    ;  uncertainty theta = 0.003845, k = 0.207721
         7        15        16     1      109.276794      472.352762    ;  uncertainty theta = 0.003541, k = 0.185259
         7        15        33     1      109.789139      376.594411    ;  uncertainty theta = 0.003445, k = 0.064049
         8         7        15     1      108.751869      695.476934    ;  uncertainty theta = 0.004518, k = 0.195360
         8         7        25     1      108.464233      469.798604    ;  uncertainty theta = 0.000985, k = 0.059230
         9         6        24     1      107.892044      392.713179    ;  uncertainty theta = 0.001711, k = 0.068439
         9        10        28     1      107.735207      463.269914    ;  uncertainty theta = 0.000463, k = 0.071624
         9        11        12     1      110.619675      536.827451    ;  uncertainty theta = 0.003047, k = 0.044496
         9        11        14     1      108.464928      617.827076    ;  uncertainty theta = 0.003259, k = 0.135769
         9        11        29     1      107.915344      383.395997    ;  uncertainty theta = 0.002933, k = 0.008098
        10         9        11     1      108.664330      684.054888    ;  uncertainty theta = 0.003176, k = 0.109786
        10         9        27     1      108.417618      469.024606    ;  uncertainty theta = 0.000812, k = 0.043732
        11         9        27     1      108.204239      382.143370    ;  uncertainty theta = 0.002080, k = 0.061683
        11        12        13     1      110.168129      716.776224    ;  uncertainty theta = 0.001875, k = 0.128387
        11        12        30     1      107.923988      394.631623    ;  uncertainty theta = 0.001881, k = 0.054203
        11        12        31     1      107.923988      394.631623    ;  uncertainty theta = 0.001881, k = 0.054203
        11        14        15     1      109.179161      507.510722    ;  uncertainty theta = 0.006739, k = 0.158124
        12        11        14     1      105.910133      561.353674    ;  uncertainty theta = 0.003507, k = 0.091813
        12        11        29     1      108.719131      396.919716    ;  uncertainty theta = 0.003871, k = 0.046746
        12        13        32     1      107.223572      450.200245    ;  uncertainty theta = 0.001789, k = 0.036471
        13        12        30     1      108.661911      477.517993    ;  uncertainty theta = 0.000920, k = 0.032620
        13        12        31     1      108.661911      477.517993    ;  uncertainty theta = 0.000920, k = 0.032620
        14        11        29     1      107.155716      448.878476    ;  uncertainty theta = 0.002856, k = 0.118174
        14        15        16     1      108.488548      600.802060    ;  uncertainty theta = 0.005721, k = 0.267014
        14        15        33     1      107.581078      454.886975    ;  uncertainty theta = 0.003084, k = 0.162160
        15         7        25     1      108.036217      382.649675    ;  uncertainty theta = 0.001208, k = 0.065214
        15        16        17     1       98.071030      620.356016    ;  uncertainty theta = 0.003494, k = 0.101606
        16        15        33     1      106.804665      347.470743    ;  uncertainty theta = 0.004979, k = 0.169894
        16        17        18     1      122.596115      363.243706    ;  uncertainty theta = 0.004725, k = 0.050914
        16        17        22     1      122.596115      363.243706    ;  uncertainty theta = 0.004725, k = 0.050914
        17        18        19     1      119.504868      523.522298    ;  uncertainty theta = 0.001632, k = 0.071975
        17        18        34     1      120.291687      280.122011    ;  uncertainty theta = 0.002517, k = 0.047831
        17        22        21     1      119.504868      523.522298    ;  uncertainty theta = 0.001632, k = 0.071975
        17        22        37     1      120.291687      280.122011    ;  uncertainty theta = 0.002517, k = 0.047831
        18        17        22     1      119.364830      413.056966    ;  uncertainty theta = 0.002836, k = 0.076384
        18        19        20     1      121.433670      521.891019    ;  uncertainty theta = 0.001255, k = 0.060016
        18        19        35     1      119.655823      287.521580    ;  uncertainty theta = 0.001168, k = 0.024751
        19        18        34     1      120.399857      289.970493    ;  uncertainty theta = 0.001680, k = 0.045815
        19        20        21     1      118.352539      470.446065    ;  uncertainty theta = 0.001842, k = 0.119193
        19        20        38     1      120.748802      431.769794    ;  uncertainty theta = 0.001285, k = 0.023615
        20        19        35     1      119.443199      279.848828    ;  uncertainty theta = 0.001504, k = 0.086733
        20        21        22     1      121.433678      521.891019    ;  uncertainty theta = 0.001255, k = 0.060016
        20        21        36     1      119.443199      279.848828    ;  uncertainty theta = 0.001504, k = 0.086733
        20        38        39     1      109.896507      397.950585    ;  uncertainty theta = 0.001093, k = 0.021393
        20        38        40     1      109.896507      397.950585    ;  uncertainty theta = 0.001093, k = 0.021393
        20        38        41     1      109.896507      397.950585    ;  uncertainty theta = 0.001093, k = 0.021393
        21        20        38     1      120.748802      431.769794    ;  uncertainty theta = 0.001285, k = 0.023615
        21        22        37     1      120.399857      289.970493    ;  uncertainty theta = 0.001680, k = 0.045815
        22        21        36     1      119.655823      287.521580    ;  uncertainty theta = 0.001168, k = 0.024751
        30        12        31     1      107.726463      326.410991    ;  uncertainty theta = 0.001745, k = 0.070753
        39        38        40     1      106.736984      316.781394    ;  uncertainty theta = 0.000965, k = 0.019303
        39        38        41     1      106.736984      316.781394    ;  uncertainty theta = 0.000965, k = 0.019303
        40        38        41     1      106.736984      316.781394    ;  uncertainty theta = 0.000965, k = 0.019303
        42        43        44     1      105.836632      739.141880    ;  uncertainty theta = 0.003035, k = 0.090219
        42        43        49     1      124.453323      243.057323    ;  uncertainty theta = 0.002842, k = 0.079128
        42        46        45     1      111.995117      718.920512    ;  uncertainty theta = 0.002704, k = 0.101245
        42        46        47     1      130.635132      229.114604    ;  uncertainty theta = 0.003518, k = 0.055521
        43        42        46     1      106.526352      614.664369    ;  uncertainty theta = 0.004692, k = 0.128039
        43        44        45     1      111.637009      724.351744    ;  uncertainty theta = 0.002877, k = 0.125699
        43        44        48     1      131.403915      232.966191    ;  uncertainty theta = 0.001576, k = 0.064291
        44        43        49     1      123.486145      243.679008    ;  uncertainty theta = 0.001910, k = 0.096609
        44        45        46     1      108.176514     1033.732611    ;  uncertainty theta = 0.002080, k = 0.057820
        45        44        48     1      113.078171      291.580257    ;  uncertainty theta = 0.001405, k = 0.027732
        45        46        47     1      113.400558      291.419597    ;  uncertainty theta = 0.002967, k = 0.044316

[ dihedrals ] ; propers for gromacs 4.5 or higher, use funct 9
;       ai        aj        ak        al funct           phase               k        pn
         1         2         3         5     9        0.000000       -1.195061         1    ;  uncertainty k = 1.866477
         1         2         3         5     9      180.000000       31.696313         2    ;  uncertainty k = 0.685228
         1         2         3         5     9        0.000000       -7.891612         3    ;  uncertainty k = 3.677637
         1         2         3         5     9      180.000000        2.347277         4    ;  uncertainty k = 0.494996
         1         4         5         3     9        0.000000       -0.282179         1    ;  uncertainty k = 0.705032
         1         4         5         3     9      180.000000       15.889176         2    ;  uncertainty k = 0.728270
         1         4         5         3     9        0.000000       -9.863050         3    ;  uncertainty k = 0.641059
         1         4         5         3     9      180.000000        1.433347         4    ;  uncertainty k = 0.472742
         1         4         5         6     9        0.000000        1.312366         1    ;  uncertainty k = 0.507008
         1         4         5         6     9      180.000000        9.693832         2    ;  uncertainty k = 0.630171
         1         4         5         6     9        0.000000        2.080184         3    ;  uncertainty k = 0.723683
         1         4         5         6     9      180.000000       -0.166486         4    ;  uncertainty k = 0.191836
         1        42        43        44     9        0.000000        0.251381         1    ;  uncertainty k = 0.742145
         1        42        43        44     9      180.000000        8.987410         2    ;  uncertainty k = 0.346616
         1        42        43        44     9        0.000000        1.822888         3    ;  uncertainty k = 0.604035
         1        42        43        44     9      180.000000        0.364446         4    ;  uncertainty k = 0.456189
         1        42        43        49     9        0.000000        0.159040         1    ;  uncertainty k = 1.130896
         1        42        43        49     9      180.000000        5.663501         2    ;  uncertainty k = 1.003871
         1        42        43        49     9        0.000000        1.487580         3    ;  uncertainty k = 0.250112
         1        42        43        49     9      180.000000        0.110369         4    ;  uncertainty k = 0.117370
         1        42        46        45     9        0.000000        0.707952         1    ;  uncertainty k = 0.959646
         1        42        46        45     9      180.000000       18.249305         2    ;  uncertainty k = 0.380501
         1        42        46        45     9        0.000000        1.059902         3    ;  uncertainty k = 0.304341
         1        42        46        45     9      180.000000        0.913091         4    ;  uncertainty k = 0.368806
         1        42        46        47     9        0.000000        0.157692         1    ;  uncertainty k = 0.715075
         1        42        46        47     9      180.000000        7.974063         2    ;  uncertainty k = 1.005471
         1        42        46        47     9        0.000000        1.329858         3    ;  uncertainty k = 0.382751
         1        42        46        47     9      180.000000        0.409631         4    ;  uncertainty k = 0.413616
         2         1         4         5     9        0.000000       -0.265993         1    ;  uncertainty k = 0.646306
         2         1         4         5     9      180.000000       19.996213         2    ;  uncertainty k = 0.361527
         2         1         4         5     9        0.000000      -11.650903         3    ;  uncertainty k = 0.378220
         2         1         4         5     9      180.000000        1.762458         4    ;  uncertainty k = 0.711932
         2         1         4        23     9        0.000000        0.305378         1    ;  uncertainty k = 0.760464
         2         1         4        23     9      180.000000       12.229081         2    ;  uncertainty k = 0.446364
         2         1         4        23     9        0.000000        1.530389         3    ;  uncertainty k = 0.534434
         2         1         4        23     9      180.000000        0.628921         4    ;  uncertainty k = 0.390801
         2         1        42        43     9        0.000000       -0.443991         1    ;  uncertainty k = 0.923215
         2         1        42        43     9      180.000000        2.338732         2    ;  uncertainty k = 0.340310
         2         1        42        43     9        0.000000        1.014953         3    ;  uncertainty k = 0.468076
         2         1        42        43     9      180.000000       -0.068633         4    ;  uncertainty k = 0.201838
         2         1        42        46     9        0.000000        0.869000         1    ;  uncertainty k = 0.617758
         2         1        42        46     9      180.000000        2.472602         2    ;  uncertainty k = 0.373080
         2         1        42        46     9        0.000000        0.650679         3    ;  uncertainty k = 0.384018
         2         1        42        46     9      180.000000       -0.049931         4    ;  uncertainty k = 0.134264
         2         3         5         4     9        0.000000       -0.043847         1    ;  uncertainty k = 0.561559
         2         3         5         4     9      180.000000       21.936812         2    ;  uncertainty k = 0.265786
         2         3         5         4     9        0.000000       -8.929958         3    ;  uncertainty k = 1.593925
         2         3         5         4     9      180.000000        1.705961         4    ;  uncertainty k = 0.431290
         2         3         5         6     9        0.000000        0.041824         1    ;  uncertainty k = 1.854991
         2         3         5         6     9      180.000000       20.213426         2    ;  uncertainty k = 0.160834
         2         3         5         6     9        0.000000        1.995104         3    ;  uncertainty k = 0.831905
         2         3         5         6     9      180.000000        0.007790         4    ;  uncertainty k = 0.165560
         3         2         1         4     9        0.000000       -0.225758         1    ;  uncertainty k = 0.568199
         3         2         1         4     9      180.000000       17.699066         2    ;  uncertainty k = 0.715224
         3         2         1         4     9        0.000000       -6.677771         3    ;  uncertainty k = 0.514089
         3         2         1         4     9      180.000000        2.194518         4    ;  uncertainty k = 0.304319
         3         2         1        42     9        0.000000        0.228694         1    ;  uncertainty k = 0.902874
         3         2         1        42     9      180.000000       18.021518         2    ;  uncertainty k = 0.129293
         3         2         1        42     9        0.000000        1.695421         3    ;  uncertainty k = 0.632014
         3         2         1        42     9      180.000000        0.919969         4    ;  uncertainty k = 0.259999
         3         5         4        23     9        0.000000        1.355916         1    ;  uncertainty k = 0.722756
         3         5         4        23     9      180.000000       12.080143         2    ;  uncertainty k = 0.806402
         3         5         4        23     9        0.000000        1.516811         3    ;  uncertainty k = 0.312598
         3         5         4        23     9      180.000000        0.115785         4    ;  uncertainty k = 0.245737
         3         5         6         7     9        0.000000       -0.020776         1    ;  uncertainty k = 0.721450
         3         5         6         7     9      180.000000        0.073479         2    ;  uncertainty k = 0.244048
         3         5         6         7     9        0.000000        0.314447         3    ;  uncertainty k = 0.123379
         3         5         6         7     9      180.000000        0.099876         4    ;  uncertainty k = 0.075959
         3         5         6         9     9        0.000000       -0.123407         1    ;  uncertainty k = 0.806990
         3         5         6         9     9      180.000000        0.072383         2    ;  uncertainty k = 0.221019
         3         5         6         9     9        0.000000        0.310077         3    ;  uncertainty k = 0.149029
         3         5         6         9     9      180.000000        0.109901         4    ;  uncertainty k = 0.070050
         3         5         6        24     9        0.000000        0.730988         1    ;  uncertainty k = 1.004450
         3         5         6        24     9      180.000000        0.347641         2    ;  uncertainty k = 0.291664
         3         5         6        24     9        0.000000        0.519844         3    ;  uncertainty k = 0.252661
         3         5         6        24     9      180.000000        0.239990         4    ;  uncertainty k = 0.111375
         4         1        42        43     9        0.000000        0.625043         1    ;  uncertainty k = 0.864452
         4         1        42        43     9      180.000000        2.065128         2    ;  uncertainty k = 0.271747
         4         1        42        43     9        0.000000        0.706246         3    ;  uncertainty k = 0.356039
         4         1        42        43     9      180.000000       -0.021706         4    ;  uncertainty k = 0.119783
         4         1        42        46     9        0.000000        0.612417         1    ;  uncertainty k = 0.623525
         4         1        42        46     9      180.000000        1.976414         2    ;  uncertainty k = 0.436883
         4         1        42        46     9        0.000000        1.134218         3    ;  uncertainty k = 0.224345
         4         1        42        46     9      180.000000       -0.035947         4    ;  uncertainty k = 0.124240
         4         5         6         7     9        0.000000       -0.140243         1    ;  uncertainty k = 0.817032
         4         5         6         7     9      180.000000        0.225888         2    ;  uncertainty k = 0.319950
         4         5         6         7     9        0.000000        0.653042         3    ;  uncertainty k = 0.192970
         4         5         6         7     9      180.000000        0.150184         4    ;  uncertainty k = 0.156737
         4         5         6         9     9        0.000000       -0.130868         1    ;  uncertainty k = 0.783340
         4         5         6         9     9      180.000000        0.232399         2    ;  uncertainty k = 0.266797
         4         5         6         9     9        0.000000        0.655811         3    ;  uncertainty k = 0.180493
         4         5         6         9     9      180.000000        0.150330         4    ;  uncertainty k = 0.154932
         4         5         6        24     9        0.000000       -1.511211         1    ;  uncertainty k = 0.619674
         4         5         6        24     9      180.000000        0.319352         2    ;  uncertainty k = 0.430292
         4         5         6        24     9        0.000000        0.741639         3    ;  uncertainty k = 0.284640
         4         5         6        24     9      180.000000        0.192110         4    ;  uncertainty k = 0.032049
         5         4         1        42     9        0.000000        0.880387         1    ;  uncertainty k = 0.975510
         5         4         1        42     9      180.000000       14.264625         2    ;  uncertainty k = 0.156877
         5         4         1        42     9        0.000000        1.413971         3    ;  uncertainty k = 0.385011
         5         4         1        42     9      180.000000        0.691396         4    ;  uncertainty k = 0.174001
         5         6         7         8     9        0.000000       -0.184342         1    ;  uncertainty k = 0.807207
         5         6         7         8     9      180.000000       -1.704946         2    ;  uncertainty k = 0.984390
         5         6         7         8     9        0.000000        1.230977         3    ;  uncertainty k = 0.344991
         5         6         7         8     9      180.000000        0.167779         4    ;  uncertainty k = 0.175462
         5         6         7        15     9        0.000000       -2.018272         1    ;  uncertainty k = 1.577527
         5         6         7        15     9      180.000000        0.090363         2    ;  uncertainty k = 0.827139
         5         6         7        15     9        0.000000        0.342540         3    ;  uncertainty k = 0.188739
         5         6         7        15     9      180.000000        0.046506         4    ;  uncertainty k = 0.106679
         5         6         7        25     9        0.000000        2.341470         1    ;  uncertainty k = 0.937055
         5         6         7        25     9      180.000000       -1.244015         2    ;  uncertainty k = 0.661660
         5         6         7        25     9        0.000000        0.373018         3    ;  uncertainty k = 0.191333
         5         6         7        25     9      180.000000       -0.062986         4    ;  uncertainty k = 0.198452
         5         6         9        10     9        0.000000       -0.383732         1    ;  uncertainty k = 1.056110
         5         6         9        10     9      180.000000       -1.794166         2    ;  uncertainty k = 0.966219
         5         6         9        10     9        0.000000        1.279506         3    ;  uncertainty k = 0.354945
         5         6         9        10     9      180.000000        0.172064         4    ;  uncertainty k = 0.182133
         5         6         9        11     9        0.000000       -2.545144         1    ;  uncertainty k = 1.239595
         5         6         9        11     9      180.000000        0.385878         2    ;  uncertainty k = 0.788263
         5         6         9        11     9        0.000000        0.406457         3    ;  uncertainty k = 0.171848
         5         6         9        11     9      180.000000        0.010951         4    ;  uncertainty k = 0.153845
         5         6         9        27     9        0.000000        2.409988         1    ;  uncertainty k = 0.878074
         5         6         9        27     9      180.000000       -1.313699         2    ;  uncertainty k = 0.684198
         5         6         9        27     9        0.000000        0.348995         3    ;  uncertainty k = 0.203009
         5         6         9        27     9      180.000000       -0.059998         4    ;  uncertainty k = 0.196729
         6         5         4        23     9        0.000000       -0.234234         1    ;  uncertainty k = 0.476907
         6         5         4        23     9      180.000000        3.412765         2    ;  uncertainty k = 0.436061
         6         5         4        23     9        0.000000        1.141478         3    ;  uncertainty k = 0.424086
         6         5         4        23     9      180.000000        0.055775         4    ;  uncertainty k = 0.195756
         6         7         8        26     9        0.000000       19.039124         1    ;  uncertainty k = 0.345153
         6         7         8        26     9      180.000000       -4.420828         2    ;  uncertainty k = 0.689830
         6         7         8        26     9        0.000000        1.320157         3    ;  uncertainty k = 0.147286
         6         7         8        26     9      180.000000        0.341085         4    ;  uncertainty k = 0.134436
         6         7        15        14     9        0.000000        2.474201         1    ;  uncertainty k = 1.474957
         6         7        15        14     9      180.000000       -0.994678         2    ;  uncertainty k = 0.524371
         6         7        15        14     9        0.000000        0.317589         3    ;  uncertainty k = 0.155922
         6         7        15        14     9      180.000000       -0.304460         4    ;  uncertainty k = 0.208124
         6         7        15        16     9        0.000000        4.941749         1    ;  uncertainty k = 2.502557
         6         7        15        16     9      180.000000       -2.238276         2    ;  uncertainty k = 1.272838
         6         7        15        16     9        0.000000       -0.074658         3    ;  uncertainty k = 0.452202
         6         7        15        16     9      180.000000        0.245986         4    ;  uncertainty k = 0.382553
         6         7        15        33     9        0.000000        1.846484         1    ;  uncertainty k = 1.045892
         6         7        15        33     9      180.000000       -1.924081         2    ;  uncertainty k = 0.721830
         6         7        15        33     9        0.000000       -0.575800         3    ;  uncertainty k = 0.257923
         6         7        15        33     9      180.000000       -0.003854         4    ;  uncertainty k = 0.220883
         6         9        10        28     9        0.000000       18.952765         1    ;  uncertainty k = 0.311547
         6         9        10        28     9      180.000000       -4.586190         2    ;  uncertainty k = 0.579882
         6         9        10        28     9        0.000000        1.334230         3    ;  uncertainty k = 0.130015
         6         9        10        28     9      180.000000        0.345176         4    ;  uncertainty k = 0.144687
         6         9        11        12     9        0.000000       -1.308713         1    ;  uncertainty k = 0.869702
         6         9        11        12     9      180.000000        0.094262         2    ;  uncertainty k = 0.478169
         6         9        11        12     9        0.000000       -0.367831         3    ;  uncertainty k = 0.241924
         6         9        11        12     9      180.000000       -0.399652         4    ;  uncertainty k = 0.145738
         6         9        11        14     9        0.000000        3.551725         1    ;  uncertainty k = 0.894045
         6         9        11        14     9      180.000000       -2.208435         2    ;  uncertainty k = 0.359172
         6         9        11        14     9        0.000000        0.326059         3    ;  uncertainty k = 0.294258
         6         9        11        14     9      180.000000       -0.285779         4    ;  uncertainty k = 0.284707
         6         9        11        29     9        0.000000        2.035658         1    ;  uncertainty k = 1.132995
         6         9        11        29     9      180.000000       -2.349109         2    ;  uncertainty k = 0.563071
         6         9        11        29     9        0.000000       -0.762911         3    ;  uncertainty k = 0.211670
         6         9        11        29     9      180.000000        0.143404         4    ;  uncertainty k = 0.155147
         7         6         9        10     9        0.000000       -3.450932         1    ;  uncertainty k = 1.264260
         7         6         9        10     9      180.000000        0.306731         2    ;  uncertainty k = 0.567788
         7         6         9        10     9        0.000000        0.393950         3    ;  uncertainty k = 0.364522
         7         6         9        10     9      180.000000        0.151790         4    ;  uncertainty k = 0.175021
         7         6         9        11     9        0.000000        0.873750         1    ;  uncertainty k = 2.282474
         7         6         9        11     9      180.000000       -0.221239         2    ;  uncertainty k = 1.293849
         7         6         9        11     9        0.000000       -0.344129         3    ;  uncertainty k = 0.575667
         7         6         9        11     9      180.000000       -1.183141         4    ;  uncertainty k = 0.285762
         7         6         9        27     9        0.000000       -0.712144         1    ;  uncertainty k = 0.769906
         7         6         9        27     9      180.000000       -0.385373         2    ;  uncertainty k = 0.311284
         7         6         9        27     9        0.000000       -0.334481         3    ;  uncertainty k = 0.125078
         7         6         9        27     9      180.000000       -0.139996         4    ;  uncertainty k = 0.056740
         7        15        14        11     9        0.000000        0.917470         1    ;  uncertainty k = 0.954609
         7        15        14        11     9      180.000000       -1.288452         2    ;  uncertainty k = 0.653278
         7        15        14        11     9        0.000000       -0.220560         3    ;  uncertainty k = 0.269291
         7        15        14        11     9      180.000000        0.068427         4    ;  uncertainty k = 0.310172
         7        15        16        17     9        0.000000        2.007748         1    ;  uncertainty k = 1.077285
         7        15        16        17     9      180.000000       -1.565577         2    ;  uncertainty k = 0.676593
         7        15        16        17     9        0.000000        0.919131         3    ;  uncertainty k = 0.274750
         7        15        16        17     9      180.000000        0.227517         4    ;  uncertainty k = 0.084913
         8         7         6         9     9        0.000000       -3.581542         1    ;  uncertainty k = 1.031963
         8         7         6         9     9      180.000000        0.411053         2    ;  uncertainty k = 0.566427
         8         7         6         9     9        0.000000        0.367590         3    ;  uncertainty k = 0.368667
         8         7         6         9     9      180.000000        0.156016         4    ;  uncertainty k = 0.234642
         8         7         6        24     9        0.000000       -0.277363         1    ;  uncertainty k = 0.256261
         8         7         6        24     9      180.000000       -0.077869         2    ;  uncertainty k = 0.366585
         8         7         6        24     9        0.000000        0.607276         3    ;  uncertainty k = 0.240323
         8         7         6        24     9      180.000000       -0.047719         4    ;  uncertainty k = 0.122992
         8         7        15        14     9        0.000000       -2.698621         1    ;  uncertainty k = 1.293589
         8         7        15        14     9      180.000000       -0.125900         2    ;  uncertainty k = 1.044604
         8         7        15        14     9        0.000000        1.801831         3    ;  uncertainty k = 0.166031
         8         7        15        14     9      180.000000       -0.136263         4    ;  uncertainty k = 0.170447
         8         7        15        16     9        0.000000        5.310159         1    ;  uncertainty k = 0.577732
         8         7        15        16     9      180.000000       -1.858820         2    ;  uncertainty k = 0.847232
         8         7        15        16     9        0.000000        1.450881         3    ;  uncertainty k = 0.493019
         8         7        15        16     9      180.000000        0.366462         4    ;  uncertainty k = 0.119783
         8         7        15        33     9        0.000000       -0.793494         1    ;  uncertainty k = 0.377453
         8         7        15        33     9      180.000000        0.444309         2    ;  uncertainty k = 0.325823
         8         7        15        33     9        0.000000        0.779019         3    ;  uncertainty k = 0.275482
         8         7        15        33     9      180.000000       -0.005974         4    ;  uncertainty k = 0.167622
         9         6         7        15     9        0.000000        1.882185         1    ;  uncertainty k = 3.196350
         9         6         7        15     9      180.000000       -0.080201         2    ;  uncertainty k = 1.464730
         9         6         7        15     9        0.000000       -0.302109         3    ;  uncertainty k = 0.422345
         9         6         7        15     9      180.000000       -1.166079         4    ;  uncertainty k = 0.225549
         9         6         7        25     9        0.000000       -0.660046         1    ;  uncertainty k = 0.822850
         9         6         7        25     9      180.000000       -0.335425         2    ;  uncertainty k = 0.296526
         9         6         7        25     9        0.000000       -0.318954         3    ;  uncertainty k = 0.088200
         9         6         7        25     9      180.000000       -0.125094         4    ;  uncertainty k = 0.064770
         9        11        12        13     9        0.000000       -3.500645         1    ;  uncertainty k = 0.864914
         9        11        12        13     9      180.000000       -0.040227         2    ;  uncertainty k = 0.302685
         9        11        12        13     9        0.000000        1.496269         3    ;  uncertainty k = 0.173304
         9        11        12        13     9      180.000000       -0.330862         4    ;  uncertainty k = 0.160910
         9        11        12        30     9        0.000000       -0.389752         1    ;  uncertainty k = 0.566702
         9        11        12        30     9      180.000000       -0.633416         2    ;  uncertainty k = 0.206369
         9        11        12        30     9        0.000000        0.100397         3    ;  uncertainty k = 0.128757
         9        11        12        30     9      180.000000       -0.241270         4    ;  uncertainty k = 0.092306
         9        11        12        31     9        0.000000       -0.389752         1    ;  uncertainty k = 0.566702
         9        11        12        31     9      180.000000       -0.633416         2    ;  uncertainty k = 0.206369
         9        11        12        31     9        0.000000        0.100397         3    ;  uncertainty k = 0.128757
         9        11        12        31     9      180.000000       -0.241270         4    ;  uncertainty k = 0.092306
         9        11        14        15     9        0.000000        1.710819         1    ;  uncertainty k = 1.967719
         9        11        14        15     9      180.000000       -2.820808         2    ;  uncertainty k = 0.590799
         9        11        14        15     9        0.000000       -0.265511         3    ;  uncertainty k = 0.316061
         9        11        14        15     9      180.000000        0.030797         4    ;  uncertainty k = 0.180924
        10         9         6        24     9        0.000000       -0.321276         1    ;  uncertainty k = 0.176896
        10         9         6        24     9      180.000000       -0.102918         2    ;  uncertainty k = 0.359202
        10         9         6        24     9        0.000000        0.594499         3    ;  uncertainty k = 0.215544
        10         9         6        24     9      180.000000       -0.061229         4    ;  uncertainty k = 0.114446
        10         9        11        12     9        0.000000       -2.146249         1    ;  uncertainty k = 0.952515
        10         9        11        12     9      180.000000        0.106301         2    ;  uncertainty k = 0.229016
        10         9        11        12     9        0.000000        0.807370         3    ;  uncertainty k = 0.172859
        10         9        11        12     9      180.000000       -0.255912         4    ;  uncertainty k = 0.234311
        10         9        11        14     9        0.000000       -3.683487         1    ;  uncertainty k = 1.032183
        10         9        11        14     9      180.000000       -0.908155         2    ;  uncertainty k = 0.571417
        10         9        11        14     9        0.000000        2.093692         3    ;  uncertainty k = 0.314978
        10         9        11        14     9      180.000000       -0.114035         4    ;  uncertainty k = 0.099391
        10         9        11        29     9        0.000000       -0.332347         1    ;  uncertainty k = 0.439850
        10         9        11        29     9      180.000000       -0.000255         2    ;  uncertainty k = 0.271243
        10         9        11        29     9        0.000000        0.580127         3    ;  uncertainty k = 0.193597
        10         9        11        29     9      180.000000       -0.095134         4    ;  uncertainty k = 0.183032
        11         9         6        24     9        0.000000       -1.472333         1    ;  uncertainty k = 0.757945
        11         9         6        24     9      180.000000       -0.387291         2    ;  uncertainty k = 0.427911
        11         9         6        24     9        0.000000       -0.386086         3    ;  uncertainty k = 0.127943
        11         9         6        24     9      180.000000       -0.123413         4    ;  uncertainty k = 0.108974
        11         9        10        28     9        0.000000       18.553540         1    ;  uncertainty k = 0.350139
        11         9        10        28     9      180.000000       -4.302102         2    ;  uncertainty k = 0.320512
        11         9        10        28     9        0.000000        1.261962         3    ;  uncertainty k = 0.099603
        11         9        10        28     9      180.000000        0.432553         4    ;  uncertainty k = 0.084339
        11        12        13        32     9        0.000000       12.803371         1    ;  uncertainty k = 0.176801
        11        12        13        32     9      180.000000       -4.408763         2    ;  uncertainty k = 0.479248
        11        12        13        32     9        0.000000        1.225569         3    ;  uncertainty k = 0.219872
        11        12        13        32     9      180.000000        0.130954         4    ;  uncertainty k = 0.066305
        11        14        15        16     9        0.000000       -2.926971         1    ;  uncertainty k = 3.130055
        11        14        15        16     9      180.000000       -2.564676         2    ;  uncertainty k = 1.420082
        11        14        15        16     9        0.000000        0.716063         3    ;  uncertainty k = 0.197310
        11        14        15        16     9      180.000000       -0.095130         4    ;  uncertainty k = 0.349354
        11        14        15        33     9        0.000000       -1.916764         1    ;  uncertainty k = 0.747113
        11        14        15        33     9      180.000000        0.286798         2    ;  uncertainty k = 0.756983
        11        14        15        33     9        0.000000        0.238864         3    ;  uncertainty k = 0.128323
        11        14        15        33     9      180.000000       -0.367195         4    ;  uncertainty k = 0.168117
        12        11         9        27     9        0.000000       -1.151783         1    ;  uncertainty k = 0.623435
        12        11         9        27     9      180.000000        0.138239         2    ;  uncertainty k = 0.201798
        12        11         9        27     9        0.000000       -0.215346         3    ;  uncertainty k = 0.154972
        12        11         9        27     9      180.000000       -0.318334         4    ;  uncertainty k = 0.121552
        12        11        14        15     9        0.000000       -4.857638         1    ;  uncertainty k = 1.137696
        12        11        14        15     9      180.000000        0.917053         2    ;  uncertainty k = 0.617072
        12        11        14        15     9        0.000000        0.320186         3    ;  uncertainty k = 0.288726
        12        11        14        15     9      180.000000       -0.125902         4    ;  uncertainty k = 0.250358
        13        12        11        14     9        0.000000       -1.195280         1    ;  uncertainty k = 0.547640
        13        12        11        14     9      180.000000       -3.298099         2    ;  uncertainty k = 0.199322
        13        12        11        14     9        0.000000        2.717044         3    ;  uncertainty k = 0.305228
        13        12        11        14     9      180.000000       -0.208307         4    ;  uncertainty k = 0.128814
        13        12        11        29     9        0.000000       -2.028010         1    ;  uncertainty k = 0.722924
        13        12        11        29     9      180.000000        0.685399         2    ;  uncertainty k = 0.313942
        13        12        11        29     9        0.000000        1.166981         3    ;  uncertainty k = 0.311765
        13        12        11        29     9      180.000000       -0.195732         4    ;  uncertainty k = 0.045240
        14        11         9        27     9        0.000000       -0.095707         1    ;  uncertainty k = 0.475472
        14        11         9        27     9      180.000000       -0.600072         2    ;  uncertainty k = 0.320846
        14        11         9        27     9        0.000000        0.248942         3    ;  uncertainty k = 0.333119
        14        11         9        27     9      180.000000        0.105109         4    ;  uncertainty k = 0.089467
        14        11        12        30     9        0.000000        0.526900         1    ;  uncertainty k = 0.329165
        14        11        12        30     9      180.000000       -1.466090         2    ;  uncertainty k = 0.305903
        14        11        12        30     9        0.000000        0.270792         3    ;  uncertainty k = 0.233657
        14        11        12        30     9      180.000000       -0.091616         4    ;  uncertainty k = 0.101291
        14        11        12        31     9        0.000000        0.526900         1    ;  uncertainty k = 0.329165
        14        11        12        31     9      180.000000       -1.466090         2    ;  uncertainty k = 0.305903
        14        11        12        31     9        0.000000        0.270792         3    ;  uncertainty k = 0.233657
        14        11        12        31     9      180.000000       -0.091616         4    ;  uncertainty k = 0.101291
        14        15         7        25     9        0.000000       -0.162108         1    ;  uncertainty k = 0.690391
        14        15         7        25     9      180.000000       -0.679322         2    ;  uncertainty k = 0.276900
        14        15         7        25     9        0.000000        0.226951         3    ;  uncertainty k = 0.338395
        14        15         7        25     9      180.000000        0.125752         4    ;  uncertainty k = 0.152593
        14        15        16        17     9        0.000000        3.183562         1    ;  uncertainty k = 0.884859
        14        15        16        17     9      180.000000       -5.436577         2    ;  uncertainty k = 0.699848
        14        15        16        17     9        0.000000        1.259612         3    ;  uncertainty k = 0.434034
        14        15        16        17     9      180.000000        0.368477         4    ;  uncertainty k = 0.291496
        15         7         6        24     9        0.000000       -1.226810         1    ;  uncertainty k = 0.720372
        15         7         6        24     9      180.000000       -0.616695         2    ;  uncertainty k = 0.393537
        15         7         6        24     9        0.000000       -0.401072         3    ;  uncertainty k = 0.103608
        15         7         6        24     9      180.000000       -0.116758         4    ;  uncertainty k = 0.090911
        15         7         8        26     9        0.000000       18.425671         1    ;  uncertainty k = 0.339412
        15         7         8        26     9      180.000000       -4.642088         2    ;  uncertainty k = 0.438829
        15         7         8        26     9        0.000000        1.143722         3    ;  uncertainty k = 0.149175
        15         7         8        26     9      180.000000        0.382008         4    ;  uncertainty k = 0.101401
        15        14        11        29     9        0.000000       -2.121900         1    ;  uncertainty k = 0.521152
        15        14        11        29     9      180.000000       -1.268057         2    ;  uncertainty k = 0.577886
        15        14        11        29     9        0.000000        0.231856         3    ;  uncertainty k = 0.127960
        15        14        11        29     9      180.000000       -0.237800         4    ;  uncertainty k = 0.180440
        15        16        17        18     9        0.000000        3.177932         1    ;  uncertainty k = 2.151279
        15        16        17        18     9      180.000000        2.740787         2    ;  uncertainty k = 0.263278
        15        16        17        18     9        0.000000        0.277594         3    ;  uncertainty k = 0.291896
        15        16        17        18     9      180.000000        0.328068         4    ;  uncertainty k = 0.080835
        15        16        17        22     9        0.000000        3.177932         1    ;  uncertainty k = 2.151279
        15        16        17        22     9      180.000000        2.740787         2    ;  uncertainty k = 0.263278
        15        16        17        22     9        0.000000        0.277594         3    ;  uncertainty k = 0.291896
        15        16        17        22     9      180.000000        0.328068         4    ;  uncertainty k = 0.080835
        16        15         7        25     9        0.000000        2.581950         1    ;  uncertainty k = 0.784321
        16        15         7        25     9      180.000000       -1.367223         2    ;  uncertainty k = 0.615574
        16        15         7        25     9        0.000000        0.413421         3    ;  uncertainty k = 0.158680
        16        15         7        25     9      180.000000       -0.024784         4    ;  uncertainty k = 0.117766
        16        17        18        19     9        0.000000        0.062072         1    ;  uncertainty k = 0.417313
        16        17        18        19     9      180.000000        7.419842         2    ;  uncertainty k = 0.519111
        16        17        18        19     9        0.000000        1.109992         3    ;  uncertainty k = 0.330811
        16        17        18        19     9      180.000000        1.700873         4    ;  uncertainty k = 0.103413
        16        17        18        34     9        0.000000       -0.324403         1    ;  uncertainty k = 0.406827
        16        17        18        34     9      180.000000        6.518985         2    ;  uncertainty k = 0.532134
        16        17        18        34     9        0.000000        0.789417         3    ;  uncertainty k = 0.187425
        16        17        18        34     9      180.000000        1.036678         4    ;  uncertainty k = 0.126625
        16        17        22        21     9        0.000000        0.062072         1    ;  uncertainty k = 0.417313
        16        17        22        21     9      180.000000        7.419842         2    ;  uncertainty k = 0.519111
        16        17        22        21     9        0.000000        1.109992         3    ;  uncertainty k = 0.330811
        16        17        22        21     9      180.000000        1.700873         4    ;  uncertainty k = 0.103413
        16        17        22        37     9        0.000000       -0.324403         1    ;  uncertainty k = 0.406827
        16        17        22        37     9      180.000000        6.518985         2    ;  uncertainty k = 0.532134
        16        17        22        37     9        0.000000        0.789417         3    ;  uncertainty k = 0.187425
        16        17        22        37     9      180.000000        1.036678         4    ;  uncertainty k = 0.126625
        17        16        15        33     9        0.000000        4.078705         1    ;  uncertainty k = 1.076481
        17        16        15        33     9      180.000000       -2.455779         2    ;  uncertainty k = 0.835987
        17        16        15        33     9        0.000000        0.554515         3    ;  uncertainty k = 0.127842
        17        16        15        33     9      180.000000       -0.001864         4    ;  uncertainty k = 0.210606
        17        18        19        20     9        0.000000       -0.127263         1    ;  uncertainty k = 0.141698
        17        18        19        20     9      180.000000       14.225482         2    ;  uncertainty k = 0.114156
        17        18        19        20     9        0.000000       -0.985336         3    ;  uncertainty k = 0.627196
        17        18        19        20     9      180.000000        0.658378         4    ;  uncertainty k = 0.330608
        17        18        19        35     9        0.000000       -0.008817         1    ;  uncertainty k = 0.089727
        17        18        19        35     9      180.000000        8.312278         2    ;  uncertainty k = 0.286072
        17        18        19        35     9        0.000000        1.348940         3    ;  uncertainty k = 0.188593
        17        18        19        35     9      180.000000        1.838528         4    ;  uncertainty k = 0.183015
        17        22        21        20     9        0.000000       -0.127263         1    ;  uncertainty k = 0.141698
        17        22        21        20     9      180.000000       14.225482         2    ;  uncertainty k = 0.114156
        17        22        21        20     9        0.000000       -0.985336         3    ;  uncertainty k = 0.627196
        17        22        21        20     9      180.000000        0.658378         4    ;  uncertainty k = 0.330608
        17        22        21        36     9        0.000000       -0.008817         1    ;  uncertainty k = 0.089727
        17        22        21        36     9      180.000000        8.312278         2    ;  uncertainty k = 0.286072
        17        22        21        36     9        0.000000        1.348940         3    ;  uncertainty k = 0.188593
        17        22        21        36     9      180.000000        1.838528         4    ;  uncertainty k = 0.183015
        18        17        22        21     9        0.000000       -0.156871         1    ;  uncertainty k = 0.126213
        18        17        22        21     9      180.000000       10.965607         2    ;  uncertainty k = 0.455519
        18        17        22        21     9        0.000000       -0.528095         3    ;  uncertainty k = 0.423553
        18        17        22        21     9      180.000000        0.857619         4    ;  uncertainty k = 0.432466
        18        17        22        37     9        0.000000        0.072440         1    ;  uncertainty k = 0.376040
        18        17        22        37     9      180.000000        6.562952         2    ;  uncertainty k = 0.763072
        18        17        22        37     9        0.000000        1.445396         3    ;  uncertainty k = 0.299971
        18        17        22        37     9      180.000000        1.585416         4    ;  uncertainty k = 0.178642
        18        19        20        21     9        0.000000       -0.193178         1    ;  uncertainty k = 0.184505
        18        19        20        21     9      180.000000       11.680381         2    ;  uncertainty k = 0.380066
        18        19        20        21     9        0.000000       -0.464248         3    ;  uncertainty k = 0.440275
        18        19        20        21     9      180.000000        0.808662         4    ;  uncertainty k = 0.464268
        18        19        20        38     9        0.000000        0.085947         1    ;  uncertainty k = 0.260078
        18        19        20        38     9      180.000000        9.181143         2    ;  uncertainty k = 0.434375
        18        19        20        38     9        0.000000        1.462752         3    ;  uncertainty k = 0.304781
        18        19        20        38     9      180.000000        1.830171         4    ;  uncertainty k = 0.164748
        19        18        17        22     9        0.000000       -0.156871         1    ;  uncertainty k = 0.126213
        19        18        17        22     9      180.000000       10.965607         2    ;  uncertainty k = 0.455519
        19        18        17        22     9        0.000000       -0.528095         3    ;  uncertainty k = 0.423553
        19        18        17        22     9      180.000000        0.857619         4    ;  uncertainty k = 0.432466
        19        20        21        22     9        0.000000       -0.193178         1    ;  uncertainty k = 0.184505
        19        20        21        22     9      180.000000       11.680381         2    ;  uncertainty k = 0.380066
        19        20        21        22     9        0.000000       -0.464248         3    ;  uncertainty k = 0.440275
        19        20        21        22     9      180.000000        0.808662         4    ;  uncertainty k = 0.464268
        19        20        21        36     9        0.000000        0.033450         1    ;  uncertainty k = 0.124148
        19        20        21        36     9      180.000000        7.140961         2    ;  uncertainty k = 0.383307
        19        20        21        36     9        0.000000        1.479885         3    ;  uncertainty k = 0.375479
        19        20        21        36     9      180.000000        1.615246         4    ;  uncertainty k = 0.151832
        19        20        38        39     9        0.000000        0.024708         1    ;  uncertainty k = 0.037574
        19        20        38        39     9      180.000000        1.245377         2    ;  uncertainty k = 0.103962
        19        20        38        39     9        0.000000        0.346041         3    ;  uncertainty k = 0.034499
        19        20        38        39     9      180.000000        0.177401         4    ;  uncertainty k = 0.012952
        19        20        38        40     9        0.000000        0.024708         1    ;  uncertainty k = 0.037574
        19        20        38        40     9      180.000000        1.245377         2    ;  uncertainty k = 0.103962
        19        20        38        40     9        0.000000        0.346041         3    ;  uncertainty k = 0.034499
        19        20        38        40     9      180.000000        0.177401         4    ;  uncertainty k = 0.012952
        19        20        38        41     9        0.000000        0.024708         1    ;  uncertainty k = 0.037574
        19        20        38        41     9      180.000000        1.245377         2    ;  uncertainty k = 0.103962
        19        20        38        41     9        0.000000        0.346041         3    ;  uncertainty k = 0.034499
        19        20        38        41     9      180.000000        0.177401         4    ;  uncertainty k = 0.012952
        20        19        18        34     9        0.000000        0.124113         1    ;  uncertainty k = 0.209646
        20        19        18        34     9      180.000000        7.646778         2    ;  uncertainty k = 0.344928
        20        19        18        34     9        0.000000        1.407906         3    ;  uncertainty k = 0.235482
        20        19        18        34     9      180.000000        1.836191         4    ;  uncertainty k = 0.152560
        20        21        22        37     9        0.000000        0.124113         1    ;  uncertainty k = 0.209646
        20        21        22        37     9      180.000000        7.646778         2    ;  uncertainty k = 0.344928
        20        21        22        37     9        0.000000        1.407906         3    ;  uncertainty k = 0.235482
        20        21        22        37     9      180.000000        1.836191         4    ;  uncertainty k = 0.152560
        21        20        19        35     9        0.000000        0.033450         1    ;  uncertainty k = 0.124148
        21        20        19        35     9      180.000000        7.140961         2    ;  uncertainty k = 0.383307
        21        20        19        35     9        0.000000        1.479885         3    ;  uncertainty k = 0.375479
        21        20        19        35     9      180.000000        1.615246         4    ;  uncertainty k = 0.151832
        21        20        38        39     9        0.000000        0.024708         1    ;  uncertainty k = 0.037574
        21        20        38        39     9      180.000000        1.245377         2    ;  uncertainty k = 0.103962
        21        20        38        39     9        0.000000        0.346041         3    ;  uncertainty k = 0.034499
        21        20        38        39     9      180.000000        0.177401         4    ;  uncertainty k = 0.012952
        21        20        38        40     9        0.000000        0.024708         1    ;  uncertainty k = 0.037574
        21        20        38        40     9      180.000000        1.245377         2    ;  uncertainty k = 0.103962
        21        20        38        40     9        0.000000        0.346041         3    ;  uncertainty k = 0.034499
        21        20        38        40     9      180.000000        0.177401         4    ;  uncertainty k = 0.012952
        21        20        38        41     9        0.000000        0.024708         1    ;  uncertainty k = 0.037574
        21        20        38        41     9      180.000000        1.245377         2    ;  uncertainty k = 0.103962
        21        20        38        41     9        0.000000        0.346041         3    ;  uncertainty k = 0.034499
        21        20        38        41     9      180.000000        0.177401         4    ;  uncertainty k = 0.012952
        22        17        18        34     9        0.000000        0.072440         1    ;  uncertainty k = 0.376040
        22        17        18        34     9      180.000000        6.562952         2    ;  uncertainty k = 0.763072
        22        17        18        34     9        0.000000        1.445396         3    ;  uncertainty k = 0.299971
        22        17        18        34     9      180.000000        1.585416         4    ;  uncertainty k = 0.178642
        22        21        20        38     9        0.000000        0.085947         1    ;  uncertainty k = 0.260078
        22        21        20        38     9      180.000000        9.181143         2    ;  uncertainty k = 0.434375
        22        21        20        38     9        0.000000        1.462752         3    ;  uncertainty k = 0.304781
        22        21        20        38     9      180.000000        1.830171         4    ;  uncertainty k = 0.164748
        23         4         1        42     9        0.000000        0.161589         1    ;  uncertainty k = 0.837434
        23         4         1        42     9      180.000000        6.508257         2    ;  uncertainty k = 1.070948
        23         4         1        42     9        0.000000        1.200182         3    ;  uncertainty k = 0.465940
        23         4         1        42     9      180.000000        0.229790         4    ;  uncertainty k = 0.153558
        24         6         7        25     9        0.000000        0.738142         1    ;  uncertainty k = 0.404532
        24         6         7        25     9      180.000000       -0.466936         2    ;  uncertainty k = 0.387651
        24         6         7        25     9        0.000000       -0.165785         3    ;  uncertainty k = 0.332593
        24         6         7        25     9      180.000000       -0.168400         4    ;  uncertainty k = 0.127767
        24         6         9        27     9        0.000000        0.782671         1    ;  uncertainty k = 0.449802
        24         6         9        27     9      180.000000       -0.479510         2    ;  uncertainty k = 0.387871
        24         6         9        27     9        0.000000       -0.193561         3    ;  uncertainty k = 0.312761
        24         6         9        27     9      180.000000       -0.172001         4    ;  uncertainty k = 0.106752
        25         7         8        26     9        0.000000       15.402551         1    ;  uncertainty k = 0.447078
        25         7         8        26     9      180.000000       -1.787025         2    ;  uncertainty k = 0.288762
        25         7         8        26     9        0.000000        0.563549         3    ;  uncertainty k = 0.141418
        25         7         8        26     9      180.000000        0.388149         4    ;  uncertainty k = 0.058640
        25         7        15        33     9        0.000000       -0.190583         1    ;  uncertainty k = 0.256009
        25         7        15        33     9      180.000000       -0.018306         2    ;  uncertainty k = 0.316387
        25         7        15        33     9        0.000000        0.129412         3    ;  uncertainty k = 0.264290
        25         7        15        33     9      180.000000       -0.212594         4    ;  uncertainty k = 0.201546
        27         9        10        28     9        0.000000       15.204568         1    ;  uncertainty k = 0.383293
        27         9        10        28     9      180.000000       -2.008800         2    ;  uncertainty k = 0.361223
        27         9        10        28     9        0.000000        0.572217         3    ;  uncertainty k = 0.162951
        27         9        10        28     9      180.000000        0.405645         4    ;  uncertainty k = 0.081230
        27         9        11        29     9        0.000000        0.295960         1    ;  uncertainty k = 0.296986
        27         9        11        29     9      180.000000       -0.050225         2    ;  uncertainty k = 0.461878
        27         9        11        29     9        0.000000       -0.200187         3    ;  uncertainty k = 0.217268
        27         9        11        29     9      180.000000       -0.260240         4    ;  uncertainty k = 0.109658
        29        11        12        30     9        0.000000       -0.167653         1    ;  uncertainty k = 0.174272
        29        11        12        30     9      180.000000       -0.232874         2    ;  uncertainty k = 0.123290
        29        11        12        30     9        0.000000        0.093127         3    ;  uncertainty k = 0.089625
        29        11        12        30     9      180.000000       -0.087467         4    ;  uncertainty k = 0.104346
        29        11        12        31     9        0.000000       -0.167653         1    ;  uncertainty k = 0.174272
        29        11        12        31     9      180.000000       -0.232874         2    ;  uncertainty k = 0.123290
        29        11        12        31     9        0.000000        0.093127         3    ;  uncertainty k = 0.089625
        29        11        12        31     9      180.000000       -0.087467         4    ;  uncertainty k = 0.104346
        30        12        13        32     9        0.000000       10.479494         1    ;  uncertainty k = 0.097216
        30        12        13        32     9      180.000000       -1.870970         2    ;  uncertainty k = 0.389127
        30        12        13        32     9        0.000000        0.826769         3    ;  uncertainty k = 0.020297
        30        12        13        32     9      180.000000        0.085753         4    ;  uncertainty k = 0.063309
        31        12        13        32     9        0.000000       10.479494         1    ;  uncertainty k = 0.097216
        31        12        13        32     9      180.000000       -1.870970         2    ;  uncertainty k = 0.389127
        31        12        13        32     9        0.000000        0.826769         3    ;  uncertainty k = 0.020297
        31        12        13        32     9      180.000000        0.085753         4    ;  uncertainty k = 0.063309
        34        18        19        35     9        0.000000       -0.157292         1    ;  uncertainty k = 0.178485
        34        18        19        35     9      180.000000        7.628097         2    ;  uncertainty k = 0.442866
        34        18        19        35     9        0.000000       -0.477939         3    ;  uncertainty k = 0.282385
        34        18        19        35     9      180.000000        0.148042         4    ;  uncertainty k = 0.156058
        35        19        20        38     9        0.000000       -0.391576         1    ;  uncertainty k = 0.425690
        35        19        20        38     9      180.000000        8.399313         2    ;  uncertainty k = 0.266950
        35        19        20        38     9        0.000000        0.463757         3    ;  uncertainty k = 0.267844
        35        19        20        38     9      180.000000        0.838733         4    ;  uncertainty k = 0.257393
        36        21        20        38     9        0.000000       -0.391576         1    ;  uncertainty k = 0.425690
        36        21        20        38     9      180.000000        8.399313         2    ;  uncertainty k = 0.266950
        36        21        20        38     9        0.000000        0.463757         3    ;  uncertainty k = 0.267844
        36        21        20        38     9      180.000000        0.838733         4    ;  uncertainty k = 0.257393
        36        21        22        37     9        0.000000       -0.157292         1    ;  uncertainty k = 0.178485
        36        21        22        37     9      180.000000        7.628097         2    ;  uncertainty k = 0.442866
        36        21        22        37     9        0.000000       -0.477939         3    ;  uncertainty k = 0.282385
        36        21        22        37     9      180.000000        0.148042         4    ;  uncertainty k = 0.156058
        42        43        44        45     9        0.000000       -0.221317         1    ;  uncertainty k = 0.427556
        42        43        44        45     9      180.000000       21.676940         2    ;  uncertainty k = 0.633093
        42        43        44        45     9        0.000000       -9.021658         3    ;  uncertainty k = 0.691831
        42        43        44        45     9      180.000000        1.695969         4    ;  uncertainty k = 0.726214
        42        43        44        48     9        0.000000       -0.122926         1    ;  uncertainty k = 0.533391
        42        43        44        48     9      180.000000       12.995721         2    ;  uncertainty k = 0.253781
        42        43        44        48     9        0.000000        1.684363         3    ;  uncertainty k = 0.335094
        42        43        44        48     9      180.000000        0.749972         4    ;  uncertainty k = 0.237847
        42        46        45        44     9        0.000000        0.116428         1    ;  uncertainty k = 0.951350
        42        46        45        44     9      180.000000       15.528615         2    ;  uncertainty k = 0.688608
        42        46        45        44     9        0.000000       -6.335375         3    ;  uncertainty k = 1.065598
        42        46        45        44     9      180.000000        1.313535         4    ;  uncertainty k = 0.469161
        43        42        46        45     9        0.000000       -0.282778         1    ;  uncertainty k = 0.488868
        43        42        46        45     9      180.000000       20.920778         2    ;  uncertainty k = 0.617569
        43        42        46        45     9        0.000000       -8.483150         3    ;  uncertainty k = 0.870954
        43        42        46        45     9      180.000000        1.620218         4    ;  uncertainty k = 0.817137
        43        42        46        47     9        0.000000       -0.080977         1    ;  uncertainty k = 0.215596
        43        42        46        47     9      180.000000       11.501689         2    ;  uncertainty k = 0.370421
        43        42        46        47     9        0.000000        1.621841         3    ;  uncertainty k = 0.269854
        43        42        46        47     9      180.000000        0.717231         4    ;  uncertainty k = 0.173733
        43        44        45        46     9        0.000000       -0.192843         1    ;  uncertainty k = 0.795032
        43        44        45        46     9      180.000000       15.289179         2    ;  uncertainty k = 0.637156
        43        44        45        46     9        0.000000       -7.907588         3    ;  uncertainty k = 1.193917
        43        44        45        46     9      180.000000        1.304279         4    ;  uncertainty k = 0.353989
        44        43        42        46     9        0.000000       -0.758194         1    ;  uncertainty k = 0.357434
        44        43        42        46     9      180.000000       11.567094         2    ;  uncertainty k = 1.117444
        44        43        42        46     9        0.000000       -8.304479         3    ;  uncertainty k = 0.760163
        44        43        42        46     9      180.000000        2.094337         4    ;  uncertainty k = 0.452211
        44        45        46        47     9        0.000000        0.589379         1    ;  uncertainty k = 0.945221
        44        45        46        47     9      180.000000        8.796370         2    ;  uncertainty k = 0.845271
        44        45        46        47     9        0.000000        1.262167         3    ;  uncertainty k = 0.746165
        44        45        46        47     9      180.000000        0.360905         4    ;  uncertainty k = 0.175935
        45        44        43        49     9        0.000000        0.649269         1    ;  uncertainty k = 0.924764
        45        44        43        49     9      180.000000       17.779359         2    ;  uncertainty k = 0.520818
        45        44        43        49     9        0.000000        1.512374         3    ;  uncertainty k = 0.351486
        45        44        43        49     9      180.000000        0.933666         4    ;  uncertainty k = 0.399230
        46        42        43        49     9        0.000000        0.161850         1    ;  uncertainty k = 1.115724
        46        42        43        49     9      180.000000        7.142461         2    ;  uncertainty k = 0.688752
        46        42        43        49     9        0.000000        1.564405         3    ;  uncertainty k = 0.414590
        46        42        43        49     9      180.000000        0.440954         4    ;  uncertainty k = 0.261130
        46        45        44        48     9        0.000000        0.615737         1    ;  uncertainty k = 1.174202
        46        45        44        48     9      180.000000        8.804332         2    ;  uncertainty k = 0.876220
        46        45        44        48     9        0.000000        1.296293         3    ;  uncertainty k = 0.553321
        46        45        44        48     9      180.000000        0.339259         4    ;  uncertainty k = 0.176699
        48        44        43        49     9        0.000000       -0.201561         1    ;  uncertainty k = 0.310095
        48        44        43        49     9      180.000000        6.032907         2    ;  uncertainty k = 0.724374
        48        44        43        49     9        0.000000        1.108552         3    ;  uncertainty k = 0.562797
        48        44        43        49     9      180.000000        0.337428         4    ;  uncertainty k = 0.193838

[ dihedrals ] ; impropers
;       ai        aj        ak        al funct           phase               k        pn
         1         2         4        42     4      180.000000        6.464057         2    ;  uncertainty k = 0.532192
         1         4        42         2     4      180.000000        6.464057         2    ;  uncertainty k = 0.532192
         1        42         2         4     4      180.000000        6.464057         2    ;  uncertainty k = 0.532192
         4         1         5        23     4      180.000000        0.877293         2    ;  uncertainty k = 1.211663
         4         5        23         1     4      180.000000        0.877293         2    ;  uncertainty k = 1.211663
         4        23         1         5     4      180.000000        0.877293         2    ;  uncertainty k = 1.211663
        17        16        18        22     4      180.000000       11.790034         2    ;  uncertainty k = 0.101837
        17        18        22        16     4      180.000000       11.790034         2    ;  uncertainty k = 0.101837
        17        22        16        18     4      180.000000       11.790034         2    ;  uncertainty k = 0.101837
        18        17        19        34     4      180.000000        4.631440         2    ;  uncertainty k = 0.175194
        18        19        34        17     4      180.000000        4.631440         2    ;  uncertainty k = 0.175194
        18        34        17        19     4      180.000000        4.631440         2    ;  uncertainty k = 0.175194
        19        18        20        35     4      180.000000        3.995374         2    ;  uncertainty k = 0.157755
        19        20        35        18     4      180.000000        3.995374         2    ;  uncertainty k = 0.157755
        19        35        18        20     4      180.000000        3.995374         2    ;  uncertainty k = 0.157755
        20        19        21        38     4      180.000000       16.407557         2    ;  uncertainty k = 0.051646
        20        21        38        19     4      180.000000       16.407557         2    ;  uncertainty k = 0.051646
        20        38        19        21     4      180.000000       16.407557         2    ;  uncertainty k = 0.051646
        21        20        22        36     4      180.000000        3.995374         2    ;  uncertainty k = 0.157755
        21        22        36        20     4      180.000000        3.995374         2    ;  uncertainty k = 0.157755
        21        36        20        22     4      180.000000        3.995374         2    ;  uncertainty k = 0.157755
        22        17        21        37     4      180.000000        4.631440         2    ;  uncertainty k = 0.175194
        22        21        37        17     4      180.000000        4.631440         2    ;  uncertainty k = 0.175194
        22        37        17        21     4      180.000000        4.631440         2    ;  uncertainty k = 0.175194
        42         1        43        46     4      180.000000        3.781681         2    ;  uncertainty k = 0.403036
        42        43        46         1     4      180.000000        3.781681         2    ;  uncertainty k = 0.403036
        42        46         1        43     4      180.000000        3.781681         2    ;  uncertainty k = 0.403036
        43        42        44        49     4      180.000000        0.281475         2    ;  uncertainty k = 0.629397
        43        44        49        42     4      180.000000        0.281475         2    ;  uncertainty k = 0.629397
        43        49        42        44     4      180.000000        0.281475         2    ;  uncertainty k = 0.629397
        44        43        45        48     4      180.000000        0.435487         2    ;  uncertainty k = 0.678028
        44        45        48        43     4      180.000000        0.435487         2    ;  uncertainty k = 0.678028
        44        48        43        45     4      180.000000        0.435487         2    ;  uncertainty k = 0.678028
        46        42        45        47     4      180.000000        0.009245         2    ;  uncertainty k = 0.020673
        46        45        47        42     4      180.000000        0.009245         2    ;  uncertainty k = 0.020673
        46        47        42        45     4      180.000000        0.009245         2    ;  uncertainty k = 0.020673

[ pairs ]
;       ai        aj funct
         1         6     1
         1        44     1
         1        45     1
         1        47     1
         1        49     1
         2         6     1
         2        23     1
         2        43     1
         2        46     1
         3         7     1
         3         9     1
         3        23     1
         3        24     1
         3        42     1
         4         7     1
         4         9     1
         4        24     1
         4        43     1
         4        46     1
         5         8     1
         5        10     1
         5        11     1
         5        15     1
         5        25     1
         5        27     1
         5        42     1
         6        12     1
         6        14     1
         6        16     1
         6        23     1
         6        26     1
         6        28     1
         6        29     1
         6        33     1
         7        10     1
         7        11     1
         7        17     1
         7        27     1
         8         9     1
         8        14     1
         8        16     1
         8        24     1
         8        33     1
         9        13     1
         9        15     1
         9        25     1
         9        30     1
         9        31     1
        10        12     1
        10        14     1
        10        24     1
        10        29     1
        11        16     1
        11        24     1
        11        28     1
        11        32     1
        11        33     1
        12        15     1
        12        27     1
        13        14     1
        13        29     1
        14        17     1
        14        25     1
        14        27     1
        14        30     1
        14        31     1
        15        18     1
        15        22     1
        15        24     1
        15        26     1
        15        29     1
        16        19     1
        16        21     1
        16        25     1
        16        34     1
        16        37     1
        17        20     1
        17        33     1
        17        35     1
        17        36     1
        18        21     1
        18        37     1
        18        38     1
        19        22     1
        19        36     1
        19        39     1
        19        40     1
        19        41     1
        20        34     1
        20        37     1
        21        35     1
        21        39     1
        21        40     1
        21        41     1
        22        34     1
        22        38     1
        23        42     1
        24        25     1
        24        27     1
        25        26     1
        25        33     1
        27        28     1
        27        29     1
        29        30     1
        29        31     1
        30        32     1
        31        32     1
        34        35     1
        35        38     1
        36        37     1
        36        38     1
        42        48     1
        43        47     1
        44        47     1
        45        49     1
        46        48     1
        46        49     1
        48        49     1
