; ITP file created by ByteFF-joint-25, 2025-07-14 11:36:22.708066

[ atomtypes ]
;name           bonded.type        at.num        mass        charge   ptype           sigma         epsilon
 c0bf                                   6      0.0000       0.00000       A     3.31539e-01     4.13433e-01    ;  uncertainty sigma = 0.000003, epsilon = 0.000577
 n1bf                                   7      0.0000       0.00000       A     3.38438e-01     3.93534e-01    ;  uncertainty sigma = 0.000014, epsilon = 0.000880
 n2bf                                   7      0.0000       0.00000       A     3.38398e-01     3.93755e-01    ;  uncertainty sigma = 0.000021, epsilon = 0.001193
 c3bf                                   6      0.0000       0.00000       A     3.31526e-01     4.13489e-01    ;  uncertainty sigma = 0.000017, epsilon = 0.000607
 n4bf                                   7      0.0000       0.00000       A     3.20663e-01     8.52323e-01    ;  uncertainty sigma = 0.000054, epsilon = 0.003147
 c5bf                                   6      0.0000       0.00000       A     3.39713e-01     4.50655e-01    ;  uncertainty sigma = 0.000026, epsilon = 0.001397
 c6bf                                   6      0.0000       0.00000       A     3.39779e-01     4.49718e-01    ;  uncertainty sigma = 0.000015, epsilon = 0.002118
 o7bf                                   8      0.0000       0.00000       A     3.24313e-01     3.89156e-01    ;  uncertainty sigma = 0.000010, epsilon = 0.000595
 c8bf                                   6      0.0000       0.00000       A     3.39779e-01     4.49976e-01    ;  uncertainty sigma = 0.000018, epsilon = 0.001841
 o9bf                                   8      0.0000       0.00000       A     3.24318e-01     3.89663e-01    ;  uncertainty sigma = 0.000007, epsilon = 0.000651
 c10bf                                  6      0.0000       0.00000       A     3.39813e-01     4.51725e-01    ;  uncertainty sigma = 0.000016, epsilon = 0.001146
 c11bf                                  6      0.0000       0.00000       A     3.39797e-01     4.50403e-01    ;  uncertainty sigma = 0.000017, epsilon = 0.000902
 o12bf                                  8      0.0000       0.00000       A     3.24274e-01     3.88861e-01    ;  uncertainty sigma = 0.000020, epsilon = 0.000688
 o13bf                                  8      0.0000       0.00000       A     3.15611e-01     3.03419e-01    ;  uncertainty sigma = 0.000029, epsilon = 0.002245
 c14bf                                  6      0.0000       0.00000       A     3.39781e-01     4.51054e-01    ;  uncertainty sigma = 0.000013, epsilon = 0.000917
 s15bf                                 16      0.0000       0.00000       A     3.53296e-01     1.18046e+00    ;  uncertainty sigma = 0.000030, epsilon = 0.002394
 c16bf                                  6      0.0000       0.00000       A     3.31487e-01     4.13043e-01    ;  uncertainty sigma = 0.000026, epsilon = 0.000640
 c17bf                                  6      0.0000       0.00000       A     3.31517e-01     4.13229e-01    ;  uncertainty sigma = 0.000008, epsilon = 0.000553
 c18bf                                  6      0.0000       0.00000       A     3.31524e-01     4.13304e-01    ;  uncertainty sigma = 0.000004, epsilon = 0.000505
 c19bf                                  6      0.0000       0.00000       A     3.31516e-01     4.13253e-01    ;  uncertainty sigma = 0.000004, epsilon = 0.000640
 c20bf                                  6      0.0000       0.00000       A     3.31524e-01     4.13304e-01    ;  uncertainty sigma = 0.000004, epsilon = 0.000505
 c21bf                                  6      0.0000       0.00000       A     3.31517e-01     4.13229e-01    ;  uncertainty sigma = 0.000008, epsilon = 0.000553
 h22bf                                  1      0.0000       0.00000       A     2.53600e-01     6.72346e-02    ;  uncertainty sigma = 0.000059, epsilon = 0.000893
 h23bf                                  1      0.0000       0.00000       A     2.42314e-01     8.67745e-02    ;  uncertainty sigma = 0.000097, epsilon = 0.000594
 h24bf                                  1      0.0000       0.00000       A     2.42150e-01     8.68976e-02    ;  uncertainty sigma = 0.000136, epsilon = 0.000578
 h25bf                                  1      0.0000       0.00000       A     5.37699e-02     1.94207e-02    ;  uncertainty sigma = 0.000075, epsilon = 0.001021
 h26bf                                  1      0.0000       0.00000       A     2.42148e-01     8.70400e-02    ;  uncertainty sigma = 0.000125, epsilon = 0.000654
 h27bf                                  1      0.0000       0.00000       A     5.37509e-02     1.95242e-02    ;  uncertainty sigma = 0.000059, epsilon = 0.001184
 h28bf                                  1      0.0000       0.00000       A     2.42295e-01     8.69263e-02    ;  uncertainty sigma = 0.000086, epsilon = 0.000919
 h29bf                                  1      0.0000       0.00000       A     2.42123e-01     8.66913e-02    ;  uncertainty sigma = 0.000015, epsilon = 0.000817
 h30bf                                  1      0.0000       0.00000       A     2.42123e-01     8.66913e-02    ;  uncertainty sigma = 0.000015, epsilon = 0.000817
 h31bf                                  1      0.0000       0.00000       A     5.37919e-02     1.95436e-02    ;  uncertainty sigma = 0.000077, epsilon = 0.000848
 h32bf                                  1      0.0000       0.00000       A     2.25392e-01     8.79591e-02    ;  uncertainty sigma = 0.000386, epsilon = 0.001528
 h33bf                                  1      0.0000       0.00000       A     2.62569e-01     6.71318e-02    ;  uncertainty sigma = 0.000009, epsilon = 0.000486
 h34bf                                  1      0.0000       0.00000       A     2.62564e-01     6.70918e-02    ;  uncertainty sigma = 0.000008, epsilon = 0.000519
 h35bf                                  1      0.0000       0.00000       A     2.62564e-01     6.70918e-02    ;  uncertainty sigma = 0.000008, epsilon = 0.000519
 h36bf                                  1      0.0000       0.00000       A     2.62569e-01     6.71318e-02    ;  uncertainty sigma = 0.000009, epsilon = 0.000486
 c37bf                                  6      0.0000       0.00000       A     3.39773e-01     4.50878e-01    ;  uncertainty sigma = 0.000005, epsilon = 0.000421
 h38bf                                  1      0.0000       0.00000       A     2.60034e-01     8.66894e-02    ;  uncertainty sigma = 0.000006, epsilon = 0.000488
 h39bf                                  1      0.0000       0.00000       A     2.60034e-01     8.66894e-02    ;  uncertainty sigma = 0.000006, epsilon = 0.000488
 h40bf                                  1      0.0000       0.00000       A     2.60034e-01     8.66894e-02    ;  uncertainty sigma = 0.000006, epsilon = 0.000488
 c41bf                                  6      0.0000       0.00000       A     3.31470e-01     4.13203e-01    ;  uncertainty sigma = 0.000027, epsilon = 0.001208
 c42bf                                  6      0.0000       0.00000       A     3.31529e-01     4.13192e-01    ;  uncertainty sigma = 0.000005, epsilon = 0.001035
 c43bf                                  6      0.0000       0.00000       A     3.31509e-01     4.13828e-01    ;  uncertainty sigma = 0.000004, epsilon = 0.000502
 c44bf                                  6      0.0000       0.00000       A     3.31497e-01     4.13143e-01    ;  uncertainty sigma = 0.000007, epsilon = 0.000644
 s45bf                                 16      0.0000       0.00000       A     3.53242e-01     1.18197e+00    ;  uncertainty sigma = 0.000014, epsilon = 0.000988
 h46bf                                  1      0.0000       0.00000       A     2.62532e-01     6.71314e-02    ;  uncertainty sigma = 0.000019, epsilon = 0.000628
 h47bf                                  1      0.0000       0.00000       A     2.53622e-01     6.70462e-02    ;  uncertainty sigma = 0.000017, epsilon = 0.000668
 h48bf                                  1      0.0000       0.00000       A     2.62580e-01     6.72307e-02    ;  uncertainty sigma = 0.000011, epsilon = 0.000448

[ moleculetype ]
;name             nrexcl
 MOL                   3

[ atoms ]
;       nr            type      resi   res      atom      cgnr      charge          mass ; qtot
         1            c0bf         1   UNL        c0         1     0.34489       12.0110 ; qtot    0.345
         2            n1bf         1   UNL        n1         2    -0.34893       14.0070 ; qtot   -0.004
         3            n2bf         1   UNL        n2         3    -0.20195       14.0070 ; qtot   -0.206
         4            c3bf         1   UNL        c3         4    -0.20142       12.0110 ; qtot   -0.407
         5            n4bf         1   UNL        n4         5     0.08950       14.0070 ; qtot   -0.318
         6            c5bf         1   UNL        c5         6     0.03665       12.0110 ; qtot   -0.281
         7            c6bf         1   UNL        c6         7     0.13775       12.0110 ; qtot   -0.144
         8            o7bf         1   UNL        o7         8    -0.59205       15.9990 ; qtot   -0.736
         9            c8bf         1   UNL        c8         9     0.12849       12.0110 ; qtot   -0.607
        10            o9bf         1   UNL        o9        10    -0.59538       15.9990 ; qtot   -1.202
        11           c10bf         1   UNL       c10        11     0.09794       12.0110 ; qtot   -1.105
        12           c11bf         1   UNL       c11        12     0.13320       12.0110 ; qtot   -0.971
        13           o12bf         1   UNL       o12        13    -0.59965       15.9990 ; qtot   -1.571
        14           o13bf         1   UNL       o13        14    -0.39620       15.9990 ; qtot   -1.967
        15           c14bf         1   UNL       c14        15     0.22984       12.0110 ; qtot   -1.737
        16           s15bf         1   UNL       s15        16    -0.29369       32.0670 ; qtot   -2.031
        17           c16bf         1   UNL       c16        17     0.01270       12.0110 ; qtot   -2.018
        18           c17bf         1   UNL       c17        18    -0.09102       12.0110 ; qtot   -2.109
        19           c18bf         1   UNL       c18        19    -0.13512       12.0110 ; qtot   -2.244
        20           c19bf         1   UNL       c19        20    -0.05605       12.0110 ; qtot   -2.300
        21           c20bf         1   UNL       c20        21    -0.13512       12.0110 ; qtot   -2.436
        22           c21bf         1   UNL       c21        22    -0.09102       12.0110 ; qtot   -2.527
        23           h22bf         1   UNL       h22        23     0.19571        1.0080 ; qtot   -2.331
        24           h23bf         1   UNL       h23        24     0.09445        1.0080 ; qtot   -2.236
        25           h24bf         1   UNL       h24        25     0.07817        1.0080 ; qtot   -2.158
        26           h25bf         1   UNL       h25        26     0.42879        1.0080 ; qtot   -1.730
        27           h26bf         1   UNL       h26        27     0.07395        1.0080 ; qtot   -1.656
        28           h27bf         1   UNL       h27        28     0.42496        1.0080 ; qtot   -1.231
        29           h28bf         1   UNL       h28        29     0.07367        1.0080 ; qtot   -1.157
        30           h29bf         1   UNL       h29        30     0.05099        1.0080 ; qtot   -1.106
        31           h30bf         1   UNL       h30        31     0.05099        1.0080 ; qtot   -1.055
        32           h31bf         1   UNL       h31        32     0.41123        1.0080 ; qtot   -0.644
        33           h32bf         1   UNL       h32        33     0.08832        1.0080 ; qtot   -0.555
        34           h33bf         1   UNL       h33        34     0.14071        1.0080 ; qtot   -0.415
        35           h34bf         1   UNL       h34        35     0.13401        1.0080 ; qtot   -0.281
        36           h35bf         1   UNL       h35        36     0.13401        1.0080 ; qtot   -0.147
        37           h36bf         1   UNL       h36        37     0.14071        1.0080 ; qtot   -0.006
        38           c37bf         1   UNL       c37        38    -0.05057       12.0110 ; qtot   -0.057
        39           h38bf         1   UNL       h38        39     0.04329        1.0080 ; qtot   -0.013
        40           h39bf         1   UNL       h39        40     0.04329        1.0080 ; qtot    0.030
        41           h40bf         1   UNL       h40        41     0.04329        1.0080 ; qtot    0.073
        42           c41bf         1   UNL       c41        42    -0.08373       12.0110 ; qtot   -0.010
        43           c42bf         1   UNL       c42        43    -0.12865       12.0110 ; qtot   -0.139
        44           c43bf         1   UNL       c43        44    -0.15324       12.0110 ; qtot   -0.292
        45           c44bf         1   UNL       c44        45    -0.10255       12.0110 ; qtot   -0.395
        46           s45bf         1   UNL       s45        46    -0.09210       32.0670 ; qtot   -0.487
        47           h46bf         1   UNL       h46        47     0.16065        1.0080 ; qtot   -0.326
        48           h47bf         1   UNL       h47        48     0.17086        1.0080 ; qtot   -0.155
        49           h48bf         1   UNL       h48        49     0.15543        1.0080 ; qtot    0.000

[ bonds ]
;       ai        aj funct               r               k
         1         2     1        0.138072   252217.643799    ;  uncertainty r = 0.000068, k = 7.310059
         1         4     1        0.138942   448107.370410    ;  uncertainty r = 0.000060, k = 11.754601
         1        42     1        0.145073   277262.780762    ;  uncertainty r = 0.000083, k = 7.300489
         2         3     1        0.130566   455524.930273    ;  uncertainty r = 0.000018, k = 7.735355
         3         5     1        0.135907   232536.065918    ;  uncertainty r = 0.000142, k = 14.909916
         4         5     1        0.136115   302547.277051    ;  uncertainty r = 0.000115, k = 9.737933
         4        23     1        0.108198   343711.514062    ;  uncertainty r = 0.000034, k = 3.715233
         5         6     1        0.145269   236536.683936    ;  uncertainty r = 0.000199, k = 7.896061
         6         7     1        0.152197   188213.884424    ;  uncertainty r = 0.000191, k = 8.218331
         6         9     1        0.152242   189493.357446    ;  uncertainty r = 0.000225, k = 7.200075
         6        24     1        0.109521   308585.986230    ;  uncertainty r = 0.000061, k = 4.629759
         7         8     1        0.141112   255571.457910    ;  uncertainty r = 0.000133, k = 10.775081
         7        15     1        0.151795   195953.824756    ;  uncertainty r = 0.000220, k = 7.518907
         7        25     1        0.109646   304732.155518    ;  uncertainty r = 0.000030, k = 1.257698
         8        26     1        0.097065   447735.907617    ;  uncertainty r = 0.000022, k = 2.843500
         9        10     1        0.141577   252957.147412    ;  uncertainty r = 0.000096, k = 9.080986
         9        11     1        0.151787   194051.514404    ;  uncertainty r = 0.000051, k = 5.272028
         9        27     1        0.109666   303884.910840    ;  uncertainty r = 0.000035, k = 2.180842
        10        28     1        0.097048   450902.764551    ;  uncertainty r = 0.000018, k = 3.349293
        11        12     1        0.151618   203501.917554    ;  uncertainty r = 0.000125, k = 6.264156
        11        14     1        0.142011   234157.493604    ;  uncertainty r = 0.000263, k = 8.190043
        11        29     1        0.109922   307243.934521    ;  uncertainty r = 0.000031, k = 1.845416
        12        13     1        0.142092   261467.312500    ;  uncertainty r = 0.000062, k = 4.434858
        12        30     1        0.109761   309531.982910    ;  uncertainty r = 0.000022, k = 2.053540
        12        31     1        0.109761   309531.982910    ;  uncertainty r = 0.000022, k = 2.053540
        13        32     1        0.097013   462818.941602    ;  uncertainty r = 0.000022, k = 2.302141
        14        15     1        0.140261   232205.130518    ;  uncertainty r = 0.000298, k = 17.002599
        15        16     1        0.184466   133169.526196    ;  uncertainty r = 0.000195, k = 13.146840
        15        33     1        0.109643   309186.925488    ;  uncertainty r = 0.000063, k = 4.096350
        16        17     1        0.179121   206179.189795    ;  uncertainty r = 0.000089, k = 7.782768
        17        18     1        0.140095   360007.458594    ;  uncertainty r = 0.000063, k = 2.797086
        17        22     1        0.140095   360007.458594    ;  uncertainty r = 0.000063, k = 2.797086
        18        19     1        0.139505   367196.614551    ;  uncertainty r = 0.000029, k = 1.961353
        18        34     1        0.108793   333998.704346    ;  uncertainty r = 0.000039, k = 2.030538
        19        20     1        0.140220   353169.182520    ;  uncertainty r = 0.000028, k = 2.666792
        19        35     1        0.108868   334513.609082    ;  uncertainty r = 0.000009, k = 0.953696
        20        21     1        0.140220   353169.182520    ;  uncertainty r = 0.000028, k = 2.666792
        20        38     1        0.151054   252476.717773    ;  uncertainty r = 0.000015, k = 5.525231
        21        22     1        0.139505   367196.614551    ;  uncertainty r = 0.000029, k = 1.961353
        21        36     1        0.108868   334513.609082    ;  uncertainty r = 0.000009, k = 0.953696
        22        37     1        0.108793   333998.704346    ;  uncertainty r = 0.000039, k = 2.030538
        38        39     1        0.109534   307895.054199    ;  uncertainty r = 0.000008, k = 1.140244
        38        40     1        0.109534   307895.054199    ;  uncertainty r = 0.000008, k = 1.140244
        38        41     1        0.109534   307895.054199    ;  uncertainty r = 0.000008, k = 1.140244
        42        43     1        0.137573   405590.790234    ;  uncertainty r = 0.000019, k = 0.881565
        42        46     1        0.174707   174416.043774    ;  uncertainty r = 0.000073, k = 8.310374
        43        44     1        0.142610   262543.829346    ;  uncertainty r = 0.000059, k = 5.922776
        43        47     1        0.108556   334294.526221    ;  uncertainty r = 0.000014, k = 0.754349
        44        45     1        0.137069   427002.277441    ;  uncertainty r = 0.000020, k = 1.900578
        44        49     1        0.108626   334129.837402    ;  uncertainty r = 0.000018, k = 1.701497
        45        46     1        0.173089   180309.523413    ;  uncertainty r = 0.000044, k = 7.734171
        45        48     1        0.108466   341719.185400    ;  uncertainty r = 0.000021, k = 1.589875

[ angles ]
;       ai        aj        ak funct           theta             cth
         1         2         3     1      109.424866      975.191533    ;  uncertainty theta = 0.002179, k = 0.111972
         1         4         5     1      105.248306      745.973568    ;  uncertainty theta = 0.003025, k = 0.189908
         1         4        23     1      130.288422      221.513068    ;  uncertainty theta = 0.005872, k = 0.139611
         1        42        43     1      126.164635      361.691082    ;  uncertainty theta = 0.004171, k = 0.157571
         1        42        46     1      117.626793      339.539555    ;  uncertainty theta = 0.003970, k = 0.197197
         2         1         4     1      109.059471      799.741441    ;  uncertainty theta = 0.003183, k = 0.144191
         2         1        42     1      120.301956      408.499518    ;  uncertainty theta = 0.004539, k = 0.113937
         2         3         5     1      108.555031     1197.140616    ;  uncertainty theta = 0.001647, k = 0.082349
         3         5         4     1      108.617050      944.332809    ;  uncertainty theta = 0.002967, k = 0.132822
         3         5         6     1      115.582352      437.378254    ;  uncertainty theta = 0.002608, k = 0.208447
         4         1        42     1      129.323761      345.106900    ;  uncertainty theta = 0.006024, k = 0.180613
         4         5         6     1      122.745445      358.871721    ;  uncertainty theta = 0.003640, k = 0.085743
         5         4        23     1      118.640480      275.255915    ;  uncertainty theta = 0.003130, k = 0.142590
         5         6         7     1      108.569412      610.075286    ;  uncertainty theta = 0.006824, k = 0.149226
         5         6         9     1      108.820290      607.522214    ;  uncertainty theta = 0.005668, k = 0.120563
         5         6        24     1      105.047951      460.768522    ;  uncertainty theta = 0.003193, k = 0.156009
         6         7         8     1      109.006836      665.478684    ;  uncertainty theta = 0.006799, k = 0.200813
         6         7        15     1      108.963562      543.106898    ;  uncertainty theta = 0.001960, k = 0.150770
         6         7        25     1      107.739502      378.540977    ;  uncertainty theta = 0.003350, k = 0.116138
         6         9        10     1      109.305786      670.963991    ;  uncertainty theta = 0.003376, k = 0.184685
         6         9        11     1      109.085403      550.833981    ;  uncertainty theta = 0.003109, k = 0.083650
         6         9        27     1      107.334274      380.446748    ;  uncertainty theta = 0.003537, k = 0.100456
         7         6         9     1      109.017845      555.549983    ;  uncertainty theta = 0.004346, k = 0.211843
         7         6        24     1      107.680824      392.764190    ;  uncertainty theta = 0.002496, k = 0.068774
         7         8        26     1      107.738342      464.297017    ;  uncertainty theta = 0.001111, k = 0.064721
         7        15        14     1      109.329178      613.859822    ;  uncertainty theta = 0.003845, k = 0.207721
         7        15        16     1      109.276794      472.352762    ;  uncertainty theta = 0.003541, k = 0.185259
         7        15        33     1      109.789139      376.594411    ;  uncertainty theta = 0.003445, k = 0.064049
         8         7        15     1      108.751869      695.476934    ;  uncertainty theta = 0.004518, k = 0.195360
         8         7        25     1      108.464233      469.798604    ;  uncertainty theta = 0.000985, k = 0.059230
         9         6        24     1      107.892044      392.713179    ;  uncertainty theta = 0.001711, k = 0.068439
         9        10        28     1      107.735207      463.269914    ;  uncertainty theta = 0.000463, k = 0.071624
         9        11        12     1      110.619675      536.827451    ;  uncertainty theta = 0.003047, k = 0.044496
         9        11        14     1      108.464928      617.827076    ;  uncertainty theta = 0.003259, k = 0.135769
         9        11        29     1      107.915344      383.395997    ;  uncertainty theta = 0.002933, k = 0.008098
        10         9        11     1      108.664330      684.054888    ;  uncertainty theta = 0.003176, k = 0.109786
        10         9        27     1      108.417618      469.024606    ;  uncertainty theta = 0.000812, k = 0.043732
        11         9        27     1      108.204239      382.143370    ;  uncertainty theta = 0.002080, k = 0.061683
        11        12        13     1      110.168129      716.776224    ;  uncertainty theta = 0.001875, k = 0.128387
        11        12        30     1      107.923988      394.631623    ;  uncertainty theta = 0.001881, k = 0.054203
        11        12        31     1      107.923988      394.631623    ;  uncertainty theta = 0.001881, k = 0.054203
        11        14        15     1      109.179161      507.510722    ;  uncertainty theta = 0.006739, k = 0.158124
        12        11        14     1      105.910133      561.353674    ;  uncertainty theta = 0.003507, k = 0.091813
        12        11        29     1      108.719131      396.919716    ;  uncertainty theta = 0.003871, k = 0.046746
        12        13        32     1      107.223572      450.200245    ;  uncertainty theta = 0.001789, k = 0.036471
        13        12        30     1      108.661911      477.517993    ;  uncertainty theta = 0.000920, k = 0.032620
        13        12        31     1      108.661911      477.517993    ;  uncertainty theta = 0.000920, k = 0.032620
        14        11        29     1      107.155716      448.878476    ;  uncertainty theta = 0.002856, k = 0.118174
        14        15        16     1      108.488548      600.802060    ;  uncertainty theta = 0.005721, k = 0.267014
        14        15        33     1      107.581078      454.886975    ;  uncertainty theta = 0.003084, k = 0.162160
        15         7        25     1      108.036217      382.649675    ;  uncertainty theta = 0.001208, k = 0.065214
        15        16        17     1       98.071030      620.356016    ;  uncertainty theta = 0.003494, k = 0.101606
        16        15        33     1      106.804665      347.470743    ;  uncertainty theta = 0.004979, k = 0.169894
        16        17        18     1      122.596115      363.243706    ;  uncertainty theta = 0.004725, k = 0.050914
        16        17        22     1      122.596115      363.243706    ;  uncertainty theta = 0.004725, k = 0.050914
        17        18        19     1      119.504868      523.522298    ;  uncertainty theta = 0.001632, k = 0.071975
        17        18        34     1      120.291687      280.122011    ;  uncertainty theta = 0.002517, k = 0.047831
        17        22        21     1      119.504868      523.522298    ;  uncertainty theta = 0.001632, k = 0.071975
        17        22        37     1      120.291687      280.122011    ;  uncertainty theta = 0.002517, k = 0.047831
        18        17        22     1      119.364830      413.056966    ;  uncertainty theta = 0.002836, k = 0.076384
        18        19        20     1      121.433670      521.891019    ;  uncertainty theta = 0.001255, k = 0.060016
        18        19        35     1      119.655823      287.521580    ;  uncertainty theta = 0.001168, k = 0.024751
        19        18        34     1      120.399857      289.970493    ;  uncertainty theta = 0.001680, k = 0.045815
        19        20        21     1      118.352539      470.446065    ;  uncertainty theta = 0.001842, k = 0.119193
        19        20        38     1      120.748802      431.769794    ;  uncertainty theta = 0.001285, k = 0.023615
        20        19        35     1      119.443199      279.848828    ;  uncertainty theta = 0.001504, k = 0.086733
        20        21        22     1      121.433678      521.891019    ;  uncertainty theta = 0.001255, k = 0.060016
        20        21        36     1      119.443199      279.848828    ;  uncertainty theta = 0.001504, k = 0.086733
        20        38        39     1      109.896507      397.950585    ;  uncertainty theta = 0.001093, k = 0.021393
        20        38        40     1      109.896507      397.950585    ;  uncertainty theta = 0.001093, k = 0.021393
        20        38        41     1      109.896507      397.950585    ;  uncertainty theta = 0.001093, k = 0.021393
        21        20        38     1      120.748802      431.769794    ;  uncertainty theta = 0.001285, k = 0.023615
        21        22        37     1      120.399857      289.970493    ;  uncertainty theta = 0.001680, k = 0.045815
        22        21        36     1      119.655823      287.521580    ;  uncertainty theta = 0.001168, k = 0.024751
        30        12        31     1      107.726463      326.410991    ;  uncertainty theta = 0.001745, k = 0.070753
        39        38        40     1      106.736984      316.781394    ;  uncertainty theta = 0.000965, k = 0.019303
        39        38        41     1      106.736984      316.781394    ;  uncertainty theta = 0.000965, k = 0.019303
        40        38        41     1      106.736984      316.781394    ;  uncertainty theta = 0.000965, k = 0.019303
        42        43        44     1      113.051636      658.449339    ;  uncertainty theta = 0.003262, k = 0.071695
        42        43        47     1      120.499352      248.611596    ;  uncertainty theta = 0.004037, k = 0.109889
        42        46        45     1       91.663940     1218.392087    ;  uncertainty theta = 0.002159, k = 0.110105
        43        42        46     1      112.365135      459.219537    ;  uncertainty theta = 0.002928, k = 0.183682
        43        44        45     1      112.777283      631.327460    ;  uncertainty theta = 0.004170, k = 0.075327
        43        44        49     1      122.133179      254.381579    ;  uncertainty theta = 0.002568, k = 0.033119
        44        43        47     1      122.282310      255.270653    ;  uncertainty theta = 0.002227, k = 0.089228
        44        45        46     1      111.413658      530.844393    ;  uncertainty theta = 0.004050, k = 0.116034
        44        45        48     1      125.894875      250.671292    ;  uncertainty theta = 0.001318, k = 0.052177
        45        44        49     1      121.752953      257.068466    ;  uncertainty theta = 0.003045, k = 0.083720
        46        45        48     1      116.505615      232.086613    ;  uncertainty theta = 0.002138, k = 0.081243

[ dihedrals ] ; propers for gromacs 4.5 or higher, use funct 9
;       ai        aj        ak        al funct           phase               k        pn
         1         2         3         5     9        0.000000       -1.095686         1    ;  uncertainty k = 1.826511
         1         2         3         5     9      180.000000       31.653081         2    ;  uncertainty k = 0.724388
         1         2         3         5     9        0.000000       -7.677328         3    ;  uncertainty k = 3.636995
         1         2         3         5     9      180.000000        2.359834         4    ;  uncertainty k = 0.517552
         1         4         5         3     9        0.000000       -0.255829         1    ;  uncertainty k = 0.623629
         1         4         5         3     9      180.000000       16.051842         2    ;  uncertainty k = 0.706794
         1         4         5         3     9        0.000000       -9.793420         3    ;  uncertainty k = 0.518328
         1         4         5         3     9      180.000000        1.403745         4    ;  uncertainty k = 0.471999
         1         4         5         6     9        0.000000        1.396334         1    ;  uncertainty k = 0.423809
         1         4         5         6     9      180.000000        9.763457         2    ;  uncertainty k = 0.595613
         1         4         5         6     9        0.000000        2.070331         3    ;  uncertainty k = 0.677152
         1         4         5         6     9      180.000000       -0.172498         4    ;  uncertainty k = 0.192948
         1        42        43        44     9        0.000000        0.486305         1    ;  uncertainty k = 0.607721
         1        42        43        44     9      180.000000       16.304194         2    ;  uncertainty k = 0.373049
         1        42        43        44     9        0.000000        1.434236         3    ;  uncertainty k = 0.380900
         1        42        43        44     9      180.000000        0.823838         4    ;  uncertainty k = 0.304744
         1        42        43        47     9        0.000000       -0.237021         1    ;  uncertainty k = 0.656958
         1        42        43        47     9      180.000000       10.150786         2    ;  uncertainty k = 0.588003
         1        42        43        47     9        0.000000        1.469444         3    ;  uncertainty k = 0.142687
         1        42        43        47     9      180.000000        0.763067         4    ;  uncertainty k = 0.451539
         1        42        46        45     9        0.000000        0.552745         1    ;  uncertainty k = 0.753052
         1        42        46        45     9      180.000000       11.445260         2    ;  uncertainty k = 0.941271
         1        42        46        45     9        0.000000        0.667835         3    ;  uncertainty k = 1.120302
         1        42        46        45     9      180.000000        0.673007         4    ;  uncertainty k = 0.242387
         2         1         4         5     9        0.000000       -0.228574         1    ;  uncertainty k = 0.617665
         2         1         4         5     9      180.000000       20.038182         2    ;  uncertainty k = 0.400969
         2         1         4         5     9        0.000000      -11.479794         3    ;  uncertainty k = 0.423495
         2         1         4         5     9      180.000000        1.753255         4    ;  uncertainty k = 0.709249
         2         1         4        23     9        0.000000        0.324767         1    ;  uncertainty k = 0.721122
         2         1         4        23     9      180.000000       12.026746         2    ;  uncertainty k = 0.458895
         2         1         4        23     9        0.000000        1.597302         3    ;  uncertainty k = 0.436822
         2         1         4        23     9      180.000000        0.614323         4    ;  uncertainty k = 0.412205
         2         1        42        43     9        0.000000        1.580824         1    ;  uncertainty k = 1.353299
         2         1        42        43     9      180.000000        2.854130         2    ;  uncertainty k = 0.379535
         2         1        42        43     9        0.000000        1.000157         3    ;  uncertainty k = 0.366738
         2         1        42        43     9      180.000000        0.128467         4    ;  uncertainty k = 0.211698
         2         1        42        46     9        0.000000       -3.153687         1    ;  uncertainty k = 0.855556
         2         1        42        46     9      180.000000        3.402499         2    ;  uncertainty k = 0.328146
         2         1        42        46     9        0.000000        0.451024         3    ;  uncertainty k = 0.235111
         2         1        42        46     9      180.000000       -0.201448         4    ;  uncertainty k = 0.086598
         2         3         5         4     9        0.000000        0.036836         1    ;  uncertainty k = 0.565901
         2         3         5         4     9      180.000000       21.843027         2    ;  uncertainty k = 0.305282
         2         3         5         4     9        0.000000       -8.826736         3    ;  uncertainty k = 1.588402
         2         3         5         4     9      180.000000        1.698926         4    ;  uncertainty k = 0.464081
         2         3         5         6     9        0.000000        0.066879         1    ;  uncertainty k = 1.845473
         2         3         5         6     9      180.000000       20.183472         2    ;  uncertainty k = 0.196014
         2         3         5         6     9        0.000000        2.002004         3    ;  uncertainty k = 0.854740
         2         3         5         6     9      180.000000        0.011961         4    ;  uncertainty k = 0.150951
         3         2         1         4     9        0.000000       -0.363777         1    ;  uncertainty k = 0.794207
         3         2         1         4     9      180.000000       17.385862         2    ;  uncertainty k = 0.735000
         3         2         1         4     9        0.000000       -6.424138         3    ;  uncertainty k = 0.597828
         3         2         1         4     9      180.000000        2.184318         4    ;  uncertainty k = 0.357156
         3         2         1        42     9        0.000000        0.234520         1    ;  uncertainty k = 0.818939
         3         2         1        42     9      180.000000       17.842280         2    ;  uncertainty k = 0.136465
         3         2         1        42     9        0.000000        1.847889         3    ;  uncertainty k = 0.328601
         3         2         1        42     9      180.000000        0.841165         4    ;  uncertainty k = 0.493196
         3         5         4        23     9        0.000000        1.357171         1    ;  uncertainty k = 0.757072
         3         5         4        23     9      180.000000       12.241916         2    ;  uncertainty k = 0.797856
         3         5         4        23     9        0.000000        1.510343         3    ;  uncertainty k = 0.313093
         3         5         4        23     9      180.000000        0.108728         4    ;  uncertainty k = 0.245893
         3         5         6         7     9        0.000000       -0.016269         1    ;  uncertainty k = 0.744866
         3         5         6         7     9      180.000000        0.102408         2    ;  uncertainty k = 0.275181
         3         5         6         7     9        0.000000        0.307724         3    ;  uncertainty k = 0.124620
         3         5         6         7     9      180.000000        0.102069         4    ;  uncertainty k = 0.077024
         3         5         6         9     9        0.000000       -0.112613         1    ;  uncertainty k = 0.832366
         3         5         6         9     9      180.000000        0.104107         2    ;  uncertainty k = 0.241031
         3         5         6         9     9        0.000000        0.302440         3    ;  uncertainty k = 0.150118
         3         5         6         9     9      180.000000        0.112176         4    ;  uncertainty k = 0.071753
         3         5         6        24     9        0.000000        0.738515         1    ;  uncertainty k = 0.967543
         3         5         6        24     9      180.000000        0.365626         2    ;  uncertainty k = 0.296042
         3         5         6        24     9        0.000000        0.520292         3    ;  uncertainty k = 0.245499
         3         5         6        24     9      180.000000        0.244858         4    ;  uncertainty k = 0.113253
         4         1        42        43     9        0.000000        0.594715         1    ;  uncertainty k = 0.481078
         4         1        42        43     9      180.000000        1.915989         2    ;  uncertainty k = 0.389418
         4         1        42        43     9        0.000000        1.035663         3    ;  uncertainty k = 0.279932
         4         1        42        43     9      180.000000        0.096888         4    ;  uncertainty k = 0.091157
         4         1        42        46     9        0.000000        2.221939         1    ;  uncertainty k = 0.339584
         4         1        42        46     9      180.000000        2.082416         2    ;  uncertainty k = 0.417862
         4         1        42        46     9        0.000000        0.694822         3    ;  uncertainty k = 0.284987
         4         1        42        46     9      180.000000       -0.131367         4    ;  uncertainty k = 0.115393
         4         5         6         7     9        0.000000       -0.167134         1    ;  uncertainty k = 0.787578
         4         5         6         7     9      180.000000        0.232778         2    ;  uncertainty k = 0.318358
         4         5         6         7     9        0.000000        0.641271         3    ;  uncertainty k = 0.207333
         4         5         6         7     9      180.000000        0.150654         4    ;  uncertainty k = 0.161635
         4         5         6         9     9        0.000000       -0.149379         1    ;  uncertainty k = 0.762485
         4         5         6         9     9      180.000000        0.241698         2    ;  uncertainty k = 0.270920
         4         5         6         9     9        0.000000        0.643123         3    ;  uncertainty k = 0.197180
         4         5         6         9     9      180.000000        0.152383         4    ;  uncertainty k = 0.159068
         4         5         6        24     9        0.000000       -1.529201         1    ;  uncertainty k = 0.600975
         4         5         6        24     9      180.000000        0.323346         2    ;  uncertainty k = 0.412189
         4         5         6        24     9        0.000000        0.745240         3    ;  uncertainty k = 0.281221
         4         5         6        24     9      180.000000        0.198342         4    ;  uncertainty k = 0.035589
         5         4         1        42     9        0.000000        0.939637         1    ;  uncertainty k = 0.954055
         5         4         1        42     9      180.000000       13.439827         2    ;  uncertainty k = 0.282418
         5         4         1        42     9        0.000000        1.537656         3    ;  uncertainty k = 0.542098
         5         4         1        42     9      180.000000        0.627336         4    ;  uncertainty k = 0.239132
         5         6         7         8     9        0.000000       -0.158987         1    ;  uncertainty k = 0.802665
         5         6         7         8     9      180.000000       -1.691010         2    ;  uncertainty k = 0.986220
         5         6         7         8     9        0.000000        1.224784         3    ;  uncertainty k = 0.352123
         5         6         7         8     9      180.000000        0.165650         4    ;  uncertainty k = 0.178548
         5         6         7        15     9        0.000000       -1.982507         1    ;  uncertainty k = 1.578017
         5         6         7        15     9      180.000000        0.063484         2    ;  uncertainty k = 0.829234
         5         6         7        15     9        0.000000        0.336756         3    ;  uncertainty k = 0.189273
         5         6         7        15     9      180.000000        0.046649         4    ;  uncertainty k = 0.106430
         5         6         7        25     9        0.000000        2.321224         1    ;  uncertainty k = 0.945442
         5         6         7        25     9      180.000000       -1.242356         2    ;  uncertainty k = 0.650576
         5         6         7        25     9        0.000000        0.376255         3    ;  uncertainty k = 0.193877
         5         6         7        25     9      180.000000       -0.064911         4    ;  uncertainty k = 0.196818
         5         6         9        10     9        0.000000       -0.364522         1    ;  uncertainty k = 1.039717
         5         6         9        10     9      180.000000       -1.777835         2    ;  uncertainty k = 0.968650
         5         6         9        10     9        0.000000        1.274313         3    ;  uncertainty k = 0.362836
         5         6         9        10     9      180.000000        0.169762         4    ;  uncertainty k = 0.185360
         5         6         9        11     9        0.000000       -2.514497         1    ;  uncertainty k = 1.252610
         5         6         9        11     9      180.000000        0.355258         2    ;  uncertainty k = 0.799346
         5         6         9        11     9        0.000000        0.403736         3    ;  uncertainty k = 0.173059
         5         6         9        11     9      180.000000        0.009419         4    ;  uncertainty k = 0.154463
         5         6         9        27     9        0.000000        2.387863         1    ;  uncertainty k = 0.884387
         5         6         9        27     9      180.000000       -1.311403         2    ;  uncertainty k = 0.673464
         5         6         9        27     9        0.000000        0.352414         3    ;  uncertainty k = 0.204740
         5         6         9        27     9      180.000000       -0.061491         4    ;  uncertainty k = 0.194534
         6         5         4        23     9        0.000000       -0.212128         1    ;  uncertainty k = 0.486638
         6         5         4        23     9      180.000000        3.504426         2    ;  uncertainty k = 0.486497
         6         5         4        23     9        0.000000        1.141266         3    ;  uncertainty k = 0.413288
         6         5         4        23     9      180.000000        0.050580         4    ;  uncertainty k = 0.193680
         6         7         8        26     9        0.000000       19.039124         1    ;  uncertainty k = 0.345153
         6         7         8        26     9      180.000000       -4.420828         2    ;  uncertainty k = 0.689830
         6         7         8        26     9        0.000000        1.320157         3    ;  uncertainty k = 0.147286
         6         7         8        26     9      180.000000        0.341085         4    ;  uncertainty k = 0.134436
         6         7        15        14     9        0.000000        2.474201         1    ;  uncertainty k = 1.474957
         6         7        15        14     9      180.000000       -0.994678         2    ;  uncertainty k = 0.524371
         6         7        15        14     9        0.000000        0.317589         3    ;  uncertainty k = 0.155922
         6         7        15        14     9      180.000000       -0.304460         4    ;  uncertainty k = 0.208124
         6         7        15        16     9        0.000000        4.941749         1    ;  uncertainty k = 2.502557
         6         7        15        16     9      180.000000       -2.238276         2    ;  uncertainty k = 1.272838
         6         7        15        16     9        0.000000       -0.074658         3    ;  uncertainty k = 0.452202
         6         7        15        16     9      180.000000        0.245986         4    ;  uncertainty k = 0.382553
         6         7        15        33     9        0.000000        1.846484         1    ;  uncertainty k = 1.045892
         6         7        15        33     9      180.000000       -1.924081         2    ;  uncertainty k = 0.721830
         6         7        15        33     9        0.000000       -0.575800         3    ;  uncertainty k = 0.257923
         6         7        15        33     9      180.000000       -0.003854         4    ;  uncertainty k = 0.220883
         6         9        10        28     9        0.000000       18.952765         1    ;  uncertainty k = 0.311547
         6         9        10        28     9      180.000000       -4.586190         2    ;  uncertainty k = 0.579882
         6         9        10        28     9        0.000000        1.334230         3    ;  uncertainty k = 0.130015
         6         9        10        28     9      180.000000        0.345176         4    ;  uncertainty k = 0.144687
         6         9        11        12     9        0.000000       -1.308713         1    ;  uncertainty k = 0.869702
         6         9        11        12     9      180.000000        0.094262         2    ;  uncertainty k = 0.478169
         6         9        11        12     9        0.000000       -0.367831         3    ;  uncertainty k = 0.241924
         6         9        11        12     9      180.000000       -0.399652         4    ;  uncertainty k = 0.145738
         6         9        11        14     9        0.000000        3.551725         1    ;  uncertainty k = 0.894045
         6         9        11        14     9      180.000000       -2.208435         2    ;  uncertainty k = 0.359172
         6         9        11        14     9        0.000000        0.326059         3    ;  uncertainty k = 0.294258
         6         9        11        14     9      180.000000       -0.285779         4    ;  uncertainty k = 0.284707
         6         9        11        29     9        0.000000        2.035658         1    ;  uncertainty k = 1.132995
         6         9        11        29     9      180.000000       -2.349109         2    ;  uncertainty k = 0.563071
         6         9        11        29     9        0.000000       -0.762911         3    ;  uncertainty k = 0.211670
         6         9        11        29     9      180.000000        0.143404         4    ;  uncertainty k = 0.155147
         7         6         9        10     9        0.000000       -3.450932         1    ;  uncertainty k = 1.264260
         7         6         9        10     9      180.000000        0.306731         2    ;  uncertainty k = 0.567788
         7         6         9        10     9        0.000000        0.393950         3    ;  uncertainty k = 0.364522
         7         6         9        10     9      180.000000        0.151790         4    ;  uncertainty k = 0.175021
         7         6         9        11     9        0.000000        0.873750         1    ;  uncertainty k = 2.282474
         7         6         9        11     9      180.000000       -0.221239         2    ;  uncertainty k = 1.293849
         7         6         9        11     9        0.000000       -0.344129         3    ;  uncertainty k = 0.575667
         7         6         9        11     9      180.000000       -1.183141         4    ;  uncertainty k = 0.285762
         7         6         9        27     9        0.000000       -0.712144         1    ;  uncertainty k = 0.769906
         7         6         9        27     9      180.000000       -0.385373         2    ;  uncertainty k = 0.311284
         7         6         9        27     9        0.000000       -0.334481         3    ;  uncertainty k = 0.125078
         7         6         9        27     9      180.000000       -0.139996         4    ;  uncertainty k = 0.056740
         7        15        14        11     9        0.000000        0.917470         1    ;  uncertainty k = 0.954609
         7        15        14        11     9      180.000000       -1.288452         2    ;  uncertainty k = 0.653278
         7        15        14        11     9        0.000000       -0.220560         3    ;  uncertainty k = 0.269291
         7        15        14        11     9      180.000000        0.068427         4    ;  uncertainty k = 0.310172
         7        15        16        17     9        0.000000        2.007748         1    ;  uncertainty k = 1.077285
         7        15        16        17     9      180.000000       -1.565577         2    ;  uncertainty k = 0.676593
         7        15        16        17     9        0.000000        0.919131         3    ;  uncertainty k = 0.274750
         7        15        16        17     9      180.000000        0.227517         4    ;  uncertainty k = 0.084913
         8         7         6         9     9        0.000000       -3.581542         1    ;  uncertainty k = 1.031963
         8         7         6         9     9      180.000000        0.411053         2    ;  uncertainty k = 0.566427
         8         7         6         9     9        0.000000        0.367590         3    ;  uncertainty k = 0.368667
         8         7         6         9     9      180.000000        0.156016         4    ;  uncertainty k = 0.234642
         8         7         6        24     9        0.000000       -0.277363         1    ;  uncertainty k = 0.256261
         8         7         6        24     9      180.000000       -0.077869         2    ;  uncertainty k = 0.366585
         8         7         6        24     9        0.000000        0.607276         3    ;  uncertainty k = 0.240323
         8         7         6        24     9      180.000000       -0.047719         4    ;  uncertainty k = 0.122992
         8         7        15        14     9        0.000000       -2.698621         1    ;  uncertainty k = 1.293589
         8         7        15        14     9      180.000000       -0.125900         2    ;  uncertainty k = 1.044604
         8         7        15        14     9        0.000000        1.801831         3    ;  uncertainty k = 0.166031
         8         7        15        14     9      180.000000       -0.136263         4    ;  uncertainty k = 0.170447
         8         7        15        16     9        0.000000        5.310159         1    ;  uncertainty k = 0.577732
         8         7        15        16     9      180.000000       -1.858820         2    ;  uncertainty k = 0.847232
         8         7        15        16     9        0.000000        1.450881         3    ;  uncertainty k = 0.493019
         8         7        15        16     9      180.000000        0.366462         4    ;  uncertainty k = 0.119783
         8         7        15        33     9        0.000000       -0.793494         1    ;  uncertainty k = 0.377453
         8         7        15        33     9      180.000000        0.444309         2    ;  uncertainty k = 0.325823
         8         7        15        33     9        0.000000        0.779019         3    ;  uncertainty k = 0.275482
         8         7        15        33     9      180.000000       -0.005974         4    ;  uncertainty k = 0.167622
         9         6         7        15     9        0.000000        1.882185         1    ;  uncertainty k = 3.196350
         9         6         7        15     9      180.000000       -0.080201         2    ;  uncertainty k = 1.464730
         9         6         7        15     9        0.000000       -0.302109         3    ;  uncertainty k = 0.422345
         9         6         7        15     9      180.000000       -1.166079         4    ;  uncertainty k = 0.225549
         9         6         7        25     9        0.000000       -0.660046         1    ;  uncertainty k = 0.822850
         9         6         7        25     9      180.000000       -0.335425         2    ;  uncertainty k = 0.296526
         9         6         7        25     9        0.000000       -0.318954         3    ;  uncertainty k = 0.088200
         9         6         7        25     9      180.000000       -0.125094         4    ;  uncertainty k = 0.064770
         9        11        12        13     9        0.000000       -3.500645         1    ;  uncertainty k = 0.864914
         9        11        12        13     9      180.000000       -0.040227         2    ;  uncertainty k = 0.302685
         9        11        12        13     9        0.000000        1.496269         3    ;  uncertainty k = 0.173304
         9        11        12        13     9      180.000000       -0.330862         4    ;  uncertainty k = 0.160910
         9        11        12        30     9        0.000000       -0.389752         1    ;  uncertainty k = 0.566702
         9        11        12        30     9      180.000000       -0.633416         2    ;  uncertainty k = 0.206369
         9        11        12        30     9        0.000000        0.100397         3    ;  uncertainty k = 0.128757
         9        11        12        30     9      180.000000       -0.241270         4    ;  uncertainty k = 0.092306
         9        11        12        31     9        0.000000       -0.389752         1    ;  uncertainty k = 0.566702
         9        11        12        31     9      180.000000       -0.633416         2    ;  uncertainty k = 0.206369
         9        11        12        31     9        0.000000        0.100397         3    ;  uncertainty k = 0.128757
         9        11        12        31     9      180.000000       -0.241270         4    ;  uncertainty k = 0.092306
         9        11        14        15     9        0.000000        1.710819         1    ;  uncertainty k = 1.967719
         9        11        14        15     9      180.000000       -2.820808         2    ;  uncertainty k = 0.590799
         9        11        14        15     9        0.000000       -0.265511         3    ;  uncertainty k = 0.316061
         9        11        14        15     9      180.000000        0.030797         4    ;  uncertainty k = 0.180924
        10         9         6        24     9        0.000000       -0.321276         1    ;  uncertainty k = 0.176896
        10         9         6        24     9      180.000000       -0.102918         2    ;  uncertainty k = 0.359202
        10         9         6        24     9        0.000000        0.594499         3    ;  uncertainty k = 0.215544
        10         9         6        24     9      180.000000       -0.061229         4    ;  uncertainty k = 0.114446
        10         9        11        12     9        0.000000       -2.146249         1    ;  uncertainty k = 0.952515
        10         9        11        12     9      180.000000        0.106301         2    ;  uncertainty k = 0.229016
        10         9        11        12     9        0.000000        0.807370         3    ;  uncertainty k = 0.172859
        10         9        11        12     9      180.000000       -0.255912         4    ;  uncertainty k = 0.234311
        10         9        11        14     9        0.000000       -3.683487         1    ;  uncertainty k = 1.032183
        10         9        11        14     9      180.000000       -0.908155         2    ;  uncertainty k = 0.571417
        10         9        11        14     9        0.000000        2.093692         3    ;  uncertainty k = 0.314978
        10         9        11        14     9      180.000000       -0.114035         4    ;  uncertainty k = 0.099391
        10         9        11        29     9        0.000000       -0.332347         1    ;  uncertainty k = 0.439850
        10         9        11        29     9      180.000000       -0.000255         2    ;  uncertainty k = 0.271243
        10         9        11        29     9        0.000000        0.580127         3    ;  uncertainty k = 0.193597
        10         9        11        29     9      180.000000       -0.095134         4    ;  uncertainty k = 0.183032
        11         9         6        24     9        0.000000       -1.472333         1    ;  uncertainty k = 0.757945
        11         9         6        24     9      180.000000       -0.387291         2    ;  uncertainty k = 0.427911
        11         9         6        24     9        0.000000       -0.386086         3    ;  uncertainty k = 0.127943
        11         9         6        24     9      180.000000       -0.123413         4    ;  uncertainty k = 0.108974
        11         9        10        28     9        0.000000       18.553540         1    ;  uncertainty k = 0.350139
        11         9        10        28     9      180.000000       -4.302102         2    ;  uncertainty k = 0.320512
        11         9        10        28     9        0.000000        1.261962         3    ;  uncertainty k = 0.099603
        11         9        10        28     9      180.000000        0.432553         4    ;  uncertainty k = 0.084339
        11        12        13        32     9        0.000000       12.803371         1    ;  uncertainty k = 0.176801
        11        12        13        32     9      180.000000       -4.408763         2    ;  uncertainty k = 0.479248
        11        12        13        32     9        0.000000        1.225569         3    ;  uncertainty k = 0.219872
        11        12        13        32     9      180.000000        0.130954         4    ;  uncertainty k = 0.066305
        11        14        15        16     9        0.000000       -2.926971         1    ;  uncertainty k = 3.130055
        11        14        15        16     9      180.000000       -2.564676         2    ;  uncertainty k = 1.420082
        11        14        15        16     9        0.000000        0.716063         3    ;  uncertainty k = 0.197310
        11        14        15        16     9      180.000000       -0.095130         4    ;  uncertainty k = 0.349354
        11        14        15        33     9        0.000000       -1.916764         1    ;  uncertainty k = 0.747113
        11        14        15        33     9      180.000000        0.286798         2    ;  uncertainty k = 0.756983
        11        14        15        33     9        0.000000        0.238864         3    ;  uncertainty k = 0.128323
        11        14        15        33     9      180.000000       -0.367195         4    ;  uncertainty k = 0.168117
        12        11         9        27     9        0.000000       -1.151783         1    ;  uncertainty k = 0.623435
        12        11         9        27     9      180.000000        0.138239         2    ;  uncertainty k = 0.201798
        12        11         9        27     9        0.000000       -0.215346         3    ;  uncertainty k = 0.154972
        12        11         9        27     9      180.000000       -0.318334         4    ;  uncertainty k = 0.121552
        12        11        14        15     9        0.000000       -4.857638         1    ;  uncertainty k = 1.137696
        12        11        14        15     9      180.000000        0.917053         2    ;  uncertainty k = 0.617072
        12        11        14        15     9        0.000000        0.320186         3    ;  uncertainty k = 0.288726
        12        11        14        15     9      180.000000       -0.125902         4    ;  uncertainty k = 0.250358
        13        12        11        14     9        0.000000       -1.195280         1    ;  uncertainty k = 0.547640
        13        12        11        14     9      180.000000       -3.298099         2    ;  uncertainty k = 0.199322
        13        12        11        14     9        0.000000        2.717044         3    ;  uncertainty k = 0.305228
        13        12        11        14     9      180.000000       -0.208307         4    ;  uncertainty k = 0.128814
        13        12        11        29     9        0.000000       -2.028010         1    ;  uncertainty k = 0.722924
        13        12        11        29     9      180.000000        0.685399         2    ;  uncertainty k = 0.313942
        13        12        11        29     9        0.000000        1.166981         3    ;  uncertainty k = 0.311765
        13        12        11        29     9      180.000000       -0.195732         4    ;  uncertainty k = 0.045240
        14        11         9        27     9        0.000000       -0.095707         1    ;  uncertainty k = 0.475472
        14        11         9        27     9      180.000000       -0.600072         2    ;  uncertainty k = 0.320846
        14        11         9        27     9        0.000000        0.248942         3    ;  uncertainty k = 0.333119
        14        11         9        27     9      180.000000        0.105109         4    ;  uncertainty k = 0.089467
        14        11        12        30     9        0.000000        0.526900         1    ;  uncertainty k = 0.329165
        14        11        12        30     9      180.000000       -1.466090         2    ;  uncertainty k = 0.305903
        14        11        12        30     9        0.000000        0.270792         3    ;  uncertainty k = 0.233657
        14        11        12        30     9      180.000000       -0.091616         4    ;  uncertainty k = 0.101291
        14        11        12        31     9        0.000000        0.526900         1    ;  uncertainty k = 0.329165
        14        11        12        31     9      180.000000       -1.466090         2    ;  uncertainty k = 0.305903
        14        11        12        31     9        0.000000        0.270792         3    ;  uncertainty k = 0.233657
        14        11        12        31     9      180.000000       -0.091616         4    ;  uncertainty k = 0.101291
        14        15         7        25     9        0.000000       -0.162108         1    ;  uncertainty k = 0.690391
        14        15         7        25     9      180.000000       -0.679322         2    ;  uncertainty k = 0.276900
        14        15         7        25     9        0.000000        0.226951         3    ;  uncertainty k = 0.338395
        14        15         7        25     9      180.000000        0.125752         4    ;  uncertainty k = 0.152593
        14        15        16        17     9        0.000000        3.183562         1    ;  uncertainty k = 0.884859
        14        15        16        17     9      180.000000       -5.436577         2    ;  uncertainty k = 0.699848
        14        15        16        17     9        0.000000        1.259612         3    ;  uncertainty k = 0.434034
        14        15        16        17     9      180.000000        0.368477         4    ;  uncertainty k = 0.291496
        15         7         6        24     9        0.000000       -1.226810         1    ;  uncertainty k = 0.720372
        15         7         6        24     9      180.000000       -0.616695         2    ;  uncertainty k = 0.393537
        15         7         6        24     9        0.000000       -0.401072         3    ;  uncertainty k = 0.103608
        15         7         6        24     9      180.000000       -0.116758         4    ;  uncertainty k = 0.090911
        15         7         8        26     9        0.000000       18.425671         1    ;  uncertainty k = 0.339412
        15         7         8        26     9      180.000000       -4.642088         2    ;  uncertainty k = 0.438829
        15         7         8        26     9        0.000000        1.143722         3    ;  uncertainty k = 0.149175
        15         7         8        26     9      180.000000        0.382008         4    ;  uncertainty k = 0.101401
        15        14        11        29     9        0.000000       -2.121900         1    ;  uncertainty k = 0.521152
        15        14        11        29     9      180.000000       -1.268057         2    ;  uncertainty k = 0.577886
        15        14        11        29     9        0.000000        0.231856         3    ;  uncertainty k = 0.127960
        15        14        11        29     9      180.000000       -0.237800         4    ;  uncertainty k = 0.180440
        15        16        17        18     9        0.000000        3.177932         1    ;  uncertainty k = 2.151279
        15        16        17        18     9      180.000000        2.740787         2    ;  uncertainty k = 0.263278
        15        16        17        18     9        0.000000        0.277594         3    ;  uncertainty k = 0.291896
        15        16        17        18     9      180.000000        0.328068         4    ;  uncertainty k = 0.080835
        15        16        17        22     9        0.000000        3.177932         1    ;  uncertainty k = 2.151279
        15        16        17        22     9      180.000000        2.740787         2    ;  uncertainty k = 0.263278
        15        16        17        22     9        0.000000        0.277594         3    ;  uncertainty k = 0.291896
        15        16        17        22     9      180.000000        0.328068         4    ;  uncertainty k = 0.080835
        16        15         7        25     9        0.000000        2.581950         1    ;  uncertainty k = 0.784321
        16        15         7        25     9      180.000000       -1.367223         2    ;  uncertainty k = 0.615574
        16        15         7        25     9        0.000000        0.413421         3    ;  uncertainty k = 0.158680
        16        15         7        25     9      180.000000       -0.024784         4    ;  uncertainty k = 0.117766
        16        17        18        19     9        0.000000        0.062072         1    ;  uncertainty k = 0.417313
        16        17        18        19     9      180.000000        7.419842         2    ;  uncertainty k = 0.519111
        16        17        18        19     9        0.000000        1.109992         3    ;  uncertainty k = 0.330811
        16        17        18        19     9      180.000000        1.700873         4    ;  uncertainty k = 0.103413
        16        17        18        34     9        0.000000       -0.324403         1    ;  uncertainty k = 0.406827
        16        17        18        34     9      180.000000        6.518985         2    ;  uncertainty k = 0.532134
        16        17        18        34     9        0.000000        0.789417         3    ;  uncertainty k = 0.187425
        16        17        18        34     9      180.000000        1.036678         4    ;  uncertainty k = 0.126625
        16        17        22        21     9        0.000000        0.062072         1    ;  uncertainty k = 0.417313
        16        17        22        21     9      180.000000        7.419842         2    ;  uncertainty k = 0.519111
        16        17        22        21     9        0.000000        1.109992         3    ;  uncertainty k = 0.330811
        16        17        22        21     9      180.000000        1.700873         4    ;  uncertainty k = 0.103413
        16        17        22        37     9        0.000000       -0.324403         1    ;  uncertainty k = 0.406827
        16        17        22        37     9      180.000000        6.518985         2    ;  uncertainty k = 0.532134
        16        17        22        37     9        0.000000        0.789417         3    ;  uncertainty k = 0.187425
        16        17        22        37     9      180.000000        1.036678         4    ;  uncertainty k = 0.126625
        17        16        15        33     9        0.000000        4.078705         1    ;  uncertainty k = 1.076481
        17        16        15        33     9      180.000000       -2.455779         2    ;  uncertainty k = 0.835987
        17        16        15        33     9        0.000000        0.554515         3    ;  uncertainty k = 0.127842
        17        16        15        33     9      180.000000       -0.001864         4    ;  uncertainty k = 0.210606
        17        18        19        20     9        0.000000       -0.127263         1    ;  uncertainty k = 0.141698
        17        18        19        20     9      180.000000       14.225482         2    ;  uncertainty k = 0.114156
        17        18        19        20     9        0.000000       -0.985336         3    ;  uncertainty k = 0.627196
        17        18        19        20     9      180.000000        0.658378         4    ;  uncertainty k = 0.330608
        17        18        19        35     9        0.000000       -0.008817         1    ;  uncertainty k = 0.089727
        17        18        19        35     9      180.000000        8.312278         2    ;  uncertainty k = 0.286072
        17        18        19        35     9        0.000000        1.348940         3    ;  uncertainty k = 0.188593
        17        18        19        35     9      180.000000        1.838528         4    ;  uncertainty k = 0.183015
        17        22        21        20     9        0.000000       -0.127263         1    ;  uncertainty k = 0.141698
        17        22        21        20     9      180.000000       14.225482         2    ;  uncertainty k = 0.114156
        17        22        21        20     9        0.000000       -0.985336         3    ;  uncertainty k = 0.627196
        17        22        21        20     9      180.000000        0.658378         4    ;  uncertainty k = 0.330608
        17        22        21        36     9        0.000000       -0.008817         1    ;  uncertainty k = 0.089727
        17        22        21        36     9      180.000000        8.312278         2    ;  uncertainty k = 0.286072
        17        22        21        36     9        0.000000        1.348940         3    ;  uncertainty k = 0.188593
        17        22        21        36     9      180.000000        1.838528         4    ;  uncertainty k = 0.183015
        18        17        22        21     9        0.000000       -0.156871         1    ;  uncertainty k = 0.126213
        18        17        22        21     9      180.000000       10.965607         2    ;  uncertainty k = 0.455519
        18        17        22        21     9        0.000000       -0.528095         3    ;  uncertainty k = 0.423553
        18        17        22        21     9      180.000000        0.857619         4    ;  uncertainty k = 0.432466
        18        17        22        37     9        0.000000        0.072440         1    ;  uncertainty k = 0.376040
        18        17        22        37     9      180.000000        6.562952         2    ;  uncertainty k = 0.763072
        18        17        22        37     9        0.000000        1.445396         3    ;  uncertainty k = 0.299971
        18        17        22        37     9      180.000000        1.585416         4    ;  uncertainty k = 0.178642
        18        19        20        21     9        0.000000       -0.193178         1    ;  uncertainty k = 0.184505
        18        19        20        21     9      180.000000       11.680381         2    ;  uncertainty k = 0.380066
        18        19        20        21     9        0.000000       -0.464248         3    ;  uncertainty k = 0.440275
        18        19        20        21     9      180.000000        0.808662         4    ;  uncertainty k = 0.464268
        18        19        20        38     9        0.000000        0.085947         1    ;  uncertainty k = 0.260078
        18        19        20        38     9      180.000000        9.181143         2    ;  uncertainty k = 0.434375
        18        19        20        38     9        0.000000        1.462752         3    ;  uncertainty k = 0.304781
        18        19        20        38     9      180.000000        1.830171         4    ;  uncertainty k = 0.164748
        19        18        17        22     9        0.000000       -0.156871         1    ;  uncertainty k = 0.126213
        19        18        17        22     9      180.000000       10.965607         2    ;  uncertainty k = 0.455519
        19        18        17        22     9        0.000000       -0.528095         3    ;  uncertainty k = 0.423553
        19        18        17        22     9      180.000000        0.857619         4    ;  uncertainty k = 0.432466
        19        20        21        22     9        0.000000       -0.193178         1    ;  uncertainty k = 0.184505
        19        20        21        22     9      180.000000       11.680381         2    ;  uncertainty k = 0.380066
        19        20        21        22     9        0.000000       -0.464248         3    ;  uncertainty k = 0.440275
        19        20        21        22     9      180.000000        0.808662         4    ;  uncertainty k = 0.464268
        19        20        21        36     9        0.000000        0.033450         1    ;  uncertainty k = 0.124148
        19        20        21        36     9      180.000000        7.140961         2    ;  uncertainty k = 0.383307
        19        20        21        36     9        0.000000        1.479885         3    ;  uncertainty k = 0.375479
        19        20        21        36     9      180.000000        1.615246         4    ;  uncertainty k = 0.151832
        19        20        38        39     9        0.000000        0.024708         1    ;  uncertainty k = 0.037574
        19        20        38        39     9      180.000000        1.245377         2    ;  uncertainty k = 0.103962
        19        20        38        39     9        0.000000        0.346041         3    ;  uncertainty k = 0.034499
        19        20        38        39     9      180.000000        0.177401         4    ;  uncertainty k = 0.012952
        19        20        38        40     9        0.000000        0.024708         1    ;  uncertainty k = 0.037574
        19        20        38        40     9      180.000000        1.245377         2    ;  uncertainty k = 0.103962
        19        20        38        40     9        0.000000        0.346041         3    ;  uncertainty k = 0.034499
        19        20        38        40     9      180.000000        0.177401         4    ;  uncertainty k = 0.012952
        19        20        38        41     9        0.000000        0.024708         1    ;  uncertainty k = 0.037574
        19        20        38        41     9      180.000000        1.245377         2    ;  uncertainty k = 0.103962
        19        20        38        41     9        0.000000        0.346041         3    ;  uncertainty k = 0.034499
        19        20        38        41     9      180.000000        0.177401         4    ;  uncertainty k = 0.012952
        20        19        18        34     9        0.000000        0.124113         1    ;  uncertainty k = 0.209646
        20        19        18        34     9      180.000000        7.646778         2    ;  uncertainty k = 0.344928
        20        19        18        34     9        0.000000        1.407906         3    ;  uncertainty k = 0.235482
        20        19        18        34     9      180.000000        1.836191         4    ;  uncertainty k = 0.152560
        20        21        22        37     9        0.000000        0.124113         1    ;  uncertainty k = 0.209646
        20        21        22        37     9      180.000000        7.646778         2    ;  uncertainty k = 0.344928
        20        21        22        37     9        0.000000        1.407906         3    ;  uncertainty k = 0.235482
        20        21        22        37     9      180.000000        1.836191         4    ;  uncertainty k = 0.152560
        21        20        19        35     9        0.000000        0.033450         1    ;  uncertainty k = 0.124148
        21        20        19        35     9      180.000000        7.140961         2    ;  uncertainty k = 0.383307
        21        20        19        35     9        0.000000        1.479885         3    ;  uncertainty k = 0.375479
        21        20        19        35     9      180.000000        1.615246         4    ;  uncertainty k = 0.151832
        21        20        38        39     9        0.000000        0.024708         1    ;  uncertainty k = 0.037574
        21        20        38        39     9      180.000000        1.245377         2    ;  uncertainty k = 0.103962
        21        20        38        39     9        0.000000        0.346041         3    ;  uncertainty k = 0.034499
        21        20        38        39     9      180.000000        0.177401         4    ;  uncertainty k = 0.012952
        21        20        38        40     9        0.000000        0.024708         1    ;  uncertainty k = 0.037574
        21        20        38        40     9      180.000000        1.245377         2    ;  uncertainty k = 0.103962
        21        20        38        40     9        0.000000        0.346041         3    ;  uncertainty k = 0.034499
        21        20        38        40     9      180.000000        0.177401         4    ;  uncertainty k = 0.012952
        21        20        38        41     9        0.000000        0.024708         1    ;  uncertainty k = 0.037574
        21        20        38        41     9      180.000000        1.245377         2    ;  uncertainty k = 0.103962
        21        20        38        41     9        0.000000        0.346041         3    ;  uncertainty k = 0.034499
        21        20        38        41     9      180.000000        0.177401         4    ;  uncertainty k = 0.012952
        22        17        18        34     9        0.000000        0.072440         1    ;  uncertainty k = 0.376040
        22        17        18        34     9      180.000000        6.562952         2    ;  uncertainty k = 0.763072
        22        17        18        34     9        0.000000        1.445396         3    ;  uncertainty k = 0.299971
        22        17        18        34     9      180.000000        1.585416         4    ;  uncertainty k = 0.178642
        22        21        20        38     9        0.000000        0.085947         1    ;  uncertainty k = 0.260078
        22        21        20        38     9      180.000000        9.181143         2    ;  uncertainty k = 0.434375
        22        21        20        38     9        0.000000        1.462752         3    ;  uncertainty k = 0.304781
        22        21        20        38     9      180.000000        1.830171         4    ;  uncertainty k = 0.164748
        23         4         1        42     9        0.000000        0.180027         1    ;  uncertainty k = 0.784731
        23         4         1        42     9      180.000000        6.711257         2    ;  uncertainty k = 0.948386
        23         4         1        42     9        0.000000        1.314207         3    ;  uncertainty k = 0.339403
        23         4         1        42     9      180.000000        0.305044         4    ;  uncertainty k = 0.182585
        24         6         7        25     9        0.000000        0.738142         1    ;  uncertainty k = 0.404532
        24         6         7        25     9      180.000000       -0.466936         2    ;  uncertainty k = 0.387651
        24         6         7        25     9        0.000000       -0.165785         3    ;  uncertainty k = 0.332593
        24         6         7        25     9      180.000000       -0.168400         4    ;  uncertainty k = 0.127767
        24         6         9        27     9        0.000000        0.782671         1    ;  uncertainty k = 0.449802
        24         6         9        27     9      180.000000       -0.479510         2    ;  uncertainty k = 0.387871
        24         6         9        27     9        0.000000       -0.193561         3    ;  uncertainty k = 0.312761
        24         6         9        27     9      180.000000       -0.172001         4    ;  uncertainty k = 0.106752
        25         7         8        26     9        0.000000       15.402551         1    ;  uncertainty k = 0.447078
        25         7         8        26     9      180.000000       -1.787025         2    ;  uncertainty k = 0.288762
        25         7         8        26     9        0.000000        0.563549         3    ;  uncertainty k = 0.141418
        25         7         8        26     9      180.000000        0.388149         4    ;  uncertainty k = 0.058640
        25         7        15        33     9        0.000000       -0.190583         1    ;  uncertainty k = 0.256009
        25         7        15        33     9      180.000000       -0.018306         2    ;  uncertainty k = 0.316387
        25         7        15        33     9        0.000000        0.129412         3    ;  uncertainty k = 0.264290
        25         7        15        33     9      180.000000       -0.212594         4    ;  uncertainty k = 0.201546
        27         9        10        28     9        0.000000       15.204568         1    ;  uncertainty k = 0.383293
        27         9        10        28     9      180.000000       -2.008800         2    ;  uncertainty k = 0.361223
        27         9        10        28     9        0.000000        0.572217         3    ;  uncertainty k = 0.162951
        27         9        10        28     9      180.000000        0.405645         4    ;  uncertainty k = 0.081230
        27         9        11        29     9        0.000000        0.295960         1    ;  uncertainty k = 0.296986
        27         9        11        29     9      180.000000       -0.050225         2    ;  uncertainty k = 0.461878
        27         9        11        29     9        0.000000       -0.200187         3    ;  uncertainty k = 0.217268
        27         9        11        29     9      180.000000       -0.260240         4    ;  uncertainty k = 0.109658
        29        11        12        30     9        0.000000       -0.167653         1    ;  uncertainty k = 0.174272
        29        11        12        30     9      180.000000       -0.232874         2    ;  uncertainty k = 0.123290
        29        11        12        30     9        0.000000        0.093127         3    ;  uncertainty k = 0.089625
        29        11        12        30     9      180.000000       -0.087467         4    ;  uncertainty k = 0.104346
        29        11        12        31     9        0.000000       -0.167653         1    ;  uncertainty k = 0.174272
        29        11        12        31     9      180.000000       -0.232874         2    ;  uncertainty k = 0.123290
        29        11        12        31     9        0.000000        0.093127         3    ;  uncertainty k = 0.089625
        29        11        12        31     9      180.000000       -0.087467         4    ;  uncertainty k = 0.104346
        30        12        13        32     9        0.000000       10.479494         1    ;  uncertainty k = 0.097216
        30        12        13        32     9      180.000000       -1.870970         2    ;  uncertainty k = 0.389127
        30        12        13        32     9        0.000000        0.826769         3    ;  uncertainty k = 0.020297
        30        12        13        32     9      180.000000        0.085753         4    ;  uncertainty k = 0.063309
        31        12        13        32     9        0.000000       10.479494         1    ;  uncertainty k = 0.097216
        31        12        13        32     9      180.000000       -1.870970         2    ;  uncertainty k = 0.389127
        31        12        13        32     9        0.000000        0.826769         3    ;  uncertainty k = 0.020297
        31        12        13        32     9      180.000000        0.085753         4    ;  uncertainty k = 0.063309
        34        18        19        35     9        0.000000       -0.157292         1    ;  uncertainty k = 0.178485
        34        18        19        35     9      180.000000        7.628097         2    ;  uncertainty k = 0.442866
        34        18        19        35     9        0.000000       -0.477939         3    ;  uncertainty k = 0.282385
        34        18        19        35     9      180.000000        0.148042         4    ;  uncertainty k = 0.156058
        35        19        20        38     9        0.000000       -0.391576         1    ;  uncertainty k = 0.425690
        35        19        20        38     9      180.000000        8.399313         2    ;  uncertainty k = 0.266950
        35        19        20        38     9        0.000000        0.463757         3    ;  uncertainty k = 0.267844
        35        19        20        38     9      180.000000        0.838733         4    ;  uncertainty k = 0.257393
        36        21        20        38     9        0.000000       -0.391576         1    ;  uncertainty k = 0.425690
        36        21        20        38     9      180.000000        8.399313         2    ;  uncertainty k = 0.266950
        36        21        20        38     9        0.000000        0.463757         3    ;  uncertainty k = 0.267844
        36        21        20        38     9      180.000000        0.838733         4    ;  uncertainty k = 0.257393
        36        21        22        37     9        0.000000       -0.157292         1    ;  uncertainty k = 0.178485
        36        21        22        37     9      180.000000        7.628097         2    ;  uncertainty k = 0.442866
        36        21        22        37     9        0.000000       -0.477939         3    ;  uncertainty k = 0.282385
        36        21        22        37     9      180.000000        0.148042         4    ;  uncertainty k = 0.156058
        42        43        44        45     9        0.000000       -0.552213         1    ;  uncertainty k = 0.710742
        42        43        44        45     9      180.000000       13.026012         2    ;  uncertainty k = 0.983631
        42        43        44        45     9        0.000000       -4.876326         3    ;  uncertainty k = 0.406938
        42        43        44        45     9      180.000000        1.500871         4    ;  uncertainty k = 0.675713
        42        43        44        49     9        0.000000       -0.380034         1    ;  uncertainty k = 0.703201
        42        43        44        49     9      180.000000        7.634434         2    ;  uncertainty k = 0.362709
        42        43        44        49     9        0.000000        1.225171         3    ;  uncertainty k = 0.225444
        42        43        44        49     9      180.000000        0.535850         4    ;  uncertainty k = 0.226341
        42        46        45        44     9        0.000000       -0.068771         1    ;  uncertainty k = 0.442638
        42        46        45        44     9      180.000000       14.081288         2    ;  uncertainty k = 0.723033
        42        46        45        44     9        0.000000       -8.640019         3    ;  uncertainty k = 1.012013
        42        46        45        44     9      180.000000        1.760191         4    ;  uncertainty k = 0.546301
        42        46        45        48     9        0.000000        0.756608         1    ;  uncertainty k = 1.465566
        42        46        45        48     9      180.000000        8.329244         2    ;  uncertainty k = 1.193332
        42        46        45        48     9        0.000000        0.665796         3    ;  uncertainty k = 0.970491
        42        46        45        48     9      180.000000        0.224829         4    ;  uncertainty k = 0.283880
        43        42        46        45     9        0.000000       -0.155897         1    ;  uncertainty k = 0.950427
        43        42        46        45     9      180.000000       12.110071         2    ;  uncertainty k = 0.384341
        43        42        46        45     9        0.000000       -7.653345         3    ;  uncertainty k = 1.025002
        43        42        46        45     9      180.000000        1.707616         4    ;  uncertainty k = 0.549319
        43        44        45        46     9        0.000000       -0.547724         1    ;  uncertainty k = 0.488258
        43        44        45        46     9      180.000000       19.211597         2    ;  uncertainty k = 0.529169
        43        44        45        46     9        0.000000       -3.930237         3    ;  uncertainty k = 0.378378
        43        44        45        46     9      180.000000        1.168516         4    ;  uncertainty k = 0.825516
        43        44        45        48     9        0.000000       -0.152667         1    ;  uncertainty k = 0.215330
        43        44        45        48     9      180.000000       14.528104         2    ;  uncertainty k = 0.054784
        43        44        45        48     9        0.000000        1.667957         3    ;  uncertainty k = 0.332945
        43        44        45        48     9      180.000000        0.945660         4    ;  uncertainty k = 0.145915
        44        43        42        46     9        0.000000       -0.656301         1    ;  uncertainty k = 0.471394
        44        43        42        46     9      180.000000       18.441003         2    ;  uncertainty k = 0.504518
        44        43        42        46     9        0.000000       -3.413567         3    ;  uncertainty k = 0.648197
        44        43        42        46     9      180.000000        1.079606         4    ;  uncertainty k = 0.763647
        45        44        43        47     9        0.000000       -0.252749         1    ;  uncertainty k = 0.256917
        45        44        43        47     9      180.000000        7.555691         2    ;  uncertainty k = 0.078122
        45        44        43        47     9        0.000000        0.868758         3    ;  uncertainty k = 0.370086
        45        44        43        47     9      180.000000        0.583244         4    ;  uncertainty k = 0.223789
        46        42        43        47     9        0.000000        0.172485         1    ;  uncertainty k = 0.547574
        46        42        43        47     9      180.000000       11.768288         2    ;  uncertainty k = 0.457668
        46        42        43        47     9        0.000000        1.970710         3    ;  uncertainty k = 0.366180
        46        42        43        47     9      180.000000        1.205461         4    ;  uncertainty k = 0.166003
        46        45        44        49     9        0.000000        0.000941         1    ;  uncertainty k = 0.555663
        46        45        44        49     9      180.000000       13.504569         2    ;  uncertainty k = 0.464284
        46        45        44        49     9        0.000000        2.157961         3    ;  uncertainty k = 0.377979
        46        45        44        49     9      180.000000        1.174943         4    ;  uncertainty k = 0.381744
        47        43        44        49     9        0.000000       -0.146331         1    ;  uncertainty k = 0.861668
        47        43        44        49     9      180.000000        5.665239         2    ;  uncertainty k = 0.588058
        47        43        44        49     9        0.000000        1.148871         3    ;  uncertainty k = 0.493189
        47        43        44        49     9      180.000000        0.148653         4    ;  uncertainty k = 0.122154
        48        45        44        49     9        0.000000       -0.275685         1    ;  uncertainty k = 0.290677
        48        45        44        49     9      180.000000        7.432768         2    ;  uncertainty k = 0.499773
        48        45        44        49     9        0.000000        1.050197         3    ;  uncertainty k = 0.393075
        48        45        44        49     9      180.000000        0.554371         4    ;  uncertainty k = 0.259878

[ dihedrals ] ; impropers
;       ai        aj        ak        al funct           phase               k        pn
         1         2         4        42     4      180.000000        6.346411         2    ;  uncertainty k = 0.406136
         1         4        42         2     4      180.000000        6.346411         2    ;  uncertainty k = 0.406136
         1        42         2         4     4      180.000000        6.346411         2    ;  uncertainty k = 0.406136
         4         1         5        23     4      180.000000        0.323790         2    ;  uncertainty k = 0.724016
         4         5        23         1     4      180.000000        0.323790         2    ;  uncertainty k = 0.724016
         4        23         1         5     4      180.000000        0.323790         2    ;  uncertainty k = 0.724016
        17        16        18        22     4      180.000000       11.790034         2    ;  uncertainty k = 0.101837
        17        18        22        16     4      180.000000       11.790034         2    ;  uncertainty k = 0.101837
        17        22        16        18     4      180.000000       11.790034         2    ;  uncertainty k = 0.101837
        18        17        19        34     4      180.000000        4.631440         2    ;  uncertainty k = 0.175194
        18        19        34        17     4      180.000000        4.631440         2    ;  uncertainty k = 0.175194
        18        34        17        19     4      180.000000        4.631440         2    ;  uncertainty k = 0.175194
        19        18        20        35     4      180.000000        3.995374         2    ;  uncertainty k = 0.157755
        19        20        35        18     4      180.000000        3.995374         2    ;  uncertainty k = 0.157755
        19        35        18        20     4      180.000000        3.995374         2    ;  uncertainty k = 0.157755
        20        19        21        38     4      180.000000       16.407557         2    ;  uncertainty k = 0.051646
        20        21        38        19     4      180.000000       16.407557         2    ;  uncertainty k = 0.051646
        20        38        19        21     4      180.000000       16.407557         2    ;  uncertainty k = 0.051646
        21        20        22        36     4      180.000000        3.995374         2    ;  uncertainty k = 0.157755
        21        22        36        20     4      180.000000        3.995374         2    ;  uncertainty k = 0.157755
        21        36        20        22     4      180.000000        3.995374         2    ;  uncertainty k = 0.157755
        22        17        21        37     4      180.000000        4.631440         2    ;  uncertainty k = 0.175194
        22        21        37        17     4      180.000000        4.631440         2    ;  uncertainty k = 0.175194
        22        37        17        21     4      180.000000        4.631440         2    ;  uncertainty k = 0.175194
        42         1        43        46     4      180.000000        3.077521         2    ;  uncertainty k = 0.764646
        42        43        46         1     4      180.000000        3.077521         2    ;  uncertainty k = 0.764646
        42        46         1        43     4      180.000000        3.077521         2    ;  uncertainty k = 0.764646
        43        42        44        47     4      180.000000        1.126634         2    ;  uncertainty k = 0.406354
        43        44        47        42     4      180.000000        1.126634         2    ;  uncertainty k = 0.406354
        43        47        42        44     4      180.000000        1.126634         2    ;  uncertainty k = 0.406354
        44        43        45        49     4      180.000000        1.061939         2    ;  uncertainty k = 0.432419
        44        45        49        43     4      180.000000        1.061939         2    ;  uncertainty k = 0.432419
        44        49        43        45     4      180.000000        1.061939         2    ;  uncertainty k = 0.432419

[ pairs ]
;       ai        aj funct
         1         6     1
         1        44     1
         1        45     1
         1        47     1
         2         6     1
         2        23     1
         2        43     1
         2        46     1
         3         7     1
         3         9     1
         3        23     1
         3        24     1
         3        42     1
         4         7     1
         4         9     1
         4        24     1
         4        43     1
         4        46     1
         5         8     1
         5        10     1
         5        11     1
         5        15     1
         5        25     1
         5        27     1
         5        42     1
         6        12     1
         6        14     1
         6        16     1
         6        23     1
         6        26     1
         6        28     1
         6        29     1
         6        33     1
         7        10     1
         7        11     1
         7        17     1
         7        27     1
         8         9     1
         8        14     1
         8        16     1
         8        24     1
         8        33     1
         9        13     1
         9        15     1
         9        25     1
         9        30     1
         9        31     1
        10        12     1
        10        14     1
        10        24     1
        10        29     1
        11        16     1
        11        24     1
        11        28     1
        11        32     1
        11        33     1
        12        15     1
        12        27     1
        13        14     1
        13        29     1
        14        17     1
        14        25     1
        14        27     1
        14        30     1
        14        31     1
        15        18     1
        15        22     1
        15        24     1
        15        26     1
        15        29     1
        16        19     1
        16        21     1
        16        25     1
        16        34     1
        16        37     1
        17        20     1
        17        33     1
        17        35     1
        17        36     1
        18        21     1
        18        37     1
        18        38     1
        19        22     1
        19        36     1
        19        39     1
        19        40     1
        19        41     1
        20        34     1
        20        37     1
        21        35     1
        21        39     1
        21        40     1
        21        41     1
        22        34     1
        22        38     1
        23        42     1
        24        25     1
        24        27     1
        25        26     1
        25        33     1
        27        28     1
        27        29     1
        29        30     1
        29        31     1
        30        32     1
        31        32     1
        34        35     1
        35        38     1
        36        37     1
        36        38     1
        42        48     1
        42        49     1
        43        48     1
        45        47     1
        46        47     1
        46        49     1
        47        49     1
        48        49     1
