; ITP file created by ByteFF-joint-25, 2025-07-14 11:36:18.591272

[ atomtypes ]
;name           bonded.type        at.num        mass        charge   ptype           sigma         epsilon
 c0bf                                   6      0.0000       0.00000       A     3.31536e-01     4.13482e-01    ;  uncertainty sigma = 0.000025, epsilon = 0.000366
 n1bf                                   7      0.0000       0.00000       A     3.38462e-01     3.93424e-01    ;  uncertainty sigma = 0.000019, epsilon = 0.000894
 n2bf                                   7      0.0000       0.00000       A     3.38391e-01     3.93716e-01    ;  uncertainty sigma = 0.000021, epsilon = 0.001289
 c3bf                                   6      0.0000       0.00000       A     3.31537e-01     4.13397e-01    ;  uncertainty sigma = 0.000025, epsilon = 0.000921
 n4bf                                   7      0.0000       0.00000       A     3.20678e-01     8.52193e-01    ;  uncertainty sigma = 0.000055, epsilon = 0.003512
 c5bf                                   6      0.0000       0.00000       A     3.39713e-01     4.50655e-01    ;  uncertainty sigma = 0.000026, epsilon = 0.001397
 c6bf                                   6      0.0000       0.00000       A     3.39779e-01     4.49718e-01    ;  uncertainty sigma = 0.000015, epsilon = 0.002118
 o7bf                                   8      0.0000       0.00000       A     3.24313e-01     3.89156e-01    ;  uncertainty sigma = 0.000010, epsilon = 0.000595
 c8bf                                   6      0.0000       0.00000       A     3.39779e-01     4.49976e-01    ;  uncertainty sigma = 0.000018, epsilon = 0.001841
 o9bf                                   8      0.0000       0.00000       A     3.24318e-01     3.89663e-01    ;  uncertainty sigma = 0.000007, epsilon = 0.000651
 c10bf                                  6      0.0000       0.00000       A     3.39813e-01     4.51725e-01    ;  uncertainty sigma = 0.000016, epsilon = 0.001146
 c11bf                                  6      0.0000       0.00000       A     3.39797e-01     4.50403e-01    ;  uncertainty sigma = 0.000017, epsilon = 0.000902
 o12bf                                  8      0.0000       0.00000       A     3.24274e-01     3.88861e-01    ;  uncertainty sigma = 0.000020, epsilon = 0.000688
 o13bf                                  8      0.0000       0.00000       A     3.15611e-01     3.03419e-01    ;  uncertainty sigma = 0.000029, epsilon = 0.002245
 c14bf                                  6      0.0000       0.00000       A     3.39781e-01     4.51054e-01    ;  uncertainty sigma = 0.000013, epsilon = 0.000917
 s15bf                                 16      0.0000       0.00000       A     3.53296e-01     1.18046e+00    ;  uncertainty sigma = 0.000030, epsilon = 0.002394
 c16bf                                  6      0.0000       0.00000       A     3.31487e-01     4.13043e-01    ;  uncertainty sigma = 0.000026, epsilon = 0.000640
 c17bf                                  6      0.0000       0.00000       A     3.31517e-01     4.13229e-01    ;  uncertainty sigma = 0.000008, epsilon = 0.000553
 c18bf                                  6      0.0000       0.00000       A     3.31524e-01     4.13304e-01    ;  uncertainty sigma = 0.000004, epsilon = 0.000505
 c19bf                                  6      0.0000       0.00000       A     3.31516e-01     4.13253e-01    ;  uncertainty sigma = 0.000004, epsilon = 0.000640
 c20bf                                  6      0.0000       0.00000       A     3.31524e-01     4.13304e-01    ;  uncertainty sigma = 0.000004, epsilon = 0.000505
 c21bf                                  6      0.0000       0.00000       A     3.31517e-01     4.13229e-01    ;  uncertainty sigma = 0.000008, epsilon = 0.000553
 h22bf                                  1      0.0000       0.00000       A     2.53628e-01     6.69653e-02    ;  uncertainty sigma = 0.000067, epsilon = 0.000881
 h23bf                                  1      0.0000       0.00000       A     2.42314e-01     8.67745e-02    ;  uncertainty sigma = 0.000097, epsilon = 0.000594
 h24bf                                  1      0.0000       0.00000       A     2.42150e-01     8.68976e-02    ;  uncertainty sigma = 0.000136, epsilon = 0.000578
 h25bf                                  1      0.0000       0.00000       A     5.37699e-02     1.94207e-02    ;  uncertainty sigma = 0.000075, epsilon = 0.001021
 h26bf                                  1      0.0000       0.00000       A     2.42148e-01     8.70400e-02    ;  uncertainty sigma = 0.000125, epsilon = 0.000654
 h27bf                                  1      0.0000       0.00000       A     5.37509e-02     1.95242e-02    ;  uncertainty sigma = 0.000059, epsilon = 0.001184
 h28bf                                  1      0.0000       0.00000       A     2.42295e-01     8.69263e-02    ;  uncertainty sigma = 0.000086, epsilon = 0.000919
 h29bf                                  1      0.0000       0.00000       A     2.42123e-01     8.66913e-02    ;  uncertainty sigma = 0.000015, epsilon = 0.000817
 h30bf                                  1      0.0000       0.00000       A     2.42123e-01     8.66913e-02    ;  uncertainty sigma = 0.000015, epsilon = 0.000817
 h31bf                                  1      0.0000       0.00000       A     5.37919e-02     1.95436e-02    ;  uncertainty sigma = 0.000077, epsilon = 0.000848
 h32bf                                  1      0.0000       0.00000       A     2.25392e-01     8.79591e-02    ;  uncertainty sigma = 0.000386, epsilon = 0.001528
 h33bf                                  1      0.0000       0.00000       A     2.62569e-01     6.71318e-02    ;  uncertainty sigma = 0.000009, epsilon = 0.000486
 h34bf                                  1      0.0000       0.00000       A     2.62564e-01     6.70918e-02    ;  uncertainty sigma = 0.000008, epsilon = 0.000519
 h35bf                                  1      0.0000       0.00000       A     2.62564e-01     6.70918e-02    ;  uncertainty sigma = 0.000008, epsilon = 0.000519
 h36bf                                  1      0.0000       0.00000       A     2.62569e-01     6.71318e-02    ;  uncertainty sigma = 0.000009, epsilon = 0.000486
 c37bf                                  6      0.0000       0.00000       A     3.39773e-01     4.50878e-01    ;  uncertainty sigma = 0.000005, epsilon = 0.000421
 h38bf                                  1      0.0000       0.00000       A     2.60034e-01     8.66894e-02    ;  uncertainty sigma = 0.000006, epsilon = 0.000488
 h39bf                                  1      0.0000       0.00000       A     2.60034e-01     8.66894e-02    ;  uncertainty sigma = 0.000006, epsilon = 0.000488
 h40bf                                  1      0.0000       0.00000       A     2.60034e-01     8.66894e-02    ;  uncertainty sigma = 0.000006, epsilon = 0.000488
 c41bf                                  6      0.0000       0.00000       A     3.31516e-01     4.12831e-01    ;  uncertainty sigma = 0.000015, epsilon = 0.000249
 n42bf                                  7      0.0000       0.00000       A     3.38454e-01     3.92562e-01    ;  uncertainty sigma = 0.000029, epsilon = 0.000832
 c43bf                                  6      0.0000       0.00000       A     3.31528e-01     4.13232e-01    ;  uncertainty sigma = 0.000007, epsilon = 0.000734
 c44bf                                  6      0.0000       0.00000       A     3.31511e-01     4.12830e-01    ;  uncertainty sigma = 0.000007, epsilon = 0.001037
 n45bf                                  7      0.0000       0.00000       A     3.20590e-01     8.54184e-01    ;  uncertainty sigma = 0.000025, epsilon = 0.001707
 h46bf                                  1      0.0000       0.00000       A     2.53624e-01     6.71631e-02    ;  uncertainty sigma = 0.000019, epsilon = 0.000770
 h47bf                                  1      0.0000       0.00000       A     2.53605e-01     6.68993e-02    ;  uncertainty sigma = 0.000015, epsilon = 0.000594
 h48bf                                  1      0.0000       0.00000       A     1.10623e-01     4.17639e-02    ;  uncertainty sigma = 0.000046, epsilon = 0.000507

[ moleculetype ]
;name             nrexcl
 MOL                   3

[ atoms ]
;       nr            type      resi   res      atom      cgnr      charge          mass ; qtot
         1            c0bf         1   UNL        c0         1     0.21960       12.0110 ; qtot    0.220
         2            n1bf         1   UNL        n1         2    -0.33494       14.0070 ; qtot   -0.115
         3            n2bf         1   UNL        n2         3    -0.20031       14.0070 ; qtot   -0.316
         4            c3bf         1   UNL        c3         4    -0.17240       12.0110 ; qtot   -0.488
         5            n4bf         1   UNL        n4         5     0.08816       14.0070 ; qtot   -0.400
         6            c5bf         1   UNL        c5         6     0.03651       12.0110 ; qtot   -0.363
         7            c6bf         1   UNL        c6         7     0.13775       12.0110 ; qtot   -0.226
         8            o7bf         1   UNL        o7         8    -0.59205       15.9990 ; qtot   -0.818
         9            c8bf         1   UNL        c8         9     0.12849       12.0110 ; qtot   -0.689
        10            o9bf         1   UNL        o9        10    -0.59538       15.9990 ; qtot   -1.285
        11           c10bf         1   UNL       c10        11     0.09794       12.0110 ; qtot   -1.187
        12           c11bf         1   UNL       c11        12     0.13320       12.0110 ; qtot   -1.053
        13           o12bf         1   UNL       o12        13    -0.59965       15.9990 ; qtot   -1.653
        14           o13bf         1   UNL       o13        14    -0.39620       15.9990 ; qtot   -2.049
        15           c14bf         1   UNL       c14        15     0.22984       12.0110 ; qtot   -1.819
        16           s15bf         1   UNL       s15        16    -0.29369       32.0670 ; qtot   -2.113
        17           c16bf         1   UNL       c16        17     0.01270       12.0110 ; qtot   -2.100
        18           c17bf         1   UNL       c17        18    -0.09102       12.0110 ; qtot   -2.191
        19           c18bf         1   UNL       c18        19    -0.13512       12.0110 ; qtot   -2.327
        20           c19bf         1   UNL       c19        20    -0.05605       12.0110 ; qtot   -2.383
        21           c20bf         1   UNL       c20        21    -0.13512       12.0110 ; qtot   -2.518
        22           c21bf         1   UNL       c21        22    -0.09102       12.0110 ; qtot   -2.609
        23           h22bf         1   UNL       h22        23     0.20235        1.0080 ; qtot   -2.406
        24           h23bf         1   UNL       h23        24     0.09445        1.0080 ; qtot   -2.312
        25           h24bf         1   UNL       h24        25     0.07817        1.0080 ; qtot   -2.234
        26           h25bf         1   UNL       h25        26     0.42879        1.0080 ; qtot   -1.805
        27           h26bf         1   UNL       h26        27     0.07395        1.0080 ; qtot   -1.731
        28           h27bf         1   UNL       h27        28     0.42496        1.0080 ; qtot   -1.306
        29           h28bf         1   UNL       h28        29     0.07367        1.0080 ; qtot   -1.232
        30           h29bf         1   UNL       h29        30     0.05099        1.0080 ; qtot   -1.181
        31           h30bf         1   UNL       h30        31     0.05099        1.0080 ; qtot   -1.130
        32           h31bf         1   UNL       h31        32     0.41123        1.0080 ; qtot   -0.719
        33           h32bf         1   UNL       h32        33     0.08832        1.0080 ; qtot   -0.631
        34           h33bf         1   UNL       h33        34     0.14071        1.0080 ; qtot   -0.490
        35           h34bf         1   UNL       h34        35     0.13401        1.0080 ; qtot   -0.356
        36           h35bf         1   UNL       h35        36     0.13401        1.0080 ; qtot   -0.222
        37           h36bf         1   UNL       h36        37     0.14071        1.0080 ; qtot   -0.081
        38           c37bf         1   UNL       c37        38    -0.05057       12.0110 ; qtot   -0.132
        39           h38bf         1   UNL       h38        39     0.04329        1.0080 ; qtot   -0.089
        40           h39bf         1   UNL       h39        40     0.04329        1.0080 ; qtot   -0.045
        41           h40bf         1   UNL       h40        41     0.04329        1.0080 ; qtot   -0.002
        42           c41bf         1   UNL       c41        42     0.37934       12.0110 ; qtot    0.377
        43           n42bf         1   UNL       n42        43    -0.65810       14.0070 ; qtot   -0.281
        44           c43bf         1   UNL       c43        44     0.29447       12.0110 ; qtot    0.014
        45           c44bf         1   UNL       c44        45    -0.24671       12.0110 ; qtot   -0.233
        46           n45bf         1   UNL       n45        46    -0.30280       14.0070 ; qtot   -0.536
        47           h46bf         1   UNL       h46        47     0.17846        1.0080 ; qtot   -0.357
        48           h47bf         1   UNL       h47        48     0.04206        1.0080 ; qtot   -0.315
        49           h48bf         1   UNL       h48        49     0.31543        1.0080 ; qtot    0.000

[ bonds ]
;       ai        aj funct               r               k
         1         2     1        0.137487   253815.526270    ;  uncertainty r = 0.000159, k = 7.938217
         1         4     1        0.138560   451702.484668    ;  uncertainty r = 0.000096, k = 7.695073
         1        42     1        0.144324   286755.230762    ;  uncertainty r = 0.000074, k = 3.478095
         2         3     1        0.130424   455508.892969    ;  uncertainty r = 0.000063, k = 7.976999
         3         5     1        0.136383   229556.600293    ;  uncertainty r = 0.000199, k = 15.695428
         4         5     1        0.135825   306196.887500    ;  uncertainty r = 0.000142, k = 11.601596
         4        23     1        0.108150   343525.067627    ;  uncertainty r = 0.000046, k = 3.766046
         5         6     1        0.145299   235611.116943    ;  uncertainty r = 0.000209, k = 7.706730
         6         7     1        0.152197   188213.884424    ;  uncertainty r = 0.000191, k = 8.218331
         6         9     1        0.152242   189493.357446    ;  uncertainty r = 0.000225, k = 7.200075
         6        24     1        0.109521   308585.986230    ;  uncertainty r = 0.000061, k = 4.629759
         7         8     1        0.141112   255571.457910    ;  uncertainty r = 0.000133, k = 10.775081
         7        15     1        0.151795   195953.824756    ;  uncertainty r = 0.000220, k = 7.518907
         7        25     1        0.109646   304732.155518    ;  uncertainty r = 0.000030, k = 1.257698
         8        26     1        0.097065   447735.907617    ;  uncertainty r = 0.000022, k = 2.843500
         9        10     1        0.141577   252957.147412    ;  uncertainty r = 0.000096, k = 9.080986
         9        11     1        0.151787   194051.514404    ;  uncertainty r = 0.000051, k = 5.272028
         9        27     1        0.109666   303884.910840    ;  uncertainty r = 0.000035, k = 2.180842
        10        28     1        0.097048   450902.764551    ;  uncertainty r = 0.000018, k = 3.349293
        11        12     1        0.151618   203501.917554    ;  uncertainty r = 0.000125, k = 6.264156
        11        14     1        0.142011   234157.493604    ;  uncertainty r = 0.000263, k = 8.190043
        11        29     1        0.109922   307243.934521    ;  uncertainty r = 0.000031, k = 1.845416
        12        13     1        0.142092   261467.312500    ;  uncertainty r = 0.000062, k = 4.434858
        12        30     1        0.109761   309531.982910    ;  uncertainty r = 0.000022, k = 2.053540
        12        31     1        0.109761   309531.982910    ;  uncertainty r = 0.000022, k = 2.053540
        13        32     1        0.097013   462818.941602    ;  uncertainty r = 0.000022, k = 2.302141
        14        15     1        0.140261   232205.130518    ;  uncertainty r = 0.000298, k = 17.002599
        15        16     1        0.184466   133169.526196    ;  uncertainty r = 0.000195, k = 13.146840
        15        33     1        0.109643   309186.925488    ;  uncertainty r = 0.000063, k = 4.096350
        16        17     1        0.179121   206179.189795    ;  uncertainty r = 0.000089, k = 7.782768
        17        18     1        0.140095   360007.458594    ;  uncertainty r = 0.000063, k = 2.797086
        17        22     1        0.140095   360007.458594    ;  uncertainty r = 0.000063, k = 2.797086
        18        19     1        0.139505   367196.614551    ;  uncertainty r = 0.000029, k = 1.961353
        18        34     1        0.108793   333998.704346    ;  uncertainty r = 0.000039, k = 2.030538
        19        20     1        0.140220   353169.182520    ;  uncertainty r = 0.000028, k = 2.666792
        19        35     1        0.108868   334513.609082    ;  uncertainty r = 0.000009, k = 0.953696
        20        21     1        0.140220   353169.182520    ;  uncertainty r = 0.000028, k = 2.666792
        20        38     1        0.151054   252476.717773    ;  uncertainty r = 0.000015, k = 5.525231
        21        22     1        0.139505   367196.614551    ;  uncertainty r = 0.000029, k = 1.961353
        21        36     1        0.108868   334513.609082    ;  uncertainty r = 0.000009, k = 0.953696
        22        37     1        0.108793   333998.704346    ;  uncertainty r = 0.000039, k = 2.030538
        38        39     1        0.109534   307895.054199    ;  uncertainty r = 0.000008, k = 1.140244
        38        40     1        0.109534   307895.054199    ;  uncertainty r = 0.000008, k = 1.140244
        38        41     1        0.109534   307895.054199    ;  uncertainty r = 0.000008, k = 1.140244
        42        43     1        0.132608   452920.400488    ;  uncertainty r = 0.000088, k = 12.568181
        42        46     1        0.137582   315458.124512    ;  uncertainty r = 0.000064, k = 15.381727
        43        44     1        0.137544   295990.139014    ;  uncertainty r = 0.000043, k = 10.399507
        44        45     1        0.138428   460020.329785    ;  uncertainty r = 0.000042, k = 9.180791
        44        48     1        0.108356   337725.130420    ;  uncertainty r = 0.000047, k = 1.981797
        45        46     1        0.137725   354917.682861    ;  uncertainty r = 0.000109, k = 9.395389
        45        47     1        0.108128   342697.358838    ;  uncertainty r = 0.000024, k = 2.334361
        46        49     1        0.101489   422855.842529    ;  uncertainty r = 0.000066, k = 3.697054

[ angles ]
;       ai        aj        ak funct           theta             cth
         1         2         3     1      109.546204      992.035874    ;  uncertainty theta = 0.002093, k = 0.169251
         1         4         5     1      104.691750      746.001914    ;  uncertainty theta = 0.003695, k = 0.171397
         1         4        23     1      130.639847      218.264780    ;  uncertainty theta = 0.005139, k = 0.133099
         1        42        43     1      123.853294      376.546082    ;  uncertainty theta = 0.005492, k = 0.225356
         1        42        46     1      120.270447      382.763985    ;  uncertainty theta = 0.002918, k = 0.141453
         2         1         4     1      109.581192      792.141725    ;  uncertainty theta = 0.004258, k = 0.184947
         2         1        42     1      119.042259      399.837746    ;  uncertainty theta = 0.003807, k = 0.205526
         2         3         5     1      108.692360     1195.295304    ;  uncertainty theta = 0.002108, k = 0.055359
         3         5         4     1      108.766190      940.004333    ;  uncertainty theta = 0.003756, k = 0.080376
         3         5         6     1      115.518227      436.187714    ;  uncertainty theta = 0.001913, k = 0.180335
         4         1        42     1      127.606674      331.899873    ;  uncertainty theta = 0.002359, k = 0.143418
         4         5         6     1      122.686081      356.221767    ;  uncertainty theta = 0.004761, k = 0.063914
         5         4        23     1      118.993851      271.777154    ;  uncertainty theta = 0.003002, k = 0.126930
         5         6         7     1      108.489151      609.859498    ;  uncertainty theta = 0.006708, k = 0.153554
         5         6         9     1      108.739243      607.424790    ;  uncertainty theta = 0.005539, k = 0.123041
         5         6        24     1      104.951050      460.064241    ;  uncertainty theta = 0.003041, k = 0.151080
         6         7         8     1      109.006836      665.478684    ;  uncertainty theta = 0.006799, k = 0.200813
         6         7        15     1      108.963562      543.106898    ;  uncertainty theta = 0.001960, k = 0.150770
         6         7        25     1      107.739502      378.540977    ;  uncertainty theta = 0.003350, k = 0.116138
         6         9        10     1      109.305786      670.963991    ;  uncertainty theta = 0.003376, k = 0.184685
         6         9        11     1      109.085403      550.833981    ;  uncertainty theta = 0.003109, k = 0.083650
         6         9        27     1      107.334274      380.446748    ;  uncertainty theta = 0.003537, k = 0.100456
         7         6         9     1      109.017845      555.549983    ;  uncertainty theta = 0.004346, k = 0.211843
         7         6        24     1      107.680824      392.764190    ;  uncertainty theta = 0.002496, k = 0.068774
         7         8        26     1      107.738342      464.297017    ;  uncertainty theta = 0.001111, k = 0.064721
         7        15        14     1      109.329178      613.859822    ;  uncertainty theta = 0.003845, k = 0.207721
         7        15        16     1      109.276794      472.352762    ;  uncertainty theta = 0.003541, k = 0.185259
         7        15        33     1      109.789139      376.594411    ;  uncertainty theta = 0.003445, k = 0.064049
         8         7        15     1      108.751869      695.476934    ;  uncertainty theta = 0.004518, k = 0.195360
         8         7        25     1      108.464233      469.798604    ;  uncertainty theta = 0.000985, k = 0.059230
         9         6        24     1      107.892044      392.713179    ;  uncertainty theta = 0.001711, k = 0.068439
         9        10        28     1      107.735207      463.269914    ;  uncertainty theta = 0.000463, k = 0.071624
         9        11        12     1      110.619675      536.827451    ;  uncertainty theta = 0.003047, k = 0.044496
         9        11        14     1      108.464928      617.827076    ;  uncertainty theta = 0.003259, k = 0.135769
         9        11        29     1      107.915344      383.395997    ;  uncertainty theta = 0.002933, k = 0.008098
        10         9        11     1      108.664330      684.054888    ;  uncertainty theta = 0.003176, k = 0.109786
        10         9        27     1      108.417618      469.024606    ;  uncertainty theta = 0.000812, k = 0.043732
        11         9        27     1      108.204239      382.143370    ;  uncertainty theta = 0.002080, k = 0.061683
        11        12        13     1      110.168129      716.776224    ;  uncertainty theta = 0.001875, k = 0.128387
        11        12        30     1      107.923988      394.631623    ;  uncertainty theta = 0.001881, k = 0.054203
        11        12        31     1      107.923988      394.631623    ;  uncertainty theta = 0.001881, k = 0.054203
        11        14        15     1      109.179161      507.510722    ;  uncertainty theta = 0.006739, k = 0.158124
        12        11        14     1      105.910133      561.353674    ;  uncertainty theta = 0.003507, k = 0.091813
        12        11        29     1      108.719131      396.919716    ;  uncertainty theta = 0.003871, k = 0.046746
        12        13        32     1      107.223572      450.200245    ;  uncertainty theta = 0.001789, k = 0.036471
        13        12        30     1      108.661911      477.517993    ;  uncertainty theta = 0.000920, k = 0.032620
        13        12        31     1      108.661911      477.517993    ;  uncertainty theta = 0.000920, k = 0.032620
        14        11        29     1      107.155716      448.878476    ;  uncertainty theta = 0.002856, k = 0.118174
        14        15        16     1      108.488548      600.802060    ;  uncertainty theta = 0.005721, k = 0.267014
        14        15        33     1      107.581078      454.886975    ;  uncertainty theta = 0.003084, k = 0.162160
        15         7        25     1      108.036217      382.649675    ;  uncertainty theta = 0.001208, k = 0.065214
        15        16        17     1       98.071030      620.356016    ;  uncertainty theta = 0.003494, k = 0.101606
        16        15        33     1      106.804665      347.470743    ;  uncertainty theta = 0.004979, k = 0.169894
        16        17        18     1      122.596115      363.243706    ;  uncertainty theta = 0.004725, k = 0.050914
        16        17        22     1      122.596115      363.243706    ;  uncertainty theta = 0.004725, k = 0.050914
        17        18        19     1      119.504868      523.522298    ;  uncertainty theta = 0.001632, k = 0.071975
        17        18        34     1      120.291687      280.122011    ;  uncertainty theta = 0.002517, k = 0.047831
        17        22        21     1      119.504868      523.522298    ;  uncertainty theta = 0.001632, k = 0.071975
        17        22        37     1      120.291687      280.122011    ;  uncertainty theta = 0.002517, k = 0.047831
        18        17        22     1      119.364830      413.056966    ;  uncertainty theta = 0.002836, k = 0.076384
        18        19        20     1      121.433670      521.891019    ;  uncertainty theta = 0.001255, k = 0.060016
        18        19        35     1      119.655823      287.521580    ;  uncertainty theta = 0.001168, k = 0.024751
        19        18        34     1      120.399857      289.970493    ;  uncertainty theta = 0.001680, k = 0.045815
        19        20        21     1      118.352539      470.446065    ;  uncertainty theta = 0.001842, k = 0.119193
        19        20        38     1      120.748802      431.769794    ;  uncertainty theta = 0.001285, k = 0.023615
        20        19        35     1      119.443199      279.848828    ;  uncertainty theta = 0.001504, k = 0.086733
        20        21        22     1      121.433678      521.891019    ;  uncertainty theta = 0.001255, k = 0.060016
        20        21        36     1      119.443199      279.848828    ;  uncertainty theta = 0.001504, k = 0.086733
        20        38        39     1      109.896507      397.950585    ;  uncertainty theta = 0.001093, k = 0.021393
        20        38        40     1      109.896507      397.950585    ;  uncertainty theta = 0.001093, k = 0.021393
        20        38        41     1      109.896507      397.950585    ;  uncertainty theta = 0.001093, k = 0.021393
        21        20        38     1      120.748802      431.769794    ;  uncertainty theta = 0.001285, k = 0.023615
        21        22        37     1      120.399857      289.970493    ;  uncertainty theta = 0.001680, k = 0.045815
        22        21        36     1      119.655823      287.521580    ;  uncertainty theta = 0.001168, k = 0.024751
        30        12        31     1      107.726463      326.410991    ;  uncertainty theta = 0.001745, k = 0.070753
        39        38        40     1      106.736984      316.781394    ;  uncertainty theta = 0.000965, k = 0.019303
        39        38        41     1      106.736984      316.781394    ;  uncertainty theta = 0.000965, k = 0.019303
        40        38        41     1      106.736984      316.781394    ;  uncertainty theta = 0.000965, k = 0.019303
        42        43        44     1      104.823265      785.744615    ;  uncertainty theta = 0.004001, k = 0.257192
        42        46        45     1      104.337624      895.348931    ;  uncertainty theta = 0.002817, k = 0.120954
        42        46        49     1      119.308975      279.754022    ;  uncertainty theta = 0.004198, k = 0.180786
        43        42        46     1      112.403320      839.971773    ;  uncertainty theta = 0.001188, k = 0.093356
        43        44        45     1      110.843246      923.154948    ;  uncertainty theta = 0.001770, k = 0.146537
        43        44        48     1      119.401016      285.509160    ;  uncertainty theta = 0.003745, k = 0.161493
        44        45        46     1      106.494400      766.622491    ;  uncertainty theta = 0.002196, k = 0.108470
        44        45        47     1      130.422791      239.137105    ;  uncertainty theta = 0.004453, k = 0.082222
        45        44        48     1      126.002174      242.858213    ;  uncertainty theta = 0.004532, k = 0.065194
        45        46        49     1      116.340370      286.047036    ;  uncertainty theta = 0.007729, k = 0.212739
        46        45        47     1      118.869728      279.859330    ;  uncertainty theta = 0.002698, k = 0.051758

[ dihedrals ] ; propers for gromacs 4.5 or higher, use funct 9
;       ai        aj        ak        al funct           phase               k        pn
         1         2         3         5     9        0.000000       -1.294888         1    ;  uncertainty k = 1.967572
         1         2         3         5     9      180.000000       32.387605         2    ;  uncertainty k = 0.791011
         1         2         3         5     9        0.000000       -7.953780         3    ;  uncertainty k = 3.878915
         1         2         3         5     9      180.000000        2.354634         4    ;  uncertainty k = 0.537204
         1         4         5         3     9        0.000000       -0.215001         1    ;  uncertainty k = 0.568437
         1         4         5         3     9      180.000000       16.514519         2    ;  uncertainty k = 0.647795
         1         4         5         3     9        0.000000       -9.605813         3    ;  uncertainty k = 0.326419
         1         4         5         3     9      180.000000        1.367015         4    ;  uncertainty k = 0.527886
         1         4         5         6     9        0.000000        1.097255         1    ;  uncertainty k = 0.346406
         1         4         5         6     9      180.000000       10.981049         2    ;  uncertainty k = 0.644635
         1         4         5         6     9        0.000000        1.968111         3    ;  uncertainty k = 0.589700
         1         4         5         6     9      180.000000       -0.194226         4    ;  uncertainty k = 0.121838
         1        42        43        44     9        0.000000       -0.234470         1    ;  uncertainty k = 1.245672
         1        42        43        44     9      180.000000       19.776115         2    ;  uncertainty k = 0.330372
         1        42        43        44     9        0.000000        1.341212         3    ;  uncertainty k = 0.350069
         1        42        43        44     9      180.000000        1.204020         4    ;  uncertainty k = 0.211526
         1        42        46        45     9        0.000000        0.802290         1    ;  uncertainty k = 1.036028
         1        42        46        45     9      180.000000       10.646877         2    ;  uncertainty k = 0.444446
         1        42        46        45     9        0.000000        0.843416         3    ;  uncertainty k = 0.522629
         1        42        46        45     9      180.000000       -0.016499         4    ;  uncertainty k = 0.219830
         1        42        46        49     9        0.000000        1.095976         1    ;  uncertainty k = 1.104568
         1        42        46        49     9      180.000000        3.639920         2    ;  uncertainty k = 1.187596
         1        42        46        49     9        0.000000        1.377098         3    ;  uncertainty k = 0.480552
         1        42        46        49     9      180.000000       -0.026139         4    ;  uncertainty k = 0.269637
         2         1         4         5     9        0.000000       -0.212647         1    ;  uncertainty k = 0.815485
         2         1         4         5     9      180.000000       19.765320         2    ;  uncertainty k = 0.524243
         2         1         4         5     9        0.000000      -11.251650         3    ;  uncertainty k = 0.280580
         2         1         4         5     9      180.000000        1.819293         4    ;  uncertainty k = 0.721091
         2         1         4        23     9        0.000000        0.150381         1    ;  uncertainty k = 0.526951
         2         1         4        23     9      180.000000       12.009588         2    ;  uncertainty k = 0.508826
         2         1         4        23     9        0.000000        1.508587         3    ;  uncertainty k = 0.595471
         2         1         4        23     9      180.000000        0.752202         4    ;  uncertainty k = 0.399595
         2         1        42        43     9        0.000000       -2.656568         1    ;  uncertainty k = 1.159459
         2         1        42        43     9      180.000000        3.132697         2    ;  uncertainty k = 0.306437
         2         1        42        43     9        0.000000        1.265838         3    ;  uncertainty k = 0.515974
         2         1        42        43     9      180.000000       -0.115518         4    ;  uncertainty k = 0.168822
         2         1        42        46     9        0.000000        1.008372         1    ;  uncertainty k = 0.679989
         2         1        42        46     9      180.000000        2.920446         2    ;  uncertainty k = 0.312441
         2         1        42        46     9        0.000000        0.514084         3    ;  uncertainty k = 0.450639
         2         1        42        46     9      180.000000        0.032424         4    ;  uncertainty k = 0.160029
         2         3         5         4     9        0.000000       -0.028341         1    ;  uncertainty k = 0.543786
         2         3         5         4     9      180.000000       21.667503         2    ;  uncertainty k = 0.268680
         2         3         5         4     9        0.000000       -8.629799         3    ;  uncertainty k = 1.544707
         2         3         5         4     9      180.000000        1.709271         4    ;  uncertainty k = 0.514842
         2         3         5         6     9        0.000000        0.064509         1    ;  uncertainty k = 1.768648
         2         3         5         6     9      180.000000       20.223870         2    ;  uncertainty k = 0.233111
         2         3         5         6     9        0.000000        2.164959         3    ;  uncertainty k = 0.739374
         2         3         5         6     9      180.000000       -0.035109         4    ;  uncertainty k = 0.175163
         3         2         1         4     9        0.000000       -0.088296         1    ;  uncertainty k = 0.359360
         3         2         1         4     9      180.000000       17.945096         2    ;  uncertainty k = 0.677263
         3         2         1         4     9        0.000000       -6.831956         3    ;  uncertainty k = 0.326950
         3         2         1         4     9      180.000000        2.186012         4    ;  uncertainty k = 0.495306
         3         2         1        42     9        0.000000        0.332589         1    ;  uncertainty k = 0.849560
         3         2         1        42     9      180.000000       18.567462         2    ;  uncertainty k = 0.237512
         3         2         1        42     9        0.000000        1.448482         3    ;  uncertainty k = 0.694072
         3         2         1        42     9      180.000000        1.111090         4    ;  uncertainty k = 0.246364
         3         5         4        23     9        0.000000        1.320181         1    ;  uncertainty k = 0.747428
         3         5         4        23     9      180.000000       12.722760         2    ;  uncertainty k = 0.646391
         3         5         4        23     9        0.000000        1.410732         3    ;  uncertainty k = 0.344173
         3         5         4        23     9      180.000000        0.161160         4    ;  uncertainty k = 0.320580
         3         5         6         7     9        0.000000        0.014516         1    ;  uncertainty k = 0.724427
         3         5         6         7     9      180.000000        0.105032         2    ;  uncertainty k = 0.301614
         3         5         6         7     9        0.000000        0.317993         3    ;  uncertainty k = 0.121217
         3         5         6         7     9      180.000000        0.113565         4    ;  uncertainty k = 0.087597
         3         5         6         9     9        0.000000       -0.075544         1    ;  uncertainty k = 0.820467
         3         5         6         9     9      180.000000        0.109026         2    ;  uncertainty k = 0.265300
         3         5         6         9     9        0.000000        0.310219         3    ;  uncertainty k = 0.149368
         3         5         6         9     9      180.000000        0.123090         4    ;  uncertainty k = 0.082210
         3         5         6        24     9        0.000000        0.677716         1    ;  uncertainty k = 0.945040
         3         5         6        24     9      180.000000        0.384156         2    ;  uncertainty k = 0.322388
         3         5         6        24     9        0.000000        0.536859         3    ;  uncertainty k = 0.228341
         3         5         6        24     9      180.000000        0.253803         4    ;  uncertainty k = 0.111929
         4         1        42        43     9        0.000000        2.045844         1    ;  uncertainty k = 0.591775
         4         1        42        43     9      180.000000        2.543681         2    ;  uncertainty k = 0.287823
         4         1        42        43     9        0.000000        0.704086         3    ;  uncertainty k = 0.270222
         4         1        42        43     9      180.000000        0.030098         4    ;  uncertainty k = 0.160302
         4         1        42        46     9        0.000000        0.737737         1    ;  uncertainty k = 0.683312
         4         1        42        46     9      180.000000        2.757446         2    ;  uncertainty k = 0.272857
         4         1        42        46     9        0.000000        0.967094         3    ;  uncertainty k = 0.322942
         4         1        42        46     9      180.000000       -0.116947         4    ;  uncertainty k = 0.187708
         4         5         6         7     9        0.000000       -0.336991         1    ;  uncertainty k = 0.766434
         4         5         6         7     9      180.000000        0.225323         2    ;  uncertainty k = 0.218388
         4         5         6         7     9        0.000000        0.626451         3    ;  uncertainty k = 0.194654
         4         5         6         7     9      180.000000        0.142310         4    ;  uncertainty k = 0.163468
         4         5         6         9     9        0.000000       -0.324541         1    ;  uncertainty k = 0.742336
         4         5         6         9     9      180.000000        0.235692         2    ;  uncertainty k = 0.183796
         4         5         6         9     9        0.000000        0.631137         3    ;  uncertainty k = 0.180456
         4         5         6         9     9      180.000000        0.143713         4    ;  uncertainty k = 0.160909
         4         5         6        24     9        0.000000       -1.513898         1    ;  uncertainty k = 0.541258
         4         5         6        24     9      180.000000        0.329603         2    ;  uncertainty k = 0.445311
         4         5         6        24     9        0.000000        0.726333         3    ;  uncertainty k = 0.258366
         4         5         6        24     9      180.000000        0.199165         4    ;  uncertainty k = 0.045878
         5         4         1        42     9        0.000000        0.809881         1    ;  uncertainty k = 0.753556
         5         4         1        42     9      180.000000       13.738173         2    ;  uncertainty k = 0.209689
         5         4         1        42     9        0.000000        1.038831         3    ;  uncertainty k = 0.927850
         5         4         1        42     9      180.000000        0.836568         4    ;  uncertainty k = 0.159560
         5         6         7         8     9        0.000000       -0.099840         1    ;  uncertainty k = 0.816161
         5         6         7         8     9      180.000000       -1.695064         2    ;  uncertainty k = 1.016312
         5         6         7         8     9        0.000000        1.227491         3    ;  uncertainty k = 0.364915
         5         6         7         8     9      180.000000        0.165702         4    ;  uncertainty k = 0.162937
         5         6         7        15     9        0.000000       -1.914089         1    ;  uncertainty k = 1.547643
         5         6         7        15     9      180.000000        0.035257         2    ;  uncertainty k = 0.807413
         5         6         7        15     9        0.000000        0.331049         3    ;  uncertainty k = 0.194171
         5         6         7        15     9      180.000000        0.050665         4    ;  uncertainty k = 0.110155
         5         6         7        25     9        0.000000        2.278225         1    ;  uncertainty k = 0.957569
         5         6         7        25     9      180.000000       -1.216892         2    ;  uncertainty k = 0.646407
         5         6         7        25     9        0.000000        0.377307         3    ;  uncertainty k = 0.208131
         5         6         7        25     9      180.000000       -0.067514         4    ;  uncertainty k = 0.196936
         5         6         9        10     9        0.000000       -0.315383         1    ;  uncertainty k = 1.016891
         5         6         9        10     9      180.000000       -1.775901         2    ;  uncertainty k = 0.991859
         5         6         9        10     9        0.000000        1.277487         3    ;  uncertainty k = 0.376734
         5         6         9        10     9      180.000000        0.169863         4    ;  uncertainty k = 0.170583
         5         6         9        11     9        0.000000       -2.465152         1    ;  uncertainty k = 1.232877
         5         6         9        11     9      180.000000        0.324381         2    ;  uncertainty k = 0.788718
         5         6         9        11     9        0.000000        0.399909         3    ;  uncertainty k = 0.177045
         5         6         9        11     9      180.000000        0.014885         4    ;  uncertainty k = 0.156299
         5         6         9        27     9        0.000000        2.337698         1    ;  uncertainty k = 0.887378
         5         6         9        27     9      180.000000       -1.284272         2    ;  uncertainty k = 0.671094
         5         6         9        27     9        0.000000        0.353402         3    ;  uncertainty k = 0.217219
         5         6         9        27     9      180.000000       -0.063409         4    ;  uncertainty k = 0.193591
         6         5         4        23     9        0.000000       -0.170344         1    ;  uncertainty k = 0.482167
         6         5         4        23     9      180.000000        3.886997         2    ;  uncertainty k = 0.485983
         6         5         4        23     9        0.000000        1.173938         3    ;  uncertainty k = 0.382560
         6         5         4        23     9      180.000000        0.048307         4    ;  uncertainty k = 0.174767
         6         7         8        26     9        0.000000       19.039124         1    ;  uncertainty k = 0.345153
         6         7         8        26     9      180.000000       -4.420828         2    ;  uncertainty k = 0.689830
         6         7         8        26     9        0.000000        1.320157         3    ;  uncertainty k = 0.147286
         6         7         8        26     9      180.000000        0.341085         4    ;  uncertainty k = 0.134436
         6         7        15        14     9        0.000000        2.474201         1    ;  uncertainty k = 1.474957
         6         7        15        14     9      180.000000       -0.994678         2    ;  uncertainty k = 0.524371
         6         7        15        14     9        0.000000        0.317589         3    ;  uncertainty k = 0.155922
         6         7        15        14     9      180.000000       -0.304460         4    ;  uncertainty k = 0.208124
         6         7        15        16     9        0.000000        4.941749         1    ;  uncertainty k = 2.502557
         6         7        15        16     9      180.000000       -2.238276         2    ;  uncertainty k = 1.272838
         6         7        15        16     9        0.000000       -0.074658         3    ;  uncertainty k = 0.452202
         6         7        15        16     9      180.000000        0.245986         4    ;  uncertainty k = 0.382553
         6         7        15        33     9        0.000000        1.846484         1    ;  uncertainty k = 1.045892
         6         7        15        33     9      180.000000       -1.924081         2    ;  uncertainty k = 0.721830
         6         7        15        33     9        0.000000       -0.575800         3    ;  uncertainty k = 0.257923
         6         7        15        33     9      180.000000       -0.003854         4    ;  uncertainty k = 0.220883
         6         9        10        28     9        0.000000       18.952765         1    ;  uncertainty k = 0.311547
         6         9        10        28     9      180.000000       -4.586190         2    ;  uncertainty k = 0.579882
         6         9        10        28     9        0.000000        1.334230         3    ;  uncertainty k = 0.130015
         6         9        10        28     9      180.000000        0.345176         4    ;  uncertainty k = 0.144687
         6         9        11        12     9        0.000000       -1.308713         1    ;  uncertainty k = 0.869702
         6         9        11        12     9      180.000000        0.094262         2    ;  uncertainty k = 0.478169
         6         9        11        12     9        0.000000       -0.367831         3    ;  uncertainty k = 0.241924
         6         9        11        12     9      180.000000       -0.399652         4    ;  uncertainty k = 0.145738
         6         9        11        14     9        0.000000        3.551725         1    ;  uncertainty k = 0.894045
         6         9        11        14     9      180.000000       -2.208435         2    ;  uncertainty k = 0.359172
         6         9        11        14     9        0.000000        0.326059         3    ;  uncertainty k = 0.294258
         6         9        11        14     9      180.000000       -0.285779         4    ;  uncertainty k = 0.284707
         6         9        11        29     9        0.000000        2.035658         1    ;  uncertainty k = 1.132995
         6         9        11        29     9      180.000000       -2.349109         2    ;  uncertainty k = 0.563071
         6         9        11        29     9        0.000000       -0.762911         3    ;  uncertainty k = 0.211670
         6         9        11        29     9      180.000000        0.143404         4    ;  uncertainty k = 0.155147
         7         6         9        10     9        0.000000       -3.450932         1    ;  uncertainty k = 1.264260
         7         6         9        10     9      180.000000        0.306731         2    ;  uncertainty k = 0.567788
         7         6         9        10     9        0.000000        0.393950         3    ;  uncertainty k = 0.364522
         7         6         9        10     9      180.000000        0.151790         4    ;  uncertainty k = 0.175021
         7         6         9        11     9        0.000000        0.873750         1    ;  uncertainty k = 2.282474
         7         6         9        11     9      180.000000       -0.221239         2    ;  uncertainty k = 1.293849
         7         6         9        11     9        0.000000       -0.344129         3    ;  uncertainty k = 0.575667
         7         6         9        11     9      180.000000       -1.183141         4    ;  uncertainty k = 0.285762
         7         6         9        27     9        0.000000       -0.712144         1    ;  uncertainty k = 0.769906
         7         6         9        27     9      180.000000       -0.385373         2    ;  uncertainty k = 0.311284
         7         6         9        27     9        0.000000       -0.334481         3    ;  uncertainty k = 0.125078
         7         6         9        27     9      180.000000       -0.139996         4    ;  uncertainty k = 0.056740
         7        15        14        11     9        0.000000        0.917470         1    ;  uncertainty k = 0.954609
         7        15        14        11     9      180.000000       -1.288452         2    ;  uncertainty k = 0.653278
         7        15        14        11     9        0.000000       -0.220560         3    ;  uncertainty k = 0.269291
         7        15        14        11     9      180.000000        0.068427         4    ;  uncertainty k = 0.310172
         7        15        16        17     9        0.000000        2.007748         1    ;  uncertainty k = 1.077285
         7        15        16        17     9      180.000000       -1.565577         2    ;  uncertainty k = 0.676593
         7        15        16        17     9        0.000000        0.919131         3    ;  uncertainty k = 0.274750
         7        15        16        17     9      180.000000        0.227517         4    ;  uncertainty k = 0.084913
         8         7         6         9     9        0.000000       -3.581542         1    ;  uncertainty k = 1.031963
         8         7         6         9     9      180.000000        0.411053         2    ;  uncertainty k = 0.566427
         8         7         6         9     9        0.000000        0.367590         3    ;  uncertainty k = 0.368667
         8         7         6         9     9      180.000000        0.156016         4    ;  uncertainty k = 0.234642
         8         7         6        24     9        0.000000       -0.277363         1    ;  uncertainty k = 0.256261
         8         7         6        24     9      180.000000       -0.077869         2    ;  uncertainty k = 0.366585
         8         7         6        24     9        0.000000        0.607276         3    ;  uncertainty k = 0.240323
         8         7         6        24     9      180.000000       -0.047719         4    ;  uncertainty k = 0.122992
         8         7        15        14     9        0.000000       -2.698621         1    ;  uncertainty k = 1.293589
         8         7        15        14     9      180.000000       -0.125900         2    ;  uncertainty k = 1.044604
         8         7        15        14     9        0.000000        1.801831         3    ;  uncertainty k = 0.166031
         8         7        15        14     9      180.000000       -0.136263         4    ;  uncertainty k = 0.170447
         8         7        15        16     9        0.000000        5.310159         1    ;  uncertainty k = 0.577732
         8         7        15        16     9      180.000000       -1.858820         2    ;  uncertainty k = 0.847232
         8         7        15        16     9        0.000000        1.450881         3    ;  uncertainty k = 0.493019
         8         7        15        16     9      180.000000        0.366462         4    ;  uncertainty k = 0.119783
         8         7        15        33     9        0.000000       -0.793494         1    ;  uncertainty k = 0.377453
         8         7        15        33     9      180.000000        0.444309         2    ;  uncertainty k = 0.325823
         8         7        15        33     9        0.000000        0.779019         3    ;  uncertainty k = 0.275482
         8         7        15        33     9      180.000000       -0.005974         4    ;  uncertainty k = 0.167622
         9         6         7        15     9        0.000000        1.882185         1    ;  uncertainty k = 3.196350
         9         6         7        15     9      180.000000       -0.080201         2    ;  uncertainty k = 1.464730
         9         6         7        15     9        0.000000       -0.302109         3    ;  uncertainty k = 0.422345
         9         6         7        15     9      180.000000       -1.166079         4    ;  uncertainty k = 0.225549
         9         6         7        25     9        0.000000       -0.660046         1    ;  uncertainty k = 0.822850
         9         6         7        25     9      180.000000       -0.335425         2    ;  uncertainty k = 0.296526
         9         6         7        25     9        0.000000       -0.318954         3    ;  uncertainty k = 0.088200
         9         6         7        25     9      180.000000       -0.125094         4    ;  uncertainty k = 0.064770
         9        11        12        13     9        0.000000       -3.500645         1    ;  uncertainty k = 0.864914
         9        11        12        13     9      180.000000       -0.040227         2    ;  uncertainty k = 0.302685
         9        11        12        13     9        0.000000        1.496269         3    ;  uncertainty k = 0.173304
         9        11        12        13     9      180.000000       -0.330862         4    ;  uncertainty k = 0.160910
         9        11        12        30     9        0.000000       -0.389752         1    ;  uncertainty k = 0.566702
         9        11        12        30     9      180.000000       -0.633416         2    ;  uncertainty k = 0.206369
         9        11        12        30     9        0.000000        0.100397         3    ;  uncertainty k = 0.128757
         9        11        12        30     9      180.000000       -0.241270         4    ;  uncertainty k = 0.092306
         9        11        12        31     9        0.000000       -0.389752         1    ;  uncertainty k = 0.566702
         9        11        12        31     9      180.000000       -0.633416         2    ;  uncertainty k = 0.206369
         9        11        12        31     9        0.000000        0.100397         3    ;  uncertainty k = 0.128757
         9        11        12        31     9      180.000000       -0.241270         4    ;  uncertainty k = 0.092306
         9        11        14        15     9        0.000000        1.710819         1    ;  uncertainty k = 1.967719
         9        11        14        15     9      180.000000       -2.820808         2    ;  uncertainty k = 0.590799
         9        11        14        15     9        0.000000       -0.265511         3    ;  uncertainty k = 0.316061
         9        11        14        15     9      180.000000        0.030797         4    ;  uncertainty k = 0.180924
        10         9         6        24     9        0.000000       -0.321276         1    ;  uncertainty k = 0.176896
        10         9         6        24     9      180.000000       -0.102918         2    ;  uncertainty k = 0.359202
        10         9         6        24     9        0.000000        0.594499         3    ;  uncertainty k = 0.215544
        10         9         6        24     9      180.000000       -0.061229         4    ;  uncertainty k = 0.114446
        10         9        11        12     9        0.000000       -2.146249         1    ;  uncertainty k = 0.952515
        10         9        11        12     9      180.000000        0.106301         2    ;  uncertainty k = 0.229016
        10         9        11        12     9        0.000000        0.807370         3    ;  uncertainty k = 0.172859
        10         9        11        12     9      180.000000       -0.255912         4    ;  uncertainty k = 0.234311
        10         9        11        14     9        0.000000       -3.683487         1    ;  uncertainty k = 1.032183
        10         9        11        14     9      180.000000       -0.908155         2    ;  uncertainty k = 0.571417
        10         9        11        14     9        0.000000        2.093692         3    ;  uncertainty k = 0.314978
        10         9        11        14     9      180.000000       -0.114035         4    ;  uncertainty k = 0.099391
        10         9        11        29     9        0.000000       -0.332347         1    ;  uncertainty k = 0.439850
        10         9        11        29     9      180.000000       -0.000255         2    ;  uncertainty k = 0.271243
        10         9        11        29     9        0.000000        0.580127         3    ;  uncertainty k = 0.193597
        10         9        11        29     9      180.000000       -0.095134         4    ;  uncertainty k = 0.183032
        11         9         6        24     9        0.000000       -1.472333         1    ;  uncertainty k = 0.757945
        11         9         6        24     9      180.000000       -0.387291         2    ;  uncertainty k = 0.427911
        11         9         6        24     9        0.000000       -0.386086         3    ;  uncertainty k = 0.127943
        11         9         6        24     9      180.000000       -0.123413         4    ;  uncertainty k = 0.108974
        11         9        10        28     9        0.000000       18.553540         1    ;  uncertainty k = 0.350139
        11         9        10        28     9      180.000000       -4.302102         2    ;  uncertainty k = 0.320512
        11         9        10        28     9        0.000000        1.261962         3    ;  uncertainty k = 0.099603
        11         9        10        28     9      180.000000        0.432553         4    ;  uncertainty k = 0.084339
        11        12        13        32     9        0.000000       12.803371         1    ;  uncertainty k = 0.176801
        11        12        13        32     9      180.000000       -4.408763         2    ;  uncertainty k = 0.479248
        11        12        13        32     9        0.000000        1.225569         3    ;  uncertainty k = 0.219872
        11        12        13        32     9      180.000000        0.130954         4    ;  uncertainty k = 0.066305
        11        14        15        16     9        0.000000       -2.926971         1    ;  uncertainty k = 3.130055
        11        14        15        16     9      180.000000       -2.564676         2    ;  uncertainty k = 1.420082
        11        14        15        16     9        0.000000        0.716063         3    ;  uncertainty k = 0.197310
        11        14        15        16     9      180.000000       -0.095130         4    ;  uncertainty k = 0.349354
        11        14        15        33     9        0.000000       -1.916764         1    ;  uncertainty k = 0.747113
        11        14        15        33     9      180.000000        0.286798         2    ;  uncertainty k = 0.756983
        11        14        15        33     9        0.000000        0.238864         3    ;  uncertainty k = 0.128323
        11        14        15        33     9      180.000000       -0.367195         4    ;  uncertainty k = 0.168117
        12        11         9        27     9        0.000000       -1.151783         1    ;  uncertainty k = 0.623435
        12        11         9        27     9      180.000000        0.138239         2    ;  uncertainty k = 0.201798
        12        11         9        27     9        0.000000       -0.215346         3    ;  uncertainty k = 0.154972
        12        11         9        27     9      180.000000       -0.318334         4    ;  uncertainty k = 0.121552
        12        11        14        15     9        0.000000       -4.857638         1    ;  uncertainty k = 1.137696
        12        11        14        15     9      180.000000        0.917053         2    ;  uncertainty k = 0.617072
        12        11        14        15     9        0.000000        0.320186         3    ;  uncertainty k = 0.288726
        12        11        14        15     9      180.000000       -0.125902         4    ;  uncertainty k = 0.250358
        13        12        11        14     9        0.000000       -1.195280         1    ;  uncertainty k = 0.547640
        13        12        11        14     9      180.000000       -3.298099         2    ;  uncertainty k = 0.199322
        13        12        11        14     9        0.000000        2.717044         3    ;  uncertainty k = 0.305228
        13        12        11        14     9      180.000000       -0.208307         4    ;  uncertainty k = 0.128814
        13        12        11        29     9        0.000000       -2.028010         1    ;  uncertainty k = 0.722924
        13        12        11        29     9      180.000000        0.685399         2    ;  uncertainty k = 0.313942
        13        12        11        29     9        0.000000        1.166981         3    ;  uncertainty k = 0.311765
        13        12        11        29     9      180.000000       -0.195732         4    ;  uncertainty k = 0.045240
        14        11         9        27     9        0.000000       -0.095707         1    ;  uncertainty k = 0.475472
        14        11         9        27     9      180.000000       -0.600072         2    ;  uncertainty k = 0.320846
        14        11         9        27     9        0.000000        0.248942         3    ;  uncertainty k = 0.333119
        14        11         9        27     9      180.000000        0.105109         4    ;  uncertainty k = 0.089467
        14        11        12        30     9        0.000000        0.526900         1    ;  uncertainty k = 0.329165
        14        11        12        30     9      180.000000       -1.466090         2    ;  uncertainty k = 0.305903
        14        11        12        30     9        0.000000        0.270792         3    ;  uncertainty k = 0.233657
        14        11        12        30     9      180.000000       -0.091616         4    ;  uncertainty k = 0.101291
        14        11        12        31     9        0.000000        0.526900         1    ;  uncertainty k = 0.329165
        14        11        12        31     9      180.000000       -1.466090         2    ;  uncertainty k = 0.305903
        14        11        12        31     9        0.000000        0.270792         3    ;  uncertainty k = 0.233657
        14        11        12        31     9      180.000000       -0.091616         4    ;  uncertainty k = 0.101291
        14        15         7        25     9        0.000000       -0.162108         1    ;  uncertainty k = 0.690391
        14        15         7        25     9      180.000000       -0.679322         2    ;  uncertainty k = 0.276900
        14        15         7        25     9        0.000000        0.226951         3    ;  uncertainty k = 0.338395
        14        15         7        25     9      180.000000        0.125752         4    ;  uncertainty k = 0.152593
        14        15        16        17     9        0.000000        3.183562         1    ;  uncertainty k = 0.884859
        14        15        16        17     9      180.000000       -5.436577         2    ;  uncertainty k = 0.699848
        14        15        16        17     9        0.000000        1.259612         3    ;  uncertainty k = 0.434034
        14        15        16        17     9      180.000000        0.368477         4    ;  uncertainty k = 0.291496
        15         7         6        24     9        0.000000       -1.226810         1    ;  uncertainty k = 0.720372
        15         7         6        24     9      180.000000       -0.616695         2    ;  uncertainty k = 0.393537
        15         7         6        24     9        0.000000       -0.401072         3    ;  uncertainty k = 0.103608
        15         7         6        24     9      180.000000       -0.116758         4    ;  uncertainty k = 0.090911
        15         7         8        26     9        0.000000       18.425671         1    ;  uncertainty k = 0.339412
        15         7         8        26     9      180.000000       -4.642088         2    ;  uncertainty k = 0.438829
        15         7         8        26     9        0.000000        1.143722         3    ;  uncertainty k = 0.149175
        15         7         8        26     9      180.000000        0.382008         4    ;  uncertainty k = 0.101401
        15        14        11        29     9        0.000000       -2.121900         1    ;  uncertainty k = 0.521152
        15        14        11        29     9      180.000000       -1.268057         2    ;  uncertainty k = 0.577886
        15        14        11        29     9        0.000000        0.231856         3    ;  uncertainty k = 0.127960
        15        14        11        29     9      180.000000       -0.237800         4    ;  uncertainty k = 0.180440
        15        16        17        18     9        0.000000        3.177932         1    ;  uncertainty k = 2.151279
        15        16        17        18     9      180.000000        2.740787         2    ;  uncertainty k = 0.263278
        15        16        17        18     9        0.000000        0.277594         3    ;  uncertainty k = 0.291896
        15        16        17        18     9      180.000000        0.328068         4    ;  uncertainty k = 0.080835
        15        16        17        22     9        0.000000        3.177932         1    ;  uncertainty k = 2.151279
        15        16        17        22     9      180.000000        2.740787         2    ;  uncertainty k = 0.263278
        15        16        17        22     9        0.000000        0.277594         3    ;  uncertainty k = 0.291896
        15        16        17        22     9      180.000000        0.328068         4    ;  uncertainty k = 0.080835
        16        15         7        25     9        0.000000        2.581950         1    ;  uncertainty k = 0.784321
        16        15         7        25     9      180.000000       -1.367223         2    ;  uncertainty k = 0.615574
        16        15         7        25     9        0.000000        0.413421         3    ;  uncertainty k = 0.158680
        16        15         7        25     9      180.000000       -0.024784         4    ;  uncertainty k = 0.117766
        16        17        18        19     9        0.000000        0.062072         1    ;  uncertainty k = 0.417313
        16        17        18        19     9      180.000000        7.419842         2    ;  uncertainty k = 0.519111
        16        17        18        19     9        0.000000        1.109992         3    ;  uncertainty k = 0.330811
        16        17        18        19     9      180.000000        1.700873         4    ;  uncertainty k = 0.103413
        16        17        18        34     9        0.000000       -0.324403         1    ;  uncertainty k = 0.406827
        16        17        18        34     9      180.000000        6.518985         2    ;  uncertainty k = 0.532134
        16        17        18        34     9        0.000000        0.789417         3    ;  uncertainty k = 0.187425
        16        17        18        34     9      180.000000        1.036678         4    ;  uncertainty k = 0.126625
        16        17        22        21     9        0.000000        0.062072         1    ;  uncertainty k = 0.417313
        16        17        22        21     9      180.000000        7.419842         2    ;  uncertainty k = 0.519111
        16        17        22        21     9        0.000000        1.109992         3    ;  uncertainty k = 0.330811
        16        17        22        21     9      180.000000        1.700873         4    ;  uncertainty k = 0.103413
        16        17        22        37     9        0.000000       -0.324403         1    ;  uncertainty k = 0.406827
        16        17        22        37     9      180.000000        6.518985         2    ;  uncertainty k = 0.532134
        16        17        22        37     9        0.000000        0.789417         3    ;  uncertainty k = 0.187425
        16        17        22        37     9      180.000000        1.036678         4    ;  uncertainty k = 0.126625
        17        16        15        33     9        0.000000        4.078705         1    ;  uncertainty k = 1.076481
        17        16        15        33     9      180.000000       -2.455779         2    ;  uncertainty k = 0.835987
        17        16        15        33     9        0.000000        0.554515         3    ;  uncertainty k = 0.127842
        17        16        15        33     9      180.000000       -0.001864         4    ;  uncertainty k = 0.210606
        17        18        19        20     9        0.000000       -0.127263         1    ;  uncertainty k = 0.141698
        17        18        19        20     9      180.000000       14.225482         2    ;  uncertainty k = 0.114156
        17        18        19        20     9        0.000000       -0.985336         3    ;  uncertainty k = 0.627196
        17        18        19        20     9      180.000000        0.658378         4    ;  uncertainty k = 0.330608
        17        18        19        35     9        0.000000       -0.008817         1    ;  uncertainty k = 0.089727
        17        18        19        35     9      180.000000        8.312278         2    ;  uncertainty k = 0.286072
        17        18        19        35     9        0.000000        1.348940         3    ;  uncertainty k = 0.188593
        17        18        19        35     9      180.000000        1.838528         4    ;  uncertainty k = 0.183015
        17        22        21        20     9        0.000000       -0.127263         1    ;  uncertainty k = 0.141698
        17        22        21        20     9      180.000000       14.225482         2    ;  uncertainty k = 0.114156
        17        22        21        20     9        0.000000       -0.985336         3    ;  uncertainty k = 0.627196
        17        22        21        20     9      180.000000        0.658378         4    ;  uncertainty k = 0.330608
        17        22        21        36     9        0.000000       -0.008817         1    ;  uncertainty k = 0.089727
        17        22        21        36     9      180.000000        8.312278         2    ;  uncertainty k = 0.286072
        17        22        21        36     9        0.000000        1.348940         3    ;  uncertainty k = 0.188593
        17        22        21        36     9      180.000000        1.838528         4    ;  uncertainty k = 0.183015
        18        17        22        21     9        0.000000       -0.156871         1    ;  uncertainty k = 0.126213
        18        17        22        21     9      180.000000       10.965607         2    ;  uncertainty k = 0.455519
        18        17        22        21     9        0.000000       -0.528095         3    ;  uncertainty k = 0.423553
        18        17        22        21     9      180.000000        0.857619         4    ;  uncertainty k = 0.432466
        18        17        22        37     9        0.000000        0.072440         1    ;  uncertainty k = 0.376040
        18        17        22        37     9      180.000000        6.562952         2    ;  uncertainty k = 0.763072
        18        17        22        37     9        0.000000        1.445396         3    ;  uncertainty k = 0.299971
        18        17        22        37     9      180.000000        1.585416         4    ;  uncertainty k = 0.178642
        18        19        20        21     9        0.000000       -0.193178         1    ;  uncertainty k = 0.184505
        18        19        20        21     9      180.000000       11.680381         2    ;  uncertainty k = 0.380066
        18        19        20        21     9        0.000000       -0.464248         3    ;  uncertainty k = 0.440275
        18        19        20        21     9      180.000000        0.808662         4    ;  uncertainty k = 0.464268
        18        19        20        38     9        0.000000        0.085947         1    ;  uncertainty k = 0.260078
        18        19        20        38     9      180.000000        9.181143         2    ;  uncertainty k = 0.434375
        18        19        20        38     9        0.000000        1.462752         3    ;  uncertainty k = 0.304781
        18        19        20        38     9      180.000000        1.830171         4    ;  uncertainty k = 0.164748
        19        18        17        22     9        0.000000       -0.156871         1    ;  uncertainty k = 0.126213
        19        18        17        22     9      180.000000       10.965607         2    ;  uncertainty k = 0.455519
        19        18        17        22     9        0.000000       -0.528095         3    ;  uncertainty k = 0.423553
        19        18        17        22     9      180.000000        0.857619         4    ;  uncertainty k = 0.432466
        19        20        21        22     9        0.000000       -0.193178         1    ;  uncertainty k = 0.184505
        19        20        21        22     9      180.000000       11.680381         2    ;  uncertainty k = 0.380066
        19        20        21        22     9        0.000000       -0.464248         3    ;  uncertainty k = 0.440275
        19        20        21        22     9      180.000000        0.808662         4    ;  uncertainty k = 0.464268
        19        20        21        36     9        0.000000        0.033450         1    ;  uncertainty k = 0.124148
        19        20        21        36     9      180.000000        7.140961         2    ;  uncertainty k = 0.383307
        19        20        21        36     9        0.000000        1.479885         3    ;  uncertainty k = 0.375479
        19        20        21        36     9      180.000000        1.615246         4    ;  uncertainty k = 0.151832
        19        20        38        39     9        0.000000        0.024708         1    ;  uncertainty k = 0.037574
        19        20        38        39     9      180.000000        1.245377         2    ;  uncertainty k = 0.103962
        19        20        38        39     9        0.000000        0.346041         3    ;  uncertainty k = 0.034499
        19        20        38        39     9      180.000000        0.177401         4    ;  uncertainty k = 0.012952
        19        20        38        40     9        0.000000        0.024708         1    ;  uncertainty k = 0.037574
        19        20        38        40     9      180.000000        1.245377         2    ;  uncertainty k = 0.103962
        19        20        38        40     9        0.000000        0.346041         3    ;  uncertainty k = 0.034499
        19        20        38        40     9      180.000000        0.177401         4    ;  uncertainty k = 0.012952
        19        20        38        41     9        0.000000        0.024708         1    ;  uncertainty k = 0.037574
        19        20        38        41     9      180.000000        1.245377         2    ;  uncertainty k = 0.103962
        19        20        38        41     9        0.000000        0.346041         3    ;  uncertainty k = 0.034499
        19        20        38        41     9      180.000000        0.177401         4    ;  uncertainty k = 0.012952
        20        19        18        34     9        0.000000        0.124113         1    ;  uncertainty k = 0.209646
        20        19        18        34     9      180.000000        7.646778         2    ;  uncertainty k = 0.344928
        20        19        18        34     9        0.000000        1.407906         3    ;  uncertainty k = 0.235482
        20        19        18        34     9      180.000000        1.836191         4    ;  uncertainty k = 0.152560
        20        21        22        37     9        0.000000        0.124113         1    ;  uncertainty k = 0.209646
        20        21        22        37     9      180.000000        7.646778         2    ;  uncertainty k = 0.344928
        20        21        22        37     9        0.000000        1.407906         3    ;  uncertainty k = 0.235482
        20        21        22        37     9      180.000000        1.836191         4    ;  uncertainty k = 0.152560
        21        20        19        35     9        0.000000        0.033450         1    ;  uncertainty k = 0.124148
        21        20        19        35     9      180.000000        7.140961         2    ;  uncertainty k = 0.383307
        21        20        19        35     9        0.000000        1.479885         3    ;  uncertainty k = 0.375479
        21        20        19        35     9      180.000000        1.615246         4    ;  uncertainty k = 0.151832
        21        20        38        39     9        0.000000        0.024708         1    ;  uncertainty k = 0.037574
        21        20        38        39     9      180.000000        1.245377         2    ;  uncertainty k = 0.103962
        21        20        38        39     9        0.000000        0.346041         3    ;  uncertainty k = 0.034499
        21        20        38        39     9      180.000000        0.177401         4    ;  uncertainty k = 0.012952
        21        20        38        40     9        0.000000        0.024708         1    ;  uncertainty k = 0.037574
        21        20        38        40     9      180.000000        1.245377         2    ;  uncertainty k = 0.103962
        21        20        38        40     9        0.000000        0.346041         3    ;  uncertainty k = 0.034499
        21        20        38        40     9      180.000000        0.177401         4    ;  uncertainty k = 0.012952
        21        20        38        41     9        0.000000        0.024708         1    ;  uncertainty k = 0.037574
        21        20        38        41     9      180.000000        1.245377         2    ;  uncertainty k = 0.103962
        21        20        38        41     9        0.000000        0.346041         3    ;  uncertainty k = 0.034499
        21        20        38        41     9      180.000000        0.177401         4    ;  uncertainty k = 0.012952
        22        17        18        34     9        0.000000        0.072440         1    ;  uncertainty k = 0.376040
        22        17        18        34     9      180.000000        6.562952         2    ;  uncertainty k = 0.763072
        22        17        18        34     9        0.000000        1.445396         3    ;  uncertainty k = 0.299971
        22        17        18        34     9      180.000000        1.585416         4    ;  uncertainty k = 0.178642
        22        21        20        38     9        0.000000        0.085947         1    ;  uncertainty k = 0.260078
        22        21        20        38     9      180.000000        9.181143         2    ;  uncertainty k = 0.434375
        22        21        20        38     9        0.000000        1.462752         3    ;  uncertainty k = 0.304781
        22        21        20        38     9      180.000000        1.830171         4    ;  uncertainty k = 0.164748
        23         4         1        42     9        0.000000       -0.084044         1    ;  uncertainty k = 1.090833
        23         4         1        42     9      180.000000        6.826161         2    ;  uncertainty k = 1.052372
        23         4         1        42     9        0.000000        1.233762         3    ;  uncertainty k = 0.174610
        23         4         1        42     9      180.000000        0.266488         4    ;  uncertainty k = 0.266062
        24         6         7        25     9        0.000000        0.738142         1    ;  uncertainty k = 0.404532
        24         6         7        25     9      180.000000       -0.466936         2    ;  uncertainty k = 0.387651
        24         6         7        25     9        0.000000       -0.165785         3    ;  uncertainty k = 0.332593
        24         6         7        25     9      180.000000       -0.168400         4    ;  uncertainty k = 0.127767
        24         6         9        27     9        0.000000        0.782671         1    ;  uncertainty k = 0.449802
        24         6         9        27     9      180.000000       -0.479510         2    ;  uncertainty k = 0.387871
        24         6         9        27     9        0.000000       -0.193561         3    ;  uncertainty k = 0.312761
        24         6         9        27     9      180.000000       -0.172001         4    ;  uncertainty k = 0.106752
        25         7         8        26     9        0.000000       15.402551         1    ;  uncertainty k = 0.447078
        25         7         8        26     9      180.000000       -1.787025         2    ;  uncertainty k = 0.288762
        25         7         8        26     9        0.000000        0.563549         3    ;  uncertainty k = 0.141418
        25         7         8        26     9      180.000000        0.388149         4    ;  uncertainty k = 0.058640
        25         7        15        33     9        0.000000       -0.190583         1    ;  uncertainty k = 0.256009
        25         7        15        33     9      180.000000       -0.018306         2    ;  uncertainty k = 0.316387
        25         7        15        33     9        0.000000        0.129412         3    ;  uncertainty k = 0.264290
        25         7        15        33     9      180.000000       -0.212594         4    ;  uncertainty k = 0.201546
        27         9        10        28     9        0.000000       15.204568         1    ;  uncertainty k = 0.383293
        27         9        10        28     9      180.000000       -2.008800         2    ;  uncertainty k = 0.361223
        27         9        10        28     9        0.000000        0.572217         3    ;  uncertainty k = 0.162951
        27         9        10        28     9      180.000000        0.405645         4    ;  uncertainty k = 0.081230
        27         9        11        29     9        0.000000        0.295960         1    ;  uncertainty k = 0.296986
        27         9        11        29     9      180.000000       -0.050225         2    ;  uncertainty k = 0.461878
        27         9        11        29     9        0.000000       -0.200187         3    ;  uncertainty k = 0.217268
        27         9        11        29     9      180.000000       -0.260240         4    ;  uncertainty k = 0.109658
        29        11        12        30     9        0.000000       -0.167653         1    ;  uncertainty k = 0.174272
        29        11        12        30     9      180.000000       -0.232874         2    ;  uncertainty k = 0.123290
        29        11        12        30     9        0.000000        0.093127         3    ;  uncertainty k = 0.089625
        29        11        12        30     9      180.000000       -0.087467         4    ;  uncertainty k = 0.104346
        29        11        12        31     9        0.000000       -0.167653         1    ;  uncertainty k = 0.174272
        29        11        12        31     9      180.000000       -0.232874         2    ;  uncertainty k = 0.123290
        29        11        12        31     9        0.000000        0.093127         3    ;  uncertainty k = 0.089625
        29        11        12        31     9      180.000000       -0.087467         4    ;  uncertainty k = 0.104346
        30        12        13        32     9        0.000000       10.479494         1    ;  uncertainty k = 0.097216
        30        12        13        32     9      180.000000       -1.870970         2    ;  uncertainty k = 0.389127
        30        12        13        32     9        0.000000        0.826769         3    ;  uncertainty k = 0.020297
        30        12        13        32     9      180.000000        0.085753         4    ;  uncertainty k = 0.063309
        31        12        13        32     9        0.000000       10.479494         1    ;  uncertainty k = 0.097216
        31        12        13        32     9      180.000000       -1.870970         2    ;  uncertainty k = 0.389127
        31        12        13        32     9        0.000000        0.826769         3    ;  uncertainty k = 0.020297
        31        12        13        32     9      180.000000        0.085753         4    ;  uncertainty k = 0.063309
        34        18        19        35     9        0.000000       -0.157292         1    ;  uncertainty k = 0.178485
        34        18        19        35     9      180.000000        7.628097         2    ;  uncertainty k = 0.442866
        34        18        19        35     9        0.000000       -0.477939         3    ;  uncertainty k = 0.282385
        34        18        19        35     9      180.000000        0.148042         4    ;  uncertainty k = 0.156058
        35        19        20        38     9        0.000000       -0.391576         1    ;  uncertainty k = 0.425690
        35        19        20        38     9      180.000000        8.399313         2    ;  uncertainty k = 0.266950
        35        19        20        38     9        0.000000        0.463757         3    ;  uncertainty k = 0.267844
        35        19        20        38     9      180.000000        0.838733         4    ;  uncertainty k = 0.257393
        36        21        20        38     9        0.000000       -0.391576         1    ;  uncertainty k = 0.425690
        36        21        20        38     9      180.000000        8.399313         2    ;  uncertainty k = 0.266950
        36        21        20        38     9        0.000000        0.463757         3    ;  uncertainty k = 0.267844
        36        21        20        38     9      180.000000        0.838733         4    ;  uncertainty k = 0.257393
        36        21        22        37     9        0.000000       -0.157292         1    ;  uncertainty k = 0.178485
        36        21        22        37     9      180.000000        7.628097         2    ;  uncertainty k = 0.442866
        36        21        22        37     9        0.000000       -0.477939         3    ;  uncertainty k = 0.282385
        36        21        22        37     9      180.000000        0.148042         4    ;  uncertainty k = 0.156058
        42        43        44        45     9        0.000000        0.065105         1    ;  uncertainty k = 0.463235
        42        43        44        45     9      180.000000       16.781747         2    ;  uncertainty k = 0.527411
        42        43        44        45     9        0.000000       -7.293987         3    ;  uncertainty k = 0.634712
        42        43        44        45     9      180.000000        2.245284         4    ;  uncertainty k = 0.348905
        42        43        44        48     9        0.000000        0.553687         1    ;  uncertainty k = 0.665690
        42        43        44        48     9      180.000000       12.852875         2    ;  uncertainty k = 0.675982
        42        43        44        48     9        0.000000        1.320126         3    ;  uncertainty k = 0.525049
        42        43        44        48     9      180.000000        0.909485         4    ;  uncertainty k = 0.480261
        42        46        45        44     9        0.000000       -0.724723         1    ;  uncertainty k = 0.279527
        42        46        45        44     9      180.000000       13.320225         2    ;  uncertainty k = 0.888085
        42        46        45        44     9        0.000000      -10.045445         3    ;  uncertainty k = 0.967047
        42        46        45        44     9      180.000000        1.304680         4    ;  uncertainty k = 0.225848
        42        46        45        47     9        0.000000        1.125868         1    ;  uncertainty k = 1.290942
        42        46        45        47     9      180.000000        6.888784         2    ;  uncertainty k = 0.354971
        42        46        45        47     9        0.000000        1.393156         3    ;  uncertainty k = 0.342456
        42        46        45        47     9      180.000000        0.142202         4    ;  uncertainty k = 0.132285
        43        42        46        45     9        0.000000        0.130407         1    ;  uncertainty k = 0.484343
        43        42        46        45     9      180.000000       17.317352         2    ;  uncertainty k = 0.708981
        43        42        46        45     9        0.000000      -10.061392         3    ;  uncertainty k = 1.382331
        43        42        46        45     9      180.000000        1.163040         4    ;  uncertainty k = 0.668546
        43        42        46        49     9        0.000000        3.530229         1    ;  uncertainty k = 2.205737
        43        42        46        49     9      180.000000       12.340379         2    ;  uncertainty k = 0.649787
        43        42        46        49     9        0.000000        2.050016         3    ;  uncertainty k = 0.804407
        43        42        46        49     9      180.000000       -0.370561         4    ;  uncertainty k = 0.123583
        43        44        45        46     9        0.000000       -0.197467         1    ;  uncertainty k = 0.663786
        43        44        45        46     9      180.000000       23.791818         2    ;  uncertainty k = 0.398540
        43        44        45        46     9        0.000000      -11.329807         3    ;  uncertainty k = 0.767960
        43        44        45        46     9      180.000000        1.578906         4    ;  uncertainty k = 0.617139
        43        44        45        47     9        0.000000        0.260610         1    ;  uncertainty k = 0.642641
        43        44        45        47     9      180.000000       15.794945         2    ;  uncertainty k = 0.460144
        43        44        45        47     9        0.000000        1.088106         3    ;  uncertainty k = 0.602062
        43        44        45        47     9      180.000000        0.654763         4    ;  uncertainty k = 0.285349
        44        43        42        46     9        0.000000       -0.218876         1    ;  uncertainty k = 0.401931
        44        43        42        46     9      180.000000       23.179049         2    ;  uncertainty k = 0.331045
        44        43        42        46     9        0.000000       -8.549195         3    ;  uncertainty k = 1.687022
        44        43        42        46     9      180.000000        2.019856         4    ;  uncertainty k = 0.545708
        44        45        46        49     9        0.000000        2.429427         1    ;  uncertainty k = 1.131032
        44        45        46        49     9      180.000000        8.347491         2    ;  uncertainty k = 0.618615
        44        45        46        49     9        0.000000        1.553351         3    ;  uncertainty k = 0.657096
        44        45        46        49     9      180.000000       -0.094666         4    ;  uncertainty k = 0.130293
        46        45        44        48     9        0.000000        0.196684         1    ;  uncertainty k = 0.545571
        46        45        44        48     9      180.000000       14.305601         2    ;  uncertainty k = 0.184462
        46        45        44        48     9        0.000000        1.522990         3    ;  uncertainty k = 0.471999
        46        45        44        48     9      180.000000        0.719200         4    ;  uncertainty k = 0.165750
        47        45        44        48     9        0.000000       -0.470840         1    ;  uncertainty k = 0.303705
        47        45        44        48     9      180.000000        5.417506         2    ;  uncertainty k = 0.664312
        47        45        44        48     9        0.000000        1.209936         3    ;  uncertainty k = 0.414084
        47        45        44        48     9      180.000000        0.261427         4    ;  uncertainty k = 0.105739
        47        45        46        49     9        0.000000       -0.617707         1    ;  uncertainty k = 1.384974
        47        45        46        49     9      180.000000        1.311338         2    ;  uncertainty k = 0.228040
        47        45        46        49     9        0.000000        0.968092         3    ;  uncertainty k = 0.338666
        47        45        46        49     9      180.000000        0.064641         4    ;  uncertainty k = 0.166775

[ dihedrals ] ; impropers
;       ai        aj        ak        al funct           phase               k        pn
         1         2         4        42     4      180.000000        3.565879         2    ;  uncertainty k = 0.864378
         1         4        42         2     4      180.000000        3.565879         2    ;  uncertainty k = 0.864378
         1        42         2         4     4      180.000000        3.565879         2    ;  uncertainty k = 0.864378
         4         1         5        23     4      180.000000        0.592589         2    ;  uncertainty k = 0.683840
         4         5        23         1     4      180.000000        0.592589         2    ;  uncertainty k = 0.683840
         4        23         1         5     4      180.000000        0.592589         2    ;  uncertainty k = 0.683840
        17        16        18        22     4      180.000000       11.790034         2    ;  uncertainty k = 0.101837
        17        18        22        16     4      180.000000       11.790034         2    ;  uncertainty k = 0.101837
        17        22        16        18     4      180.000000       11.790034         2    ;  uncertainty k = 0.101837
        18        17        19        34     4      180.000000        4.631440         2    ;  uncertainty k = 0.175194
        18        19        34        17     4      180.000000        4.631440         2    ;  uncertainty k = 0.175194
        18        34        17        19     4      180.000000        4.631440         2    ;  uncertainty k = 0.175194
        19        18        20        35     4      180.000000        3.995374         2    ;  uncertainty k = 0.157755
        19        20        35        18     4      180.000000        3.995374         2    ;  uncertainty k = 0.157755
        19        35        18        20     4      180.000000        3.995374         2    ;  uncertainty k = 0.157755
        20        19        21        38     4      180.000000       16.407557         2    ;  uncertainty k = 0.051646
        20        21        38        19     4      180.000000       16.407557         2    ;  uncertainty k = 0.051646
        20        38        19        21     4      180.000000       16.407557         2    ;  uncertainty k = 0.051646
        21        20        22        36     4      180.000000        3.995374         2    ;  uncertainty k = 0.157755
        21        22        36        20     4      180.000000        3.995374         2    ;  uncertainty k = 0.157755
        21        36        20        22     4      180.000000        3.995374         2    ;  uncertainty k = 0.157755
        22        17        21        37     4      180.000000        4.631440         2    ;  uncertainty k = 0.175194
        22        21        37        17     4      180.000000        4.631440         2    ;  uncertainty k = 0.175194
        22        37        17        21     4      180.000000        4.631440         2    ;  uncertainty k = 0.175194
        42         1        43        46     4      180.000000        8.983581         2    ;  uncertainty k = 0.211681
        42        43        46         1     4      180.000000        8.983581         2    ;  uncertainty k = 0.211681
        42        46         1        43     4      180.000000        8.983581         2    ;  uncertainty k = 0.211681
        44        43        45        48     4      180.000000        1.287770         2    ;  uncertainty k = 0.523101
        44        45        48        43     4      180.000000        1.287770         2    ;  uncertainty k = 0.523101
        44        48        43        45     4      180.000000        1.287770         2    ;  uncertainty k = 0.523101
        45        44        46        47     4      180.000000        0.619481         2    ;  uncertainty k = 0.938269
        45        46        47        44     4      180.000000        0.619481         2    ;  uncertainty k = 0.938269
        45        47        44        46     4      180.000000        0.619481         2    ;  uncertainty k = 0.938269

[ pairs ]
;       ai        aj funct
         1         6     1
         1        44     1
         1        45     1
         1        49     1
         2         6     1
         2        23     1
         2        43     1
         2        46     1
         3         7     1
         3         9     1
         3        23     1
         3        24     1
         3        42     1
         4         7     1
         4         9     1
         4        24     1
         4        43     1
         4        46     1
         5         8     1
         5        10     1
         5        11     1
         5        15     1
         5        25     1
         5        27     1
         5        42     1
         6        12     1
         6        14     1
         6        16     1
         6        23     1
         6        26     1
         6        28     1
         6        29     1
         6        33     1
         7        10     1
         7        11     1
         7        17     1
         7        27     1
         8         9     1
         8        14     1
         8        16     1
         8        24     1
         8        33     1
         9        13     1
         9        15     1
         9        25     1
         9        30     1
         9        31     1
        10        12     1
        10        14     1
        10        24     1
        10        29     1
        11        16     1
        11        24     1
        11        28     1
        11        32     1
        11        33     1
        12        15     1
        12        27     1
        13        14     1
        13        29     1
        14        17     1
        14        25     1
        14        27     1
        14        30     1
        14        31     1
        15        18     1
        15        22     1
        15        24     1
        15        26     1
        15        29     1
        16        19     1
        16        21     1
        16        25     1
        16        34     1
        16        37     1
        17        20     1
        17        33     1
        17        35     1
        17        36     1
        18        21     1
        18        37     1
        18        38     1
        19        22     1
        19        36     1
        19        39     1
        19        40     1
        19        41     1
        20        34     1
        20        37     1
        21        35     1
        21        39     1
        21        40     1
        21        41     1
        22        34     1
        22        38     1
        23        42     1
        24        25     1
        24        27     1
        25        26     1
        25        33     1
        27        28     1
        27        29     1
        29        30     1
        29        31     1
        30        32     1
        31        32     1
        34        35     1
        35        38     1
        36        37     1
        36        38     1
        42        47     1
        42        48     1
        43        47     1
        43        49     1
        44        49     1
        46        48     1
        47        48     1
        47        49     1
