; ITP file created by ByteFF-joint-25, 2025-07-14 11:36:24.921979

[ atomtypes ]
;name           bonded.type        at.num        mass        charge   ptype           sigma         epsilon
 c0bf                                   6      0.0000       0.00000       A     3.31520e-01     4.13170e-01    ;  uncertainty sigma = 0.000016, epsilon = 0.001156
 c1bf                                   6      0.0000       0.00000       A     3.31524e-01     4.13238e-01    ;  uncertainty sigma = 0.000015, epsilon = 0.000832
 c2bf                                   6      0.0000       0.00000       A     3.31482e-01     4.13483e-01    ;  uncertainty sigma = 0.000018, epsilon = 0.001340
 c3bf                                   6      0.0000       0.00000       A     3.31520e-01     4.13170e-01    ;  uncertainty sigma = 0.000016, epsilon = 0.001156
 c4bf                                   6      0.0000       0.00000       A     3.31524e-01     4.13238e-01    ;  uncertainty sigma = 0.000015, epsilon = 0.000832
 c5bf                                   6      0.0000       0.00000       A     3.31489e-01     4.13348e-01    ;  uncertainty sigma = 0.000012, epsilon = 0.000708
 c6bf                                   6      0.0000       0.00000       A     3.31539e-01     4.13087e-01    ;  uncertainty sigma = 0.000006, epsilon = 0.001268
 n7bf                                   7      0.0000       0.00000       A     3.38453e-01     3.93740e-01    ;  uncertainty sigma = 0.000022, epsilon = 0.000630
 n8bf                                   7      0.0000       0.00000       A     3.38410e-01     3.93741e-01    ;  uncertainty sigma = 0.000016, epsilon = 0.001215
 c9bf                                   6      0.0000       0.00000       A     3.31526e-01     4.13389e-01    ;  uncertainty sigma = 0.000017, epsilon = 0.000762
 n10bf                                  7      0.0000       0.00000       A     3.20652e-01     8.52236e-01    ;  uncertainty sigma = 0.000054, epsilon = 0.002958
 c11bf                                  6      0.0000       0.00000       A     3.39713e-01     4.50652e-01    ;  uncertainty sigma = 0.000026, epsilon = 0.001404
 c12bf                                  6      0.0000       0.00000       A     3.39779e-01     4.49718e-01    ;  uncertainty sigma = 0.000015, epsilon = 0.002118
 o13bf                                  8      0.0000       0.00000       A     3.24313e-01     3.89156e-01    ;  uncertainty sigma = 0.000010, epsilon = 0.000595
 c14bf                                  6      0.0000       0.00000       A     3.39779e-01     4.49976e-01    ;  uncertainty sigma = 0.000018, epsilon = 0.001841
 o15bf                                  8      0.0000       0.00000       A     3.24318e-01     3.89663e-01    ;  uncertainty sigma = 0.000007, epsilon = 0.000651
 c16bf                                  6      0.0000       0.00000       A     3.39813e-01     4.51725e-01    ;  uncertainty sigma = 0.000016, epsilon = 0.001146
 c17bf                                  6      0.0000       0.00000       A     3.39797e-01     4.50403e-01    ;  uncertainty sigma = 0.000017, epsilon = 0.000902
 o18bf                                  8      0.0000       0.00000       A     3.24274e-01     3.88861e-01    ;  uncertainty sigma = 0.000020, epsilon = 0.000688
 o19bf                                  8      0.0000       0.00000       A     3.15611e-01     3.03419e-01    ;  uncertainty sigma = 0.000029, epsilon = 0.002245
 c20bf                                  6      0.0000       0.00000       A     3.39781e-01     4.51054e-01    ;  uncertainty sigma = 0.000013, epsilon = 0.000917
 s21bf                                 16      0.0000       0.00000       A     3.53296e-01     1.18046e+00    ;  uncertainty sigma = 0.000030, epsilon = 0.002394
 c22bf                                  6      0.0000       0.00000       A     3.31487e-01     4.13043e-01    ;  uncertainty sigma = 0.000026, epsilon = 0.000640
 c23bf                                  6      0.0000       0.00000       A     3.31517e-01     4.13229e-01    ;  uncertainty sigma = 0.000008, epsilon = 0.000553
 c24bf                                  6      0.0000       0.00000       A     3.31524e-01     4.13304e-01    ;  uncertainty sigma = 0.000004, epsilon = 0.000505
 c25bf                                  6      0.0000       0.00000       A     3.31516e-01     4.13253e-01    ;  uncertainty sigma = 0.000004, epsilon = 0.000640
 c26bf                                  6      0.0000       0.00000       A     3.31524e-01     4.13304e-01    ;  uncertainty sigma = 0.000004, epsilon = 0.000505
 c27bf                                  6      0.0000       0.00000       A     3.31517e-01     4.13229e-01    ;  uncertainty sigma = 0.000008, epsilon = 0.000553
 h28bf                                  1      0.0000       0.00000       A     2.53615e-01     6.71853e-02    ;  uncertainty sigma = 0.000061, epsilon = 0.000866
 h29bf                                  1      0.0000       0.00000       A     2.42314e-01     8.67745e-02    ;  uncertainty sigma = 0.000097, epsilon = 0.000594
 h30bf                                  1      0.0000       0.00000       A     2.42150e-01     8.68976e-02    ;  uncertainty sigma = 0.000136, epsilon = 0.000578
 h31bf                                  1      0.0000       0.00000       A     5.37699e-02     1.94207e-02    ;  uncertainty sigma = 0.000075, epsilon = 0.001021
 h32bf                                  1      0.0000       0.00000       A     2.42148e-01     8.70400e-02    ;  uncertainty sigma = 0.000125, epsilon = 0.000654
 h33bf                                  1      0.0000       0.00000       A     5.37509e-02     1.95242e-02    ;  uncertainty sigma = 0.000059, epsilon = 0.001184
 h34bf                                  1      0.0000       0.00000       A     2.42295e-01     8.69263e-02    ;  uncertainty sigma = 0.000086, epsilon = 0.000919
 h35bf                                  1      0.0000       0.00000       A     2.42123e-01     8.66913e-02    ;  uncertainty sigma = 0.000015, epsilon = 0.000817
 h36bf                                  1      0.0000       0.00000       A     2.42123e-01     8.66913e-02    ;  uncertainty sigma = 0.000015, epsilon = 0.000817
 h37bf                                  1      0.0000       0.00000       A     5.37919e-02     1.95436e-02    ;  uncertainty sigma = 0.000077, epsilon = 0.000848
 h38bf                                  1      0.0000       0.00000       A     2.25392e-01     8.79591e-02    ;  uncertainty sigma = 0.000386, epsilon = 0.001528
 h39bf                                  1      0.0000       0.00000       A     2.62569e-01     6.71318e-02    ;  uncertainty sigma = 0.000009, epsilon = 0.000486
 h40bf                                  1      0.0000       0.00000       A     2.62564e-01     6.70918e-02    ;  uncertainty sigma = 0.000008, epsilon = 0.000519
 h41bf                                  1      0.0000       0.00000       A     2.62564e-01     6.70918e-02    ;  uncertainty sigma = 0.000008, epsilon = 0.000519
 h42bf                                  1      0.0000       0.00000       A     2.62569e-01     6.71318e-02    ;  uncertainty sigma = 0.000009, epsilon = 0.000486
 f43bf                                  9      0.0000       0.00000       A     3.03427e-01     3.48055e-01    ;  uncertainty sigma = 0.000017, epsilon = 0.001268
 f44bf                                  9      0.0000       0.00000       A     3.03462e-01     3.48219e-01    ;  uncertainty sigma = 0.000017, epsilon = 0.001074
 f45bf                                  9      0.0000       0.00000       A     3.03427e-01     3.48055e-01    ;  uncertainty sigma = 0.000017, epsilon = 0.001268
 f46bf                                  9      0.0000       0.00000       A     3.03462e-01     3.48219e-01    ;  uncertainty sigma = 0.000017, epsilon = 0.001074
 c47bf                                  6      0.0000       0.00000       A     3.39773e-01     4.50878e-01    ;  uncertainty sigma = 0.000005, epsilon = 0.000421
 h48bf                                  1      0.0000       0.00000       A     2.60034e-01     8.66894e-02    ;  uncertainty sigma = 0.000006, epsilon = 0.000488
 h49bf                                  1      0.0000       0.00000       A     2.60034e-01     8.66894e-02    ;  uncertainty sigma = 0.000006, epsilon = 0.000488
 h50bf                                  1      0.0000       0.00000       A     2.60034e-01     8.66894e-02    ;  uncertainty sigma = 0.000006, epsilon = 0.000488
 o51bf                                  8      0.0000       0.00000       A     3.15626e-01     3.03204e-01    ;  uncertainty sigma = 0.000033, epsilon = 0.000591
 c52bf                                  6      0.0000       0.00000       A     3.39768e-01     4.51017e-01    ;  uncertainty sigma = 0.000005, epsilon = 0.000814
 h53bf                                  1      0.0000       0.00000       A     2.42205e-01     8.67536e-02    ;  uncertainty sigma = 0.000015, epsilon = 0.000624
 h54bf                                  1      0.0000       0.00000       A     2.42205e-01     8.67536e-02    ;  uncertainty sigma = 0.000015, epsilon = 0.000624
 h55bf                                  1      0.0000       0.00000       A     2.42205e-01     8.67536e-02    ;  uncertainty sigma = 0.000015, epsilon = 0.000624

[ moleculetype ]
;name             nrexcl
 MOL                   3

[ atoms ]
;       nr            type      resi   res      atom      cgnr      charge          mass ; qtot
         1            c0bf         1   UNL        c0         1     0.06459       12.0110 ; qtot    0.065
         2            c1bf         1   UNL        c1         2     0.14836       12.0110 ; qtot    0.213
         3            c2bf         1   UNL        c2         3     0.10171       12.0110 ; qtot    0.315
         4            c3bf         1   UNL        c3         4     0.06459       12.0110 ; qtot    0.379
         5            c4bf         1   UNL        c4         5     0.14836       12.0110 ; qtot    0.528
         6            c5bf         1   UNL        c5         6    -0.13865       12.0110 ; qtot    0.389
         7            c6bf         1   UNL        c6         7     0.30896       12.0110 ; qtot    0.698
         8            n7bf         1   UNL        n7         8    -0.33354       14.0070 ; qtot    0.364
         9            n8bf         1   UNL        n8         9    -0.20354       14.0070 ; qtot    0.161
        10            c9bf         1   UNL        c9        10    -0.17559       12.0110 ; qtot   -0.015
        11           n10bf         1   UNL       n10        11     0.08790       14.0070 ; qtot    0.073
        12           c11bf         1   UNL       c11        12     0.03718       12.0110 ; qtot    0.110
        13           c12bf         1   UNL       c12        13     0.13773       12.0110 ; qtot    0.248
        14           o13bf         1   UNL       o13        14    -0.59205       15.9990 ; qtot   -0.344
        15           c14bf         1   UNL       c14        15     0.12846       12.0110 ; qtot   -0.216
        16           o15bf         1   UNL       o15        16    -0.59538       15.9990 ; qtot   -0.811
        17           c16bf         1   UNL       c16        17     0.09794       12.0110 ; qtot   -0.713
        18           c17bf         1   UNL       c17        18     0.13320       12.0110 ; qtot   -0.580
        19           o18bf         1   UNL       o18        19    -0.59965       15.9990 ; qtot   -1.179
        20           o19bf         1   UNL       o19        20    -0.39620       15.9990 ; qtot   -1.576
        21           c20bf         1   UNL       c20        21     0.22984       12.0110 ; qtot   -1.346
        22           s21bf         1   UNL       s21        22    -0.29369       32.0670 ; qtot   -1.639
        23           c22bf         1   UNL       c22        23     0.01270       12.0110 ; qtot   -1.627
        24           c23bf         1   UNL       c23        24    -0.09102       12.0110 ; qtot   -1.718
        25           c24bf         1   UNL       c24        25    -0.13512       12.0110 ; qtot   -1.853
        26           c25bf         1   UNL       c25        26    -0.05605       12.0110 ; qtot   -1.909
        27           c26bf         1   UNL       c26        27    -0.13512       12.0110 ; qtot   -2.044
        28           c27bf         1   UNL       c27        28    -0.09102       12.0110 ; qtot   -2.135
        29           h28bf         1   UNL       h28        29     0.19769        1.0080 ; qtot   -1.937
        30           h29bf         1   UNL       h29        30     0.09442        1.0080 ; qtot   -1.843
        31           h30bf         1   UNL       h30        31     0.07817        1.0080 ; qtot   -1.765
        32           h31bf         1   UNL       h31        32     0.42879        1.0080 ; qtot   -1.336
        33           h32bf         1   UNL       h32        33     0.07395        1.0080 ; qtot   -1.262
        34           h33bf         1   UNL       h33        34     0.42496        1.0080 ; qtot   -0.837
        35           h34bf         1   UNL       h34        35     0.07367        1.0080 ; qtot   -0.763
        36           h35bf         1   UNL       h35        36     0.05099        1.0080 ; qtot   -0.712
        37           h36bf         1   UNL       h36        37     0.05099        1.0080 ; qtot   -0.661
        38           h37bf         1   UNL       h37        38     0.41123        1.0080 ; qtot   -0.250
        39           h38bf         1   UNL       h38        39     0.08832        1.0080 ; qtot   -0.162
        40           h39bf         1   UNL       h39        40     0.14071        1.0080 ; qtot   -0.021
        41           h40bf         1   UNL       h40        41     0.13401        1.0080 ; qtot    0.113
        42           h41bf         1   UNL       h41        42     0.13401        1.0080 ; qtot    0.247
        43           h42bf         1   UNL       h42        43     0.14071        1.0080 ; qtot    0.388
        44           f43bf         1   UNL       f43        44    -0.10760       18.9980 ; qtot    0.280
        45           f44bf         1   UNL       f44        45    -0.10466       18.9980 ; qtot    0.175
        46           f45bf         1   UNL       f45        46    -0.10760       18.9980 ; qtot    0.068
        47           f46bf         1   UNL       f46        47    -0.10466       18.9980 ; qtot   -0.037
        48           c47bf         1   UNL       c47        48    -0.05057       12.0110 ; qtot   -0.088
        49           h48bf         1   UNL       h48        49     0.04329        1.0080 ; qtot   -0.044
        50           h49bf         1   UNL       h49        50     0.04329        1.0080 ; qtot   -0.001
        51           h50bf         1   UNL       h50        51     0.04329        1.0080 ; qtot    0.042
        52           o51bf         1   UNL       o51        52    -0.30833       15.9990 ; qtot   -0.266
        53           c52bf         1   UNL       c52        53     0.12029       12.0110 ; qtot   -0.146
        54           h53bf         1   UNL       h53        54     0.04857        1.0080 ; qtot   -0.097
        55           h54bf         1   UNL       h54        55     0.04857        1.0080 ; qtot   -0.049
        56           h55bf         1   UNL       h55        56     0.04860        1.0080 ; qtot   -0.000

[ bonds ]
;       ai        aj funct               r               k
         1         2     1        0.138685   349162.282373    ;  uncertainty r = 0.000060, k = 10.421287
         1         3     1        0.139187   349716.131201    ;  uncertainty r = 0.000099, k = 4.482403
         1        44     1        0.134252   342879.463965    ;  uncertainty r = 0.000097, k = 3.504230
         2         6     1        0.139115   336266.450732    ;  uncertainty r = 0.000071, k = 6.097214
         2        45     1        0.134021   347126.055420    ;  uncertainty r = 0.000072, k = 6.840365
         3         4     1        0.139187   349716.131201    ;  uncertainty r = 0.000099, k = 4.482403
         3        52     1        0.135520   317605.386816    ;  uncertainty r = 0.000142, k = 14.452177
         4         5     1        0.138685   349162.282373    ;  uncertainty r = 0.000060, k = 10.421287
         4        46     1        0.134252   342879.463965    ;  uncertainty r = 0.000097, k = 3.504230
         5         6     1        0.139115   336266.450732    ;  uncertainty r = 0.000071, k = 6.097214
         5        47     1        0.134021   347126.055420    ;  uncertainty r = 0.000072, k = 6.840365
         6         7     1        0.146491   282434.760449    ;  uncertainty r = 0.000176, k = 6.481509
         7         8     1        0.137832   245211.563379    ;  uncertainty r = 0.000104, k = 13.929338
         7        10     1        0.138761   438394.943750    ;  uncertainty r = 0.000096, k = 13.765802
         8         9     1        0.130434   452903.137402    ;  uncertainty r = 0.000041, k = 3.205364
         9        11     1        0.135903   233298.169873    ;  uncertainty r = 0.000149, k = 12.312535
        10        11     1        0.135984   301329.514453    ;  uncertainty r = 0.000077, k = 7.580350
        10        29     1        0.108150   343329.887500    ;  uncertainty r = 0.000029, k = 4.231509
        11        12     1        0.145237   237557.836328    ;  uncertainty r = 0.000204, k = 6.795436
        12        13     1        0.152197   188201.613843    ;  uncertainty r = 0.000192, k = 8.216347
        12        15     1        0.152242   189482.287109    ;  uncertainty r = 0.000225, k = 7.204018
        12        30     1        0.109521   308595.486035    ;  uncertainty r = 0.000060, k = 4.627269
        13        14     1        0.141112   255571.457910    ;  uncertainty r = 0.000133, k = 10.775081
        13        21     1        0.151795   195953.824756    ;  uncertainty r = 0.000220, k = 7.518907
        13        31     1        0.109646   304732.155518    ;  uncertainty r = 0.000030, k = 1.257698
        14        32     1        0.097065   447735.907617    ;  uncertainty r = 0.000022, k = 2.843500
        15        16     1        0.141577   252957.147412    ;  uncertainty r = 0.000096, k = 9.080986
        15        17     1        0.151787   194051.514404    ;  uncertainty r = 0.000051, k = 5.272028
        15        33     1        0.109666   303884.910840    ;  uncertainty r = 0.000035, k = 2.180842
        16        34     1        0.097048   450902.764551    ;  uncertainty r = 0.000018, k = 3.349293
        17        18     1        0.151618   203501.917554    ;  uncertainty r = 0.000125, k = 6.264156
        17        20     1        0.142011   234157.493604    ;  uncertainty r = 0.000263, k = 8.190043
        17        35     1        0.109922   307243.934521    ;  uncertainty r = 0.000031, k = 1.845416
        18        19     1        0.142092   261467.338037    ;  uncertainty r = 0.000062, k = 4.434858
        18        36     1        0.109761   309531.982910    ;  uncertainty r = 0.000022, k = 2.053540
        18        37     1        0.109761   309531.982910    ;  uncertainty r = 0.000022, k = 2.053540
        19        38     1        0.097013   462818.941602    ;  uncertainty r = 0.000022, k = 2.302141
        20        21     1        0.140261   232205.156055    ;  uncertainty r = 0.000298, k = 17.002598
        21        22     1        0.184466   133169.513428    ;  uncertainty r = 0.000195, k = 13.146840
        21        39     1        0.109643   309186.925488    ;  uncertainty r = 0.000063, k = 4.096350
        22        23     1        0.179121   206179.189795    ;  uncertainty r = 0.000089, k = 7.782768
        23        24     1        0.140095   360007.458594    ;  uncertainty r = 0.000063, k = 2.797086
        23        28     1        0.140095   360007.458594    ;  uncertainty r = 0.000063, k = 2.797086
        24        25     1        0.139505   367196.614551    ;  uncertainty r = 0.000029, k = 1.961353
        24        40     1        0.108793   333998.704346    ;  uncertainty r = 0.000039, k = 2.030538
        25        26     1        0.140220   353169.182520    ;  uncertainty r = 0.000028, k = 2.666792
        25        41     1        0.108868   334513.609082    ;  uncertainty r = 0.000009, k = 0.953696
        26        27     1        0.140220   353169.182520    ;  uncertainty r = 0.000028, k = 2.666792
        26        48     1        0.151054   252476.717773    ;  uncertainty r = 0.000015, k = 5.525231
        27        28     1        0.139505   367196.614551    ;  uncertainty r = 0.000029, k = 1.961353
        27        42     1        0.108868   334513.609082    ;  uncertainty r = 0.000009, k = 0.953696
        28        43     1        0.108793   333998.704346    ;  uncertainty r = 0.000039, k = 2.030538
        48        49     1        0.109534   307895.054199    ;  uncertainty r = 0.000008, k = 1.140244
        48        50     1        0.109534   307895.054199    ;  uncertainty r = 0.000008, k = 1.140244
        48        51     1        0.109534   307895.054199    ;  uncertainty r = 0.000008, k = 1.140244
        52        53     1        0.143649   244785.987451    ;  uncertainty r = 0.000114, k = 4.558511
        53        54     1        0.109467   311055.143799    ;  uncertainty r = 0.000034, k = 1.204187
        53        55     1        0.109467   311055.143799    ;  uncertainty r = 0.000034, k = 1.204187
        53        56     1        0.109467   311055.143799    ;  uncertainty r = 0.000034, k = 1.204187

[ angles ]
;       ai        aj        ak funct           theta             cth
         1         2         6     1      126.267517      354.116807    ;  uncertainty theta = 0.004654, k = 0.185793
         1         2        45     1      116.663162      475.528716    ;  uncertainty theta = 0.002512, k = 0.069456
         1         3         4     1      120.913742      343.840515    ;  uncertainty theta = 0.009539, k = 0.087720
         1         3        52     1      118.906227      359.395966    ;  uncertainty theta = 0.003775, k = 0.410501
         2         1         3     1      124.862625      363.289194    ;  uncertainty theta = 0.005900, k = 0.128962
         2         1        44     1      117.735596      473.779169    ;  uncertainty theta = 0.004280, k = 0.187524
         2         6         5     1      121.254807      380.030110    ;  uncertainty theta = 0.008051, k = 0.334105
         2         6         7     1      119.912819      389.979144    ;  uncertainty theta = 0.003544, k = 0.240699
         3         1        44     1      116.776207      485.412184    ;  uncertainty theta = 0.005043, k = 0.255550
         3         4         5     1      124.862625      363.289194    ;  uncertainty theta = 0.005900, k = 0.128962
         3         4        46     1      116.776207      485.412184    ;  uncertainty theta = 0.005043, k = 0.255550
         3        52        53     1      110.955971      495.328659    ;  uncertainty theta = 0.001479, k = 0.035050
         4         3        52     1      118.906227      359.395966    ;  uncertainty theta = 0.003775, k = 0.410501
         4         5         6     1      126.267517      354.116807    ;  uncertainty theta = 0.004654, k = 0.185793
         4         5        47     1      116.663162      475.528716    ;  uncertainty theta = 0.002512, k = 0.069456
         5         4        46     1      117.735596      473.779169    ;  uncertainty theta = 0.004280, k = 0.187524
         5         6         7     1      119.912819      389.979144    ;  uncertainty theta = 0.003544, k = 0.240699
         6         2        45     1      116.694359      488.824197    ;  uncertainty theta = 0.004123, k = 0.108426
         6         5        47     1      116.694359      488.824197    ;  uncertainty theta = 0.004123, k = 0.108426
         6         7         8     1      119.767044      392.552168    ;  uncertainty theta = 0.005704, k = 0.192356
         6         7        10     1      127.464455      326.537080    ;  uncertainty theta = 0.005528, k = 0.246486
         7         8         9     1      109.448105      980.344730    ;  uncertainty theta = 0.002749, k = 0.109592
         7        10        11     1      104.968338      755.582416    ;  uncertainty theta = 0.002667, k = 0.290556
         7        10        29     1      129.970825      219.351033    ;  uncertainty theta = 0.007095, k = 0.102994
         8         7        10     1      109.485901      799.466214    ;  uncertainty theta = 0.002297, k = 0.141074
         8         9        11     1      108.422226     1204.348976    ;  uncertainty theta = 0.001809, k = 0.099601
         9        11        10     1      108.532043      943.507833    ;  uncertainty theta = 0.002573, k = 0.089724
         9        11        12     1      115.571121      437.659513    ;  uncertainty theta = 0.003078, k = 0.204767
        10        11        12     1      122.761009      357.633427    ;  uncertainty theta = 0.003382, k = 0.102735
        11        10        29     1      118.843506      273.783797    ;  uncertainty theta = 0.002677, k = 0.118660
        11        12        13     1      108.612854      611.432839    ;  uncertainty theta = 0.006773, k = 0.151825
        11        12        15     1      108.860092      608.822563    ;  uncertainty theta = 0.005620, k = 0.122032
        11        12        30     1      105.087402      460.773119    ;  uncertainty theta = 0.003041, k = 0.158681
        12        13        14     1      109.012962      665.533844    ;  uncertainty theta = 0.006748, k = 0.200619
        12        13        21     1      108.964066      543.101919    ;  uncertainty theta = 0.001961, k = 0.150905
        12        13        31     1      107.740005      378.522080    ;  uncertainty theta = 0.003343, k = 0.116338
        12        15        16     1      109.313431      671.008872    ;  uncertainty theta = 0.003313, k = 0.184556
        12        15        17     1      109.086327      550.828810    ;  uncertainty theta = 0.003114, k = 0.083717
        12        15        33     1      107.334900      380.433118    ;  uncertainty theta = 0.003532, k = 0.100701
        13        12        15     1      109.016258      555.541747    ;  uncertainty theta = 0.004332, k = 0.211730
        13        12        30     1      107.679733      392.750942    ;  uncertainty theta = 0.002487, k = 0.068899
        13        14        32     1      107.738342      464.297017    ;  uncertainty theta = 0.001111, k = 0.064721
        13        21        20     1      109.329178      613.859822    ;  uncertainty theta = 0.003845, k = 0.207721
        13        21        22     1      109.276794      472.352762    ;  uncertainty theta = 0.003541, k = 0.185259
        13        21        39     1      109.789139      376.594411    ;  uncertainty theta = 0.003445, k = 0.064049
        14        13        21     1      108.751869      695.476934    ;  uncertainty theta = 0.004518, k = 0.195360
        14        13        31     1      108.464233      469.798604    ;  uncertainty theta = 0.000985, k = 0.059230
        15        12        30     1      107.891098      392.700028    ;  uncertainty theta = 0.001699, k = 0.068486
        15        16        34     1      107.735207      463.269914    ;  uncertainty theta = 0.000463, k = 0.071624
        15        17        18     1      110.619675      536.827451    ;  uncertainty theta = 0.003047, k = 0.044496
        15        17        20     1      108.464928      617.827076    ;  uncertainty theta = 0.003259, k = 0.135769
        15        17        35     1      107.915344      383.395997    ;  uncertainty theta = 0.002933, k = 0.008098
        16        15        17     1      108.664330      684.054888    ;  uncertainty theta = 0.003176, k = 0.109786
        16        15        33     1      108.417618      469.024606    ;  uncertainty theta = 0.000812, k = 0.043732
        17        15        33     1      108.204239      382.143370    ;  uncertainty theta = 0.002080, k = 0.061683
        17        18        19     1      110.168129      716.776224    ;  uncertainty theta = 0.001875, k = 0.128387
        17        18        36     1      107.923988      394.631623    ;  uncertainty theta = 0.001881, k = 0.054203
        17        18        37     1      107.923988      394.631623    ;  uncertainty theta = 0.001881, k = 0.054203
        17        20        21     1      109.179161      507.510722    ;  uncertainty theta = 0.006739, k = 0.158124
        18        17        20     1      105.910133      561.353674    ;  uncertainty theta = 0.003507, k = 0.091813
        18        17        35     1      108.719131      396.919716    ;  uncertainty theta = 0.003871, k = 0.046746
        18        19        38     1      107.223572      450.200245    ;  uncertainty theta = 0.001789, k = 0.036471
        19        18        36     1      108.661911      477.517993    ;  uncertainty theta = 0.000920, k = 0.032620
        19        18        37     1      108.661911      477.517993    ;  uncertainty theta = 0.000920, k = 0.032620
        20        17        35     1      107.155716      448.878476    ;  uncertainty theta = 0.002856, k = 0.118174
        20        21        22     1      108.488548      600.802060    ;  uncertainty theta = 0.005721, k = 0.267014
        20        21        39     1      107.581078      454.886975    ;  uncertainty theta = 0.003084, k = 0.162160
        21        13        31     1      108.036217      382.649675    ;  uncertainty theta = 0.001208, k = 0.065214
        21        22        23     1       98.071030      620.356016    ;  uncertainty theta = 0.003494, k = 0.101606
        22        21        39     1      106.804665      347.470743    ;  uncertainty theta = 0.004979, k = 0.169894
        22        23        24     1      122.596115      363.243706    ;  uncertainty theta = 0.004725, k = 0.050914
        22        23        28     1      122.596115      363.243706    ;  uncertainty theta = 0.004725, k = 0.050914
        23        24        25     1      119.504868      523.522298    ;  uncertainty theta = 0.001632, k = 0.071975
        23        24        40     1      120.291687      280.122011    ;  uncertainty theta = 0.002517, k = 0.047831
        23        28        27     1      119.504868      523.522298    ;  uncertainty theta = 0.001632, k = 0.071975
        23        28        43     1      120.291687      280.122011    ;  uncertainty theta = 0.002517, k = 0.047831
        24        23        28     1      119.364830      413.056966    ;  uncertainty theta = 0.002836, k = 0.076384
        24        25        26     1      121.433670      521.891019    ;  uncertainty theta = 0.001255, k = 0.060016
        24        25        41     1      119.655823      287.521580    ;  uncertainty theta = 0.001168, k = 0.024751
        25        24        40     1      120.399857      289.970493    ;  uncertainty theta = 0.001680, k = 0.045815
        25        26        27     1      118.352539      470.446065    ;  uncertainty theta = 0.001842, k = 0.119193
        25        26        48     1      120.748802      431.769794    ;  uncertainty theta = 0.001285, k = 0.023615
        26        25        41     1      119.443192      279.848828    ;  uncertainty theta = 0.001504, k = 0.086733
        26        27        28     1      121.433670      521.891019    ;  uncertainty theta = 0.001255, k = 0.060016
        26        27        42     1      119.443192      279.848828    ;  uncertainty theta = 0.001504, k = 0.086733
        26        48        49     1      109.896523      397.950553    ;  uncertainty theta = 0.001093, k = 0.021393
        26        48        50     1      109.896523      397.950553    ;  uncertainty theta = 0.001093, k = 0.021393
        26        48        51     1      109.896523      397.950553    ;  uncertainty theta = 0.001093, k = 0.021393
        27        26        48     1      120.748802      431.769794    ;  uncertainty theta = 0.001285, k = 0.023615
        27        28        43     1      120.399857      289.970493    ;  uncertainty theta = 0.001680, k = 0.045815
        28        27        42     1      119.655823      287.521580    ;  uncertainty theta = 0.001168, k = 0.024751
        36        18        37     1      107.726456      326.410991    ;  uncertainty theta = 0.001745, k = 0.070753
        49        48        50     1      106.736977      316.781394    ;  uncertainty theta = 0.000965, k = 0.019303
        49        48        51     1      106.736977      316.781394    ;  uncertainty theta = 0.000965, k = 0.019303
        50        48        51     1      106.736977      316.781394    ;  uncertainty theta = 0.000965, k = 0.019303
        52        53        54     1      108.869713      444.551596    ;  uncertainty theta = 0.001213, k = 0.038386
        52        53        55     1      108.869705      444.551596    ;  uncertainty theta = 0.001213, k = 0.038386
        52        53        56     1      108.869705      444.551596    ;  uncertainty theta = 0.001213, k = 0.038386
        54        53        55     1      109.218445      331.212159    ;  uncertainty theta = 0.000898, k = 0.011961
        54        53        56     1      109.218445      331.212159    ;  uncertainty theta = 0.000898, k = 0.011961
        55        53        56     1      109.218445      331.212191    ;  uncertainty theta = 0.000898, k = 0.011961

[ dihedrals ] ; propers for gromacs 4.5 or higher, use funct 9
;       ai        aj        ak        al funct           phase               k        pn
         1         2         6         5     9        0.000000       -0.109003         1    ;  uncertainty k = 0.214585
         1         2         6         5     9      180.000000        5.764329         2    ;  uncertainty k = 0.813908
         1         2         6         5     9        0.000000        0.722305         3    ;  uncertainty k = 0.389477
         1         2         6         5     9      180.000000        1.385844         4    ;  uncertainty k = 0.256010
         1         2         6         7     9        0.000000        0.130327         1    ;  uncertainty k = 0.522815
         1         2         6         7     9      180.000000        6.686359         2    ;  uncertainty k = 0.507895
         1         2         6         7     9        0.000000        1.203428         3    ;  uncertainty k = 0.260333
         1         2         6         7     9      180.000000        1.621843         4    ;  uncertainty k = 0.266973
         1         3         4         5     9        0.000000       -0.192962         1    ;  uncertainty k = 0.421198
         1         3         4         5     9      180.000000        4.584741         2    ;  uncertainty k = 1.154696
         1         3         4         5     9        0.000000        0.627443         3    ;  uncertainty k = 0.245514
         1         3         4         5     9      180.000000        1.346270         4    ;  uncertainty k = 0.131414
         1         3         4        46     9        0.000000        0.234348         1    ;  uncertainty k = 0.552617
         1         3         4        46     9      180.000000        8.855801         2    ;  uncertainty k = 0.255257
         1         3         4        46     9        0.000000        1.492370         3    ;  uncertainty k = 0.270357
         1         3         4        46     9      180.000000        1.715773         4    ;  uncertainty k = 0.154575
         1         3        52        53     9        0.000000        1.811518         1    ;  uncertainty k = 0.950573
         1         3        52        53     9      180.000000        4.884270         2    ;  uncertainty k = 0.194348
         1         3        52        53     9        0.000000        0.521454         3    ;  uncertainty k = 0.218496
         1         3        52        53     9      180.000000       -0.273649         4    ;  uncertainty k = 0.040731
         2         1         3         4     9        0.000000       -0.192962         1    ;  uncertainty k = 0.421198
         2         1         3         4     9      180.000000        4.584741         2    ;  uncertainty k = 1.154696
         2         1         3         4     9        0.000000        0.627443         3    ;  uncertainty k = 0.245514
         2         1         3         4     9      180.000000        1.346270         4    ;  uncertainty k = 0.131414
         2         1         3        52     9        0.000000        0.145034         1    ;  uncertainty k = 0.239976
         2         1         3        52     9      180.000000        7.557006         2    ;  uncertainty k = 0.474071
         2         1         3        52     9        0.000000        1.349234         3    ;  uncertainty k = 0.350998
         2         1         3        52     9      180.000000        1.726959         4    ;  uncertainty k = 0.213136
         2         6         5         4     9        0.000000       -0.109003         1    ;  uncertainty k = 0.214585
         2         6         5         4     9      180.000000        5.764329         2    ;  uncertainty k = 0.813908
         2         6         5         4     9        0.000000        0.722305         3    ;  uncertainty k = 0.389477
         2         6         5         4     9      180.000000        1.385844         4    ;  uncertainty k = 0.256010
         2         6         5        47     9        0.000000        0.138399         1    ;  uncertainty k = 0.318390
         2         6         5        47     9      180.000000       10.242457         2    ;  uncertainty k = 0.164197
         2         6         5        47     9        0.000000        1.603247         3    ;  uncertainty k = 0.450528
         2         6         5        47     9      180.000000        1.709684         4    ;  uncertainty k = 0.050473
         2         6         7         8     9        0.000000        0.136539         1    ;  uncertainty k = 1.103069
         2         6         7         8     9      180.000000        4.130705         2    ;  uncertainty k = 0.176246
         2         6         7         8     9        0.000000        1.062686         3    ;  uncertainty k = 0.334606
         2         6         7         8     9      180.000000        0.096832         4    ;  uncertainty k = 0.151609
         2         6         7        10     9        0.000000        0.442968         1    ;  uncertainty k = 0.856419
         2         6         7        10     9      180.000000        3.977143         2    ;  uncertainty k = 0.270155
         2         6         7        10     9        0.000000        0.469858         3    ;  uncertainty k = 0.329241
         2         6         7        10     9      180.000000        0.098051         4    ;  uncertainty k = 0.157229
         3         1         2         6     9        0.000000       -0.132360         1    ;  uncertainty k = 0.683009
         3         1         2         6     9      180.000000        3.844313         2    ;  uncertainty k = 1.129616
         3         1         2         6     9        0.000000        0.699453         3    ;  uncertainty k = 0.451295
         3         1         2         6     9      180.000000        1.474640         4    ;  uncertainty k = 0.189696
         3         1         2        45     9        0.000000        0.215456         1    ;  uncertainty k = 0.620245
         3         1         2        45     9      180.000000        8.436940         2    ;  uncertainty k = 0.278709
         3         1         2        45     9        0.000000        1.439123         3    ;  uncertainty k = 0.289043
         3         1         2        45     9      180.000000        1.769314         4    ;  uncertainty k = 0.125170
         3         4         5         6     9        0.000000       -0.132360         1    ;  uncertainty k = 0.683009
         3         4         5         6     9      180.000000        3.844313         2    ;  uncertainty k = 1.129616
         3         4         5         6     9        0.000000        0.699453         3    ;  uncertainty k = 0.451295
         3         4         5         6     9      180.000000        1.474640         4    ;  uncertainty k = 0.189696
         3         4         5        47     9        0.000000        0.215456         1    ;  uncertainty k = 0.620245
         3         4         5        47     9      180.000000        8.436940         2    ;  uncertainty k = 0.278709
         3         4         5        47     9        0.000000        1.439123         3    ;  uncertainty k = 0.289043
         3         4         5        47     9      180.000000        1.769314         4    ;  uncertainty k = 0.125170
         3        52        53        54     9        0.000000        1.377353         1    ;  uncertainty k = 0.445196
         3        52        53        54     9      180.000000       -2.669086         2    ;  uncertainty k = 0.226591
         3        52        53        54     9        0.000000        0.997982         3    ;  uncertainty k = 0.107060
         3        52        53        54     9      180.000000        0.194869         4    ;  uncertainty k = 0.034404
         3        52        53        55     9        0.000000        1.377353         1    ;  uncertainty k = 0.445196
         3        52        53        55     9      180.000000       -2.669086         2    ;  uncertainty k = 0.226591
         3        52        53        55     9        0.000000        0.997982         3    ;  uncertainty k = 0.107060
         3        52        53        55     9      180.000000        0.194869         4    ;  uncertainty k = 0.034404
         3        52        53        56     9        0.000000        1.377353         1    ;  uncertainty k = 0.445196
         3        52        53        56     9      180.000000       -2.669086         2    ;  uncertainty k = 0.226591
         3        52        53        56     9        0.000000        0.997982         3    ;  uncertainty k = 0.107060
         3        52        53        56     9      180.000000        0.194869         4    ;  uncertainty k = 0.034404
         4         3         1        44     9        0.000000        0.234348         1    ;  uncertainty k = 0.552617
         4         3         1        44     9      180.000000        8.855801         2    ;  uncertainty k = 0.255257
         4         3         1        44     9        0.000000        1.492370         3    ;  uncertainty k = 0.270357
         4         3         1        44     9      180.000000        1.715773         4    ;  uncertainty k = 0.154575
         4         3        52        53     9        0.000000        1.811518         1    ;  uncertainty k = 0.950573
         4         3        52        53     9      180.000000        4.884270         2    ;  uncertainty k = 0.194348
         4         3        52        53     9        0.000000        0.521454         3    ;  uncertainty k = 0.218496
         4         3        52        53     9      180.000000       -0.273649         4    ;  uncertainty k = 0.040731
         4         5         6         7     9        0.000000        0.130327         1    ;  uncertainty k = 0.522815
         4         5         6         7     9      180.000000        6.686359         2    ;  uncertainty k = 0.507895
         4         5         6         7     9        0.000000        1.203428         3    ;  uncertainty k = 0.260333
         4         5         6         7     9      180.000000        1.621843         4    ;  uncertainty k = 0.266973
         5         4         3        52     9        0.000000        0.145034         1    ;  uncertainty k = 0.239976
         5         4         3        52     9      180.000000        7.557006         2    ;  uncertainty k = 0.474071
         5         4         3        52     9        0.000000        1.349234         3    ;  uncertainty k = 0.350998
         5         4         3        52     9      180.000000        1.726959         4    ;  uncertainty k = 0.213136
         5         6         2        45     9        0.000000        0.138399         1    ;  uncertainty k = 0.318390
         5         6         2        45     9      180.000000       10.242457         2    ;  uncertainty k = 0.164197
         5         6         2        45     9        0.000000        1.603247         3    ;  uncertainty k = 0.450528
         5         6         2        45     9      180.000000        1.709684         4    ;  uncertainty k = 0.050473
         5         6         7         8     9        0.000000        0.136539         1    ;  uncertainty k = 1.103069
         5         6         7         8     9      180.000000        4.130705         2    ;  uncertainty k = 0.176246
         5         6         7         8     9        0.000000        1.062686         3    ;  uncertainty k = 0.334606
         5         6         7         8     9      180.000000        0.096832         4    ;  uncertainty k = 0.151609
         5         6         7        10     9        0.000000        0.442968         1    ;  uncertainty k = 0.856419
         5         6         7        10     9      180.000000        3.977143         2    ;  uncertainty k = 0.270155
         5         6         7        10     9        0.000000        0.469858         3    ;  uncertainty k = 0.329241
         5         6         7        10     9      180.000000        0.098051         4    ;  uncertainty k = 0.157229
         6         2         1        44     9        0.000000        0.081939         1    ;  uncertainty k = 0.445020
         6         2         1        44     9      180.000000        8.033860         2    ;  uncertainty k = 0.438736
         6         2         1        44     9        0.000000        1.556159         3    ;  uncertainty k = 0.293418
         6         2         1        44     9      180.000000        1.810762         4    ;  uncertainty k = 0.111264
         6         5         4        46     9        0.000000        0.081939         1    ;  uncertainty k = 0.445020
         6         5         4        46     9      180.000000        8.033860         2    ;  uncertainty k = 0.438736
         6         5         4        46     9        0.000000        1.556159         3    ;  uncertainty k = 0.293418
         6         5         4        46     9      180.000000        1.810762         4    ;  uncertainty k = 0.111264
         6         7         8         9     9        0.000000        0.454690         1    ;  uncertainty k = 1.196369
         6         7         8         9     9      180.000000       18.487722         2    ;  uncertainty k = 0.162349
         6         7         8         9     9        0.000000        2.130900         3    ;  uncertainty k = 0.765734
         6         7         8         9     9      180.000000        1.032429         4    ;  uncertainty k = 0.303812
         6         7        10        11     9        0.000000        0.929358         1    ;  uncertainty k = 0.460072
         6         7        10        11     9      180.000000       14.286347         2    ;  uncertainty k = 0.443665
         6         7        10        11     9        0.000000        1.712746         3    ;  uncertainty k = 0.401218
         6         7        10        11     9      180.000000        0.794391         4    ;  uncertainty k = 0.248321
         6         7        10        29     9        0.000000        0.391081         1    ;  uncertainty k = 0.327537
         6         7        10        29     9      180.000000        6.067087         2    ;  uncertainty k = 0.835924
         6         7        10        29     9        0.000000        1.364090         3    ;  uncertainty k = 0.465377
         6         7        10        29     9      180.000000        0.362879         4    ;  uncertainty k = 0.098161
         7         6         2        45     9        0.000000       -0.007394         1    ;  uncertainty k = 0.112231
         7         6         2        45     9      180.000000       10.545372         2    ;  uncertainty k = 0.191562
         7         6         2        45     9        0.000000        1.394967         3    ;  uncertainty k = 0.223638
         7         6         2        45     9      180.000000        1.479060         4    ;  uncertainty k = 0.209395
         7         6         5        47     9        0.000000       -0.007394         1    ;  uncertainty k = 0.112231
         7         6         5        47     9      180.000000       10.545372         2    ;  uncertainty k = 0.191562
         7         6         5        47     9        0.000000        1.394967         3    ;  uncertainty k = 0.223638
         7         6         5        47     9      180.000000        1.479060         4    ;  uncertainty k = 0.209395
         7         8         9        11     9        0.000000       -1.457930         1    ;  uncertainty k = 1.881370
         7         8         9        11     9      180.000000       32.400283         2    ;  uncertainty k = 0.762028
         7         8         9        11     9        0.000000       -7.747329         3    ;  uncertainty k = 3.345323
         7         8         9        11     9      180.000000        2.382230         4    ;  uncertainty k = 0.469687
         7        10        11         9     9        0.000000       -0.092792         1    ;  uncertainty k = 0.829120
         7        10        11         9     9      180.000000       16.048440         2    ;  uncertainty k = 0.704258
         7        10        11         9     9        0.000000       -9.786528         3    ;  uncertainty k = 0.550563
         7        10        11         9     9      180.000000        1.406155         4    ;  uncertainty k = 0.526350
         7        10        11        12     9        0.000000        1.287706         1    ;  uncertainty k = 0.420038
         7        10        11        12     9      180.000000        9.957506         2    ;  uncertainty k = 0.545918
         7        10        11        12     9        0.000000        1.959803         3    ;  uncertainty k = 0.620520
         7        10        11        12     9      180.000000       -0.139965         4    ;  uncertainty k = 0.176693
         8         7        10        11     9        0.000000       -0.196901         1    ;  uncertainty k = 0.449401
         8         7        10        11     9      180.000000       20.305593         2    ;  uncertainty k = 0.429395
         8         7        10        11     9        0.000000      -11.898627         3    ;  uncertainty k = 0.422976
         8         7        10        11     9      180.000000        1.753624         4    ;  uncertainty k = 0.729282
         8         7        10        29     9        0.000000        0.261176         1    ;  uncertainty k = 0.642010
         8         7        10        29     9      180.000000       12.481383         2    ;  uncertainty k = 0.388875
         8         7        10        29     9        0.000000        1.512310         3    ;  uncertainty k = 0.380154
         8         7        10        29     9      180.000000        0.755239         4    ;  uncertainty k = 0.279708
         8         9        11        10     9        0.000000       -0.024878         1    ;  uncertainty k = 0.576087
         8         9        11        10     9      180.000000       21.795769         2    ;  uncertainty k = 0.265990
         8         9        11        10     9        0.000000       -8.989472         3    ;  uncertainty k = 1.556478
         8         9        11        10     9      180.000000        1.691397         4    ;  uncertainty k = 0.476141
         8         9        11        12     9        0.000000        0.066456         1    ;  uncertainty k = 1.528648
         8         9        11        12     9      180.000000       20.142229         2    ;  uncertainty k = 0.171437
         8         9        11        12     9        0.000000        2.020995         3    ;  uncertainty k = 0.815439
         8         9        11        12     9      180.000000        0.016824         4    ;  uncertainty k = 0.188121
         9         8         7        10     9        0.000000        0.016568         1    ;  uncertainty k = 0.420150
         9         8         7        10     9      180.000000       18.266577         2    ;  uncertainty k = 0.632465
         9         8         7        10     9        0.000000       -7.016153         3    ;  uncertainty k = 0.528097
         9         8         7        10     9      180.000000        2.148379         4    ;  uncertainty k = 0.295310
         9        11        10        29     9        0.000000        1.294726         1    ;  uncertainty k = 0.812269
         9        11        10        29     9      180.000000       12.365985         2    ;  uncertainty k = 0.708378
         9        11        10        29     9        0.000000        1.458442         3    ;  uncertainty k = 0.340327
         9        11        10        29     9      180.000000        0.116564         4    ;  uncertainty k = 0.260121
         9        11        12        13     9        0.000000       -0.009105         1    ;  uncertainty k = 0.692244
         9        11        12        13     9      180.000000        0.066711         2    ;  uncertainty k = 0.246017
         9        11        12        13     9        0.000000        0.312028         3    ;  uncertainty k = 0.123630
         9        11        12        13     9      180.000000        0.103161         4    ;  uncertainty k = 0.076901
         9        11        12        15     9        0.000000       -0.106158         1    ;  uncertainty k = 0.777761
         9        11        12        15     9      180.000000        0.064579         2    ;  uncertainty k = 0.226843
         9        11        12        15     9        0.000000        0.308178         3    ;  uncertainty k = 0.149986
         9        11        12        15     9      180.000000        0.113248         4    ;  uncertainty k = 0.070341
         9        11        12        30     9        0.000000        0.714307         1    ;  uncertainty k = 0.983851
         9        11        12        30     9      180.000000        0.364247         2    ;  uncertainty k = 0.290736
         9        11        12        30     9        0.000000        0.522046         3    ;  uncertainty k = 0.247879
         9        11        12        30     9      180.000000        0.241460         4    ;  uncertainty k = 0.108131
        10        11        12        13     9        0.000000       -0.138369         1    ;  uncertainty k = 0.854985
        10        11        12        13     9      180.000000        0.198537         2    ;  uncertainty k = 0.278937
        10        11        12        13     9        0.000000        0.660689         3    ;  uncertainty k = 0.196035
        10        11        12        13     9      180.000000        0.152339         4    ;  uncertainty k = 0.159563
        10        11        12        15     9        0.000000       -0.124985         1    ;  uncertainty k = 0.825359
        10        11        12        15     9      180.000000        0.203055         2    ;  uncertainty k = 0.244131
        10        11        12        15     9        0.000000        0.660615         3    ;  uncertainty k = 0.183302
        10        11        12        15     9      180.000000        0.154220         4    ;  uncertainty k = 0.158586
        10        11        12        30     9        0.000000       -1.598249         1    ;  uncertainty k = 0.654413
        10        11        12        30     9      180.000000        0.293877         2    ;  uncertainty k = 0.467977
        10        11        12        30     9        0.000000        0.755308         3    ;  uncertainty k = 0.286744
        10        11        12        30     9      180.000000        0.207059         4    ;  uncertainty k = 0.039505
        11        12        13        14     9        0.000000       -0.147358         1    ;  uncertainty k = 0.797265
        11        12        13        14     9      180.000000       -1.698827         2    ;  uncertainty k = 0.980893
        11        12        13        14     9        0.000000        1.227299         3    ;  uncertainty k = 0.349651
        11        12        13        14     9      180.000000        0.166080         4    ;  uncertainty k = 0.174093
        11        12        13        21     9        0.000000       -2.016394         1    ;  uncertainty k = 1.590031
        11        12        13        21     9      180.000000        0.086928         2    ;  uncertainty k = 0.816425
        11        12        13        21     9        0.000000        0.341197         3    ;  uncertainty k = 0.189461
        11        12        13        21     9      180.000000        0.048646         4    ;  uncertainty k = 0.109494
        11        12        13        31     9        0.000000        2.337077         1    ;  uncertainty k = 0.931591
        11        12        13        31     9      180.000000       -1.235715         2    ;  uncertainty k = 0.658162
        11        12        13        31     9        0.000000        0.372495         3    ;  uncertainty k = 0.191479
        11        12        13        31     9      180.000000       -0.062935         4    ;  uncertainty k = 0.197249
        11        12        15        16     9        0.000000       -0.347792         1    ;  uncertainty k = 1.034762
        11        12        15        16     9      180.000000       -1.789150         2    ;  uncertainty k = 0.958867
        11        12        15        16     9        0.000000        1.275832         3    ;  uncertainty k = 0.359262
        11        12        15        16     9      180.000000        0.170499         4    ;  uncertainty k = 0.181086
        11        12        15        17     9        0.000000       -2.542908         1    ;  uncertainty k = 1.256796
        11        12        15        17     9      180.000000        0.379972         2    ;  uncertainty k = 0.786625
        11        12        15        17     9        0.000000        0.405235         3    ;  uncertainty k = 0.173097
        11        12        15        17     9      180.000000        0.013644         4    ;  uncertainty k = 0.156073
        11        12        15        33     9        0.000000        2.403955         1    ;  uncertainty k = 0.872134
        11        12        15        33     9      180.000000       -1.306092         2    ;  uncertainty k = 0.681026
        11        12        15        33     9        0.000000        0.349530         3    ;  uncertainty k = 0.202678
        11        12        15        33     9      180.000000       -0.059130         4    ;  uncertainty k = 0.195345
        12        11        10        29     9        0.000000       -0.138774         1    ;  uncertainty k = 0.438962
        12        11        10        29     9      180.000000        3.630790         2    ;  uncertainty k = 0.375303
        12        11        10        29     9        0.000000        1.141021         3    ;  uncertainty k = 0.430984
        12        11        10        29     9      180.000000        0.056280         4    ;  uncertainty k = 0.196203
        12        13        14        32     9        0.000000       19.044279         1    ;  uncertainty k = 0.344640
        12        13        14        32     9      180.000000       -4.420536         2    ;  uncertainty k = 0.691287
        12        13        14        32     9        0.000000        1.320106         3    ;  uncertainty k = 0.147243
        12        13        14        32     9      180.000000        0.341335         4    ;  uncertainty k = 0.134615
        12        13        21        20     9        0.000000        2.476190         1    ;  uncertainty k = 1.472552
        12        13        21        20     9      180.000000       -0.994219         2    ;  uncertainty k = 0.524314
        12        13        21        20     9        0.000000        0.317990         3    ;  uncertainty k = 0.156301
        12        13        21        20     9      180.000000       -0.304493         4    ;  uncertainty k = 0.208551
        12        13        21        22     9        0.000000        4.940144         1    ;  uncertainty k = 2.504019
        12        13        21        22     9      180.000000       -2.238992         2    ;  uncertainty k = 1.274267
        12        13        21        22     9        0.000000       -0.074955         3    ;  uncertainty k = 0.452027
        12        13        21        22     9      180.000000        0.245914         4    ;  uncertainty k = 0.382620
        12        13        21        39     9        0.000000        1.847884         1    ;  uncertainty k = 1.045974
        12        13        21        39     9      180.000000       -1.923607         2    ;  uncertainty k = 0.722349
        12        13        21        39     9        0.000000       -0.575999         3    ;  uncertainty k = 0.258125
        12        13        21        39     9      180.000000       -0.003987         4    ;  uncertainty k = 0.220980
        12        15        16        34     9        0.000000       18.958064         1    ;  uncertainty k = 0.310976
        12        15        16        34     9      180.000000       -4.586035         2    ;  uncertainty k = 0.581125
        12        15        16        34     9        0.000000        1.334176         3    ;  uncertainty k = 0.130127
        12        15        16        34     9      180.000000        0.345473         4    ;  uncertainty k = 0.145001
        12        15        17        18     9        0.000000       -1.308231         1    ;  uncertainty k = 0.869332
        12        15        17        18     9      180.000000        0.094018         2    ;  uncertainty k = 0.478296
        12        15        17        18     9        0.000000       -0.367923         3    ;  uncertainty k = 0.241802
        12        15        17        18     9      180.000000       -0.399938         4    ;  uncertainty k = 0.145659
        12        15        17        20     9        0.000000        3.553061         1    ;  uncertainty k = 0.895519
        12        15        17        20     9      180.000000       -2.208702         2    ;  uncertainty k = 0.359186
        12        15        17        20     9        0.000000        0.326549         3    ;  uncertainty k = 0.294440
        12        15        17        20     9      180.000000       -0.285750         4    ;  uncertainty k = 0.285027
        12        15        17        35     9        0.000000        2.036427         1    ;  uncertainty k = 1.131719
        12        15        17        35     9      180.000000       -2.349776         2    ;  uncertainty k = 0.563042
        12        15        17        35     9        0.000000       -0.763005         3    ;  uncertainty k = 0.211769
        12        15        17        35     9      180.000000        0.143621         4    ;  uncertainty k = 0.154913
        13        12        15        16     9        0.000000       -3.448269         1    ;  uncertainty k = 1.266604
        13        12        15        16     9      180.000000        0.305704         2    ;  uncertainty k = 0.570105
        13        12        15        16     9        0.000000        0.393945         3    ;  uncertainty k = 0.364929
        13        12        15        16     9      180.000000        0.151720         4    ;  uncertainty k = 0.175027
        13        12        15        17     9        0.000000        0.874429         1    ;  uncertainty k = 2.283968
        13        12        15        17     9      180.000000       -0.220719         2    ;  uncertainty k = 1.293880
        13        12        15        17     9        0.000000       -0.343897         3    ;  uncertainty k = 0.575670
        13        12        15        17     9      180.000000       -1.183033         4    ;  uncertainty k = 0.285774
        13        12        15        33     9        0.000000       -0.713932         1    ;  uncertainty k = 0.769816
        13        12        15        33     9      180.000000       -0.384863         2    ;  uncertainty k = 0.311310
        13        12        15        33     9        0.000000       -0.334372         3    ;  uncertainty k = 0.125597
        13        12        15        33     9      180.000000       -0.140088         4    ;  uncertainty k = 0.056708
        13        21        20        17     9        0.000000        0.917470         1    ;  uncertainty k = 0.954609
        13        21        20        17     9      180.000000       -1.288452         2    ;  uncertainty k = 0.653278
        13        21        20        17     9        0.000000       -0.220560         3    ;  uncertainty k = 0.269291
        13        21        20        17     9      180.000000        0.068427         4    ;  uncertainty k = 0.310172
        13        21        22        23     9        0.000000        2.007748         1    ;  uncertainty k = 1.077285
        13        21        22        23     9      180.000000       -1.565577         2    ;  uncertainty k = 0.676593
        13        21        22        23     9        0.000000        0.919131         3    ;  uncertainty k = 0.274750
        13        21        22        23     9      180.000000        0.227517         4    ;  uncertainty k = 0.084913
        14        13        12        15     9        0.000000       -3.578282         1    ;  uncertainty k = 1.035681
        14        13        12        15     9      180.000000        0.410067         2    ;  uncertainty k = 0.568989
        14        13        12        15     9        0.000000        0.367593         3    ;  uncertainty k = 0.369072
        14        13        12        15     9      180.000000        0.155951         4    ;  uncertainty k = 0.234608
        14        13        12        30     9        0.000000       -0.277446         1    ;  uncertainty k = 0.257119
        14        13        12        30     9      180.000000       -0.078068         2    ;  uncertainty k = 0.367591
        14        13        12        30     9        0.000000        0.607389         3    ;  uncertainty k = 0.240198
        14        13        12        30     9      180.000000       -0.047773         4    ;  uncertainty k = 0.122692
        14        13        21        20     9        0.000000       -2.698621         1    ;  uncertainty k = 1.293589
        14        13        21        20     9      180.000000       -0.125900         2    ;  uncertainty k = 1.044604
        14        13        21        20     9        0.000000        1.801831         3    ;  uncertainty k = 0.166031
        14        13        21        20     9      180.000000       -0.136263         4    ;  uncertainty k = 0.170447
        14        13        21        22     9        0.000000        5.310159         1    ;  uncertainty k = 0.577732
        14        13        21        22     9      180.000000       -1.858820         2    ;  uncertainty k = 0.847232
        14        13        21        22     9        0.000000        1.450881         3    ;  uncertainty k = 0.493019
        14        13        21        22     9      180.000000        0.366462         4    ;  uncertainty k = 0.119783
        14        13        21        39     9        0.000000       -0.793494         1    ;  uncertainty k = 0.377453
        14        13        21        39     9      180.000000        0.444309         2    ;  uncertainty k = 0.325823
        14        13        21        39     9        0.000000        0.779019         3    ;  uncertainty k = 0.275482
        14        13        21        39     9      180.000000       -0.005974         4    ;  uncertainty k = 0.167622
        15        12        13        21     9        0.000000        1.882885         1    ;  uncertainty k = 3.197102
        15        12        13        21     9      180.000000       -0.079189         2    ;  uncertainty k = 1.467430
        15        12        13        21     9        0.000000       -0.301895         3    ;  uncertainty k = 0.422850
        15        12        13        21     9      180.000000       -1.165809         4    ;  uncertainty k = 0.225366
        15        12        13        31     9        0.000000       -0.661686         1    ;  uncertainty k = 0.822951
        15        12        13        31     9      180.000000       -0.334970         2    ;  uncertainty k = 0.296578
        15        12        13        31     9        0.000000       -0.318884         3    ;  uncertainty k = 0.088763
        15        12        13        31     9      180.000000       -0.125217         4    ;  uncertainty k = 0.064688
        15        17        18        19     9        0.000000       -3.500645         1    ;  uncertainty k = 0.864914
        15        17        18        19     9      180.000000       -0.040227         2    ;  uncertainty k = 0.302685
        15        17        18        19     9        0.000000        1.496269         3    ;  uncertainty k = 0.173304
        15        17        18        19     9      180.000000       -0.330862         4    ;  uncertainty k = 0.160910
        15        17        18        36     9        0.000000       -0.389752         1    ;  uncertainty k = 0.566702
        15        17        18        36     9      180.000000       -0.633416         2    ;  uncertainty k = 0.206369
        15        17        18        36     9        0.000000        0.100397         3    ;  uncertainty k = 0.128757
        15        17        18        36     9      180.000000       -0.241270         4    ;  uncertainty k = 0.092306
        15        17        18        37     9        0.000000       -0.389752         1    ;  uncertainty k = 0.566702
        15        17        18        37     9      180.000000       -0.633416         2    ;  uncertainty k = 0.206369
        15        17        18        37     9        0.000000        0.100397         3    ;  uncertainty k = 0.128757
        15        17        18        37     9      180.000000       -0.241270         4    ;  uncertainty k = 0.092306
        15        17        20        21     9        0.000000        1.710819         1    ;  uncertainty k = 1.967719
        15        17        20        21     9      180.000000       -2.820808         2    ;  uncertainty k = 0.590799
        15        17        20        21     9        0.000000       -0.265511         3    ;  uncertainty k = 0.316061
        15        17        20        21     9      180.000000        0.030797         4    ;  uncertainty k = 0.180924
        16        15        12        30     9        0.000000       -0.321265         1    ;  uncertainty k = 0.177617
        16        15        12        30     9      180.000000       -0.103056         2    ;  uncertainty k = 0.359919
        16        15        12        30     9        0.000000        0.594651         3    ;  uncertainty k = 0.215430
        16        15        12        30     9      180.000000       -0.061306         4    ;  uncertainty k = 0.114212
        16        15        17        18     9        0.000000       -2.146249         1    ;  uncertainty k = 0.952515
        16        15        17        18     9      180.000000        0.106301         2    ;  uncertainty k = 0.229016
        16        15        17        18     9        0.000000        0.807370         3    ;  uncertainty k = 0.172859
        16        15        17        18     9      180.000000       -0.255912         4    ;  uncertainty k = 0.234311
        16        15        17        20     9        0.000000       -3.683487         1    ;  uncertainty k = 1.032183
        16        15        17        20     9      180.000000       -0.908155         2    ;  uncertainty k = 0.571417
        16        15        17        20     9        0.000000        2.093692         3    ;  uncertainty k = 0.314978
        16        15        17        20     9      180.000000       -0.114035         4    ;  uncertainty k = 0.099391
        16        15        17        35     9        0.000000       -0.332347         1    ;  uncertainty k = 0.439850
        16        15        17        35     9      180.000000       -0.000255         2    ;  uncertainty k = 0.271243
        16        15        17        35     9        0.000000        0.580127         3    ;  uncertainty k = 0.193597
        16        15        17        35     9      180.000000       -0.095134         4    ;  uncertainty k = 0.183032
        17        15        12        30     9        0.000000       -1.471971         1    ;  uncertainty k = 0.757751
        17        15        12        30     9      180.000000       -0.387765         2    ;  uncertainty k = 0.427985
        17        15        12        30     9        0.000000       -0.386106         3    ;  uncertainty k = 0.127911
        17        15        12        30     9      180.000000       -0.123242         4    ;  uncertainty k = 0.108983
        17        15        16        34     9        0.000000       18.553540         1    ;  uncertainty k = 0.350139
        17        15        16        34     9      180.000000       -4.302102         2    ;  uncertainty k = 0.320512
        17        15        16        34     9        0.000000        1.261962         3    ;  uncertainty k = 0.099603
        17        15        16        34     9      180.000000        0.432553         4    ;  uncertainty k = 0.084339
        17        18        19        38     9        0.000000       12.803371         1    ;  uncertainty k = 0.176801
        17        18        19        38     9      180.000000       -4.408763         2    ;  uncertainty k = 0.479248
        17        18        19        38     9        0.000000        1.225569         3    ;  uncertainty k = 0.219872
        17        18        19        38     9      180.000000        0.130954         4    ;  uncertainty k = 0.066305
        17        20        21        22     9        0.000000       -2.926971         1    ;  uncertainty k = 3.130055
        17        20        21        22     9      180.000000       -2.564676         2    ;  uncertainty k = 1.420082
        17        20        21        22     9        0.000000        0.716063         3    ;  uncertainty k = 0.197310
        17        20        21        22     9      180.000000       -0.095130         4    ;  uncertainty k = 0.349354
        17        20        21        39     9        0.000000       -1.916764         1    ;  uncertainty k = 0.747113
        17        20        21        39     9      180.000000        0.286798         2    ;  uncertainty k = 0.756983
        17        20        21        39     9        0.000000        0.238864         3    ;  uncertainty k = 0.128323
        17        20        21        39     9      180.000000       -0.367195         4    ;  uncertainty k = 0.168117
        18        17        15        33     9        0.000000       -1.151783         1    ;  uncertainty k = 0.623435
        18        17        15        33     9      180.000000        0.138239         2    ;  uncertainty k = 0.201798
        18        17        15        33     9        0.000000       -0.215346         3    ;  uncertainty k = 0.154972
        18        17        15        33     9      180.000000       -0.318334         4    ;  uncertainty k = 0.121552
        18        17        20        21     9        0.000000       -4.857638         1    ;  uncertainty k = 1.137696
        18        17        20        21     9      180.000000        0.917053         2    ;  uncertainty k = 0.617072
        18        17        20        21     9        0.000000        0.320186         3    ;  uncertainty k = 0.288726
        18        17        20        21     9      180.000000       -0.125902         4    ;  uncertainty k = 0.250358
        19        18        17        20     9        0.000000       -1.195280         1    ;  uncertainty k = 0.547640
        19        18        17        20     9      180.000000       -3.298099         2    ;  uncertainty k = 0.199322
        19        18        17        20     9        0.000000        2.717044         3    ;  uncertainty k = 0.305228
        19        18        17        20     9      180.000000       -0.208307         4    ;  uncertainty k = 0.128814
        19        18        17        35     9        0.000000       -2.028010         1    ;  uncertainty k = 0.722924
        19        18        17        35     9      180.000000        0.685399         2    ;  uncertainty k = 0.313942
        19        18        17        35     9        0.000000        1.166981         3    ;  uncertainty k = 0.311765
        19        18        17        35     9      180.000000       -0.195732         4    ;  uncertainty k = 0.045240
        20        17        15        33     9        0.000000       -0.095707         1    ;  uncertainty k = 0.475472
        20        17        15        33     9      180.000000       -0.600072         2    ;  uncertainty k = 0.320846
        20        17        15        33     9        0.000000        0.248942         3    ;  uncertainty k = 0.333119
        20        17        15        33     9      180.000000        0.105109         4    ;  uncertainty k = 0.089467
        20        17        18        36     9        0.000000        0.526900         1    ;  uncertainty k = 0.329165
        20        17        18        36     9      180.000000       -1.466090         2    ;  uncertainty k = 0.305903
        20        17        18        36     9        0.000000        0.270792         3    ;  uncertainty k = 0.233657
        20        17        18        36     9      180.000000       -0.091616         4    ;  uncertainty k = 0.101291
        20        17        18        37     9        0.000000        0.526900         1    ;  uncertainty k = 0.329165
        20        17        18        37     9      180.000000       -1.466090         2    ;  uncertainty k = 0.305903
        20        17        18        37     9        0.000000        0.270792         3    ;  uncertainty k = 0.233657
        20        17        18        37     9      180.000000       -0.091616         4    ;  uncertainty k = 0.101291
        20        21        13        31     9        0.000000       -0.162108         1    ;  uncertainty k = 0.690391
        20        21        13        31     9      180.000000       -0.679322         2    ;  uncertainty k = 0.276900
        20        21        13        31     9        0.000000        0.226951         3    ;  uncertainty k = 0.338395
        20        21        13        31     9      180.000000        0.125752         4    ;  uncertainty k = 0.152593
        20        21        22        23     9        0.000000        3.183562         1    ;  uncertainty k = 0.884859
        20        21        22        23     9      180.000000       -5.436577         2    ;  uncertainty k = 0.699848
        20        21        22        23     9        0.000000        1.259612         3    ;  uncertainty k = 0.434034
        20        21        22        23     9      180.000000        0.368477         4    ;  uncertainty k = 0.291496
        21        13        12        30     9        0.000000       -1.226265         1    ;  uncertainty k = 0.720609
        21        13        12        30     9      180.000000       -0.617388         2    ;  uncertainty k = 0.393468
        21        13        12        30     9        0.000000       -0.401093         3    ;  uncertainty k = 0.103574
        21        13        12        30     9      180.000000       -0.116608         4    ;  uncertainty k = 0.090880
        21        13        14        32     9        0.000000       18.425671         1    ;  uncertainty k = 0.339412
        21        13        14        32     9      180.000000       -4.642088         2    ;  uncertainty k = 0.438829
        21        13        14        32     9        0.000000        1.143722         3    ;  uncertainty k = 0.149175
        21        13        14        32     9      180.000000        0.382008         4    ;  uncertainty k = 0.101401
        21        20        17        35     9        0.000000       -2.121900         1    ;  uncertainty k = 0.521152
        21        20        17        35     9      180.000000       -1.268057         2    ;  uncertainty k = 0.577886
        21        20        17        35     9        0.000000        0.231856         3    ;  uncertainty k = 0.127960
        21        20        17        35     9      180.000000       -0.237800         4    ;  uncertainty k = 0.180440
        21        22        23        24     9        0.000000        3.177932         1    ;  uncertainty k = 2.151279
        21        22        23        24     9      180.000000        2.740787         2    ;  uncertainty k = 0.263278
        21        22        23        24     9        0.000000        0.277594         3    ;  uncertainty k = 0.291896
        21        22        23        24     9      180.000000        0.328068         4    ;  uncertainty k = 0.080835
        21        22        23        28     9        0.000000        3.177932         1    ;  uncertainty k = 2.151279
        21        22        23        28     9      180.000000        2.740787         2    ;  uncertainty k = 0.263278
        21        22        23        28     9        0.000000        0.277594         3    ;  uncertainty k = 0.291896
        21        22        23        28     9      180.000000        0.328068         4    ;  uncertainty k = 0.080835
        22        21        13        31     9        0.000000        2.581950         1    ;  uncertainty k = 0.784321
        22        21        13        31     9      180.000000       -1.367223         2    ;  uncertainty k = 0.615574
        22        21        13        31     9        0.000000        0.413421         3    ;  uncertainty k = 0.158680
        22        21        13        31     9      180.000000       -0.024784         4    ;  uncertainty k = 0.117766
        22        23        24        25     9        0.000000        0.062072         1    ;  uncertainty k = 0.417313
        22        23        24        25     9      180.000000        7.419842         2    ;  uncertainty k = 0.519111
        22        23        24        25     9        0.000000        1.109992         3    ;  uncertainty k = 0.330811
        22        23        24        25     9      180.000000        1.700873         4    ;  uncertainty k = 0.103413
        22        23        24        40     9        0.000000       -0.324403         1    ;  uncertainty k = 0.406827
        22        23        24        40     9      180.000000        6.518985         2    ;  uncertainty k = 0.532134
        22        23        24        40     9        0.000000        0.789417         3    ;  uncertainty k = 0.187425
        22        23        24        40     9      180.000000        1.036678         4    ;  uncertainty k = 0.126625
        22        23        28        27     9        0.000000        0.062072         1    ;  uncertainty k = 0.417313
        22        23        28        27     9      180.000000        7.419842         2    ;  uncertainty k = 0.519111
        22        23        28        27     9        0.000000        1.109992         3    ;  uncertainty k = 0.330811
        22        23        28        27     9      180.000000        1.700873         4    ;  uncertainty k = 0.103413
        22        23        28        43     9        0.000000       -0.324403         1    ;  uncertainty k = 0.406827
        22        23        28        43     9      180.000000        6.518985         2    ;  uncertainty k = 0.532134
        22        23        28        43     9        0.000000        0.789417         3    ;  uncertainty k = 0.187425
        22        23        28        43     9      180.000000        1.036678         4    ;  uncertainty k = 0.126625
        23        22        21        39     9        0.000000        4.078705         1    ;  uncertainty k = 1.076481
        23        22        21        39     9      180.000000       -2.455779         2    ;  uncertainty k = 0.835987
        23        22        21        39     9        0.000000        0.554515         3    ;  uncertainty k = 0.127842
        23        22        21        39     9      180.000000       -0.001864         4    ;  uncertainty k = 0.210606
        23        24        25        26     9        0.000000       -0.127263         1    ;  uncertainty k = 0.141698
        23        24        25        26     9      180.000000       14.225482         2    ;  uncertainty k = 0.114156
        23        24        25        26     9        0.000000       -0.985336         3    ;  uncertainty k = 0.627196
        23        24        25        26     9      180.000000        0.658378         4    ;  uncertainty k = 0.330608
        23        24        25        41     9        0.000000       -0.008817         1    ;  uncertainty k = 0.089727
        23        24        25        41     9      180.000000        8.312278         2    ;  uncertainty k = 0.286072
        23        24        25        41     9        0.000000        1.348940         3    ;  uncertainty k = 0.188593
        23        24        25        41     9      180.000000        1.838528         4    ;  uncertainty k = 0.183015
        23        28        27        26     9        0.000000       -0.127263         1    ;  uncertainty k = 0.141698
        23        28        27        26     9      180.000000       14.225482         2    ;  uncertainty k = 0.114156
        23        28        27        26     9        0.000000       -0.985336         3    ;  uncertainty k = 0.627196
        23        28        27        26     9      180.000000        0.658378         4    ;  uncertainty k = 0.330608
        23        28        27        42     9        0.000000       -0.008817         1    ;  uncertainty k = 0.089727
        23        28        27        42     9      180.000000        8.312278         2    ;  uncertainty k = 0.286072
        23        28        27        42     9        0.000000        1.348940         3    ;  uncertainty k = 0.188593
        23        28        27        42     9      180.000000        1.838528         4    ;  uncertainty k = 0.183015
        24        23        28        27     9        0.000000       -0.156871         1    ;  uncertainty k = 0.126213
        24        23        28        27     9      180.000000       10.965607         2    ;  uncertainty k = 0.455519
        24        23        28        27     9        0.000000       -0.528095         3    ;  uncertainty k = 0.423553
        24        23        28        27     9      180.000000        0.857619         4    ;  uncertainty k = 0.432466
        24        23        28        43     9        0.000000        0.072440         1    ;  uncertainty k = 0.376040
        24        23        28        43     9      180.000000        6.562952         2    ;  uncertainty k = 0.763072
        24        23        28        43     9        0.000000        1.445396         3    ;  uncertainty k = 0.299971
        24        23        28        43     9      180.000000        1.585416         4    ;  uncertainty k = 0.178642
        24        25        26        27     9        0.000000       -0.193178         1    ;  uncertainty k = 0.184505
        24        25        26        27     9      180.000000       11.680381         2    ;  uncertainty k = 0.380066
        24        25        26        27     9        0.000000       -0.464248         3    ;  uncertainty k = 0.440275
        24        25        26        27     9      180.000000        0.808662         4    ;  uncertainty k = 0.464268
        24        25        26        48     9        0.000000        0.085947         1    ;  uncertainty k = 0.260078
        24        25        26        48     9      180.000000        9.181143         2    ;  uncertainty k = 0.434375
        24        25        26        48     9        0.000000        1.462752         3    ;  uncertainty k = 0.304781
        24        25        26        48     9      180.000000        1.830171         4    ;  uncertainty k = 0.164748
        25        24        23        28     9        0.000000       -0.156871         1    ;  uncertainty k = 0.126213
        25        24        23        28     9      180.000000       10.965607         2    ;  uncertainty k = 0.455519
        25        24        23        28     9        0.000000       -0.528095         3    ;  uncertainty k = 0.423553
        25        24        23        28     9      180.000000        0.857619         4    ;  uncertainty k = 0.432466
        25        26        27        28     9        0.000000       -0.193178         1    ;  uncertainty k = 0.184505
        25        26        27        28     9      180.000000       11.680381         2    ;  uncertainty k = 0.380066
        25        26        27        28     9        0.000000       -0.464248         3    ;  uncertainty k = 0.440275
        25        26        27        28     9      180.000000        0.808662         4    ;  uncertainty k = 0.464268
        25        26        27        42     9        0.000000        0.033450         1    ;  uncertainty k = 0.124148
        25        26        27        42     9      180.000000        7.140961         2    ;  uncertainty k = 0.383307
        25        26        27        42     9        0.000000        1.479885         3    ;  uncertainty k = 0.375479
        25        26        27        42     9      180.000000        1.615246         4    ;  uncertainty k = 0.151832
        25        26        48        49     9        0.000000        0.024708         1    ;  uncertainty k = 0.037574
        25        26        48        49     9      180.000000        1.245377         2    ;  uncertainty k = 0.103962
        25        26        48        49     9        0.000000        0.346041         3    ;  uncertainty k = 0.034499
        25        26        48        49     9      180.000000        0.177401         4    ;  uncertainty k = 0.012952
        25        26        48        50     9        0.000000        0.024708         1    ;  uncertainty k = 0.037574
        25        26        48        50     9      180.000000        1.245377         2    ;  uncertainty k = 0.103962
        25        26        48        50     9        0.000000        0.346041         3    ;  uncertainty k = 0.034499
        25        26        48        50     9      180.000000        0.177401         4    ;  uncertainty k = 0.012952
        25        26        48        51     9        0.000000        0.024708         1    ;  uncertainty k = 0.037574
        25        26        48        51     9      180.000000        1.245377         2    ;  uncertainty k = 0.103962
        25        26        48        51     9        0.000000        0.346041         3    ;  uncertainty k = 0.034499
        25        26        48        51     9      180.000000        0.177401         4    ;  uncertainty k = 0.012952
        26        25        24        40     9        0.000000        0.124113         1    ;  uncertainty k = 0.209646
        26        25        24        40     9      180.000000        7.646778         2    ;  uncertainty k = 0.344928
        26        25        24        40     9        0.000000        1.407906         3    ;  uncertainty k = 0.235482
        26        25        24        40     9      180.000000        1.836191         4    ;  uncertainty k = 0.152560
        26        27        28        43     9        0.000000        0.124113         1    ;  uncertainty k = 0.209646
        26        27        28        43     9      180.000000        7.646778         2    ;  uncertainty k = 0.344928
        26        27        28        43     9        0.000000        1.407906         3    ;  uncertainty k = 0.235482
        26        27        28        43     9      180.000000        1.836191         4    ;  uncertainty k = 0.152560
        27        26        25        41     9        0.000000        0.033450         1    ;  uncertainty k = 0.124148
        27        26        25        41     9      180.000000        7.140961         2    ;  uncertainty k = 0.383307
        27        26        25        41     9        0.000000        1.479885         3    ;  uncertainty k = 0.375479
        27        26        25        41     9      180.000000        1.615246         4    ;  uncertainty k = 0.151832
        27        26        48        49     9        0.000000        0.024708         1    ;  uncertainty k = 0.037574
        27        26        48        49     9      180.000000        1.245377         2    ;  uncertainty k = 0.103962
        27        26        48        49     9        0.000000        0.346041         3    ;  uncertainty k = 0.034499
        27        26        48        49     9      180.000000        0.177401         4    ;  uncertainty k = 0.012952
        27        26        48        50     9        0.000000        0.024708         1    ;  uncertainty k = 0.037574
        27        26        48        50     9      180.000000        1.245377         2    ;  uncertainty k = 0.103962
        27        26        48        50     9        0.000000        0.346041         3    ;  uncertainty k = 0.034499
        27        26        48        50     9      180.000000        0.177401         4    ;  uncertainty k = 0.012952
        27        26        48        51     9        0.000000        0.024708         1    ;  uncertainty k = 0.037574
        27        26        48        51     9      180.000000        1.245377         2    ;  uncertainty k = 0.103962
        27        26        48        51     9        0.000000        0.346041         3    ;  uncertainty k = 0.034499
        27        26        48        51     9      180.000000        0.177401         4    ;  uncertainty k = 0.012952
        28        23        24        40     9        0.000000        0.072440         1    ;  uncertainty k = 0.376040
        28        23        24        40     9      180.000000        6.562952         2    ;  uncertainty k = 0.763072
        28        23        24        40     9        0.000000        1.445396         3    ;  uncertainty k = 0.299971
        28        23        24        40     9      180.000000        1.585416         4    ;  uncertainty k = 0.178642
        28        27        26        48     9        0.000000        0.085947         1    ;  uncertainty k = 0.260078
        28        27        26        48     9      180.000000        9.181143         2    ;  uncertainty k = 0.434375
        28        27        26        48     9        0.000000        1.462752         3    ;  uncertainty k = 0.304781
        28        27        26        48     9      180.000000        1.830171         4    ;  uncertainty k = 0.164748
        30        12        13        31     9        0.000000        0.737636         1    ;  uncertainty k = 0.403740
        30        12        13        31     9      180.000000       -0.466697         2    ;  uncertainty k = 0.387474
        30        12        13        31     9        0.000000       -0.165766         3    ;  uncertainty k = 0.332283
        30        12        13        31     9      180.000000       -0.168513         4    ;  uncertainty k = 0.127703
        30        12        15        33     9        0.000000        0.782112         1    ;  uncertainty k = 0.449114
        30        12        15        33     9      180.000000       -0.479108         2    ;  uncertainty k = 0.387845
        30        12        15        33     9        0.000000       -0.193577         3    ;  uncertainty k = 0.312499
        30        12        15        33     9      180.000000       -0.172114         4    ;  uncertainty k = 0.106697
        31        13        14        32     9        0.000000       15.402551         1    ;  uncertainty k = 0.447078
        31        13        14        32     9      180.000000       -1.787025         2    ;  uncertainty k = 0.288762
        31        13        14        32     9        0.000000        0.563549         3    ;  uncertainty k = 0.141418
        31        13        14        32     9      180.000000        0.388149         4    ;  uncertainty k = 0.058640
        31        13        21        39     9        0.000000       -0.190583         1    ;  uncertainty k = 0.256009
        31        13        21        39     9      180.000000       -0.018306         2    ;  uncertainty k = 0.316387
        31        13        21        39     9        0.000000        0.129412         3    ;  uncertainty k = 0.264290
        31        13        21        39     9      180.000000       -0.212594         4    ;  uncertainty k = 0.201546
        33        15        16        34     9        0.000000       15.204568         1    ;  uncertainty k = 0.383293
        33        15        16        34     9      180.000000       -2.008800         2    ;  uncertainty k = 0.361223
        33        15        16        34     9        0.000000        0.572217         3    ;  uncertainty k = 0.162951
        33        15        16        34     9      180.000000        0.405645         4    ;  uncertainty k = 0.081230
        33        15        17        35     9        0.000000        0.295960         1    ;  uncertainty k = 0.296986
        33        15        17        35     9      180.000000       -0.050225         2    ;  uncertainty k = 0.461878
        33        15        17        35     9        0.000000       -0.200187         3    ;  uncertainty k = 0.217268
        33        15        17        35     9      180.000000       -0.260240         4    ;  uncertainty k = 0.109658
        35        17        18        36     9        0.000000       -0.167653         1    ;  uncertainty k = 0.174272
        35        17        18        36     9      180.000000       -0.232874         2    ;  uncertainty k = 0.123290
        35        17        18        36     9        0.000000        0.093127         3    ;  uncertainty k = 0.089625
        35        17        18        36     9      180.000000       -0.087467         4    ;  uncertainty k = 0.104346
        35        17        18        37     9        0.000000       -0.167653         1    ;  uncertainty k = 0.174272
        35        17        18        37     9      180.000000       -0.232874         2    ;  uncertainty k = 0.123290
        35        17        18        37     9        0.000000        0.093127         3    ;  uncertainty k = 0.089625
        35        17        18        37     9      180.000000       -0.087467         4    ;  uncertainty k = 0.104346
        36        18        19        38     9        0.000000       10.479494         1    ;  uncertainty k = 0.097216
        36        18        19        38     9      180.000000       -1.870970         2    ;  uncertainty k = 0.389127
        36        18        19        38     9        0.000000        0.826769         3    ;  uncertainty k = 0.020297
        36        18        19        38     9      180.000000        0.085753         4    ;  uncertainty k = 0.063309
        37        18        19        38     9        0.000000       10.479494         1    ;  uncertainty k = 0.097216
        37        18        19        38     9      180.000000       -1.870970         2    ;  uncertainty k = 0.389127
        37        18        19        38     9        0.000000        0.826769         3    ;  uncertainty k = 0.020297
        37        18        19        38     9      180.000000        0.085753         4    ;  uncertainty k = 0.063309
        40        24        25        41     9        0.000000       -0.157292         1    ;  uncertainty k = 0.178485
        40        24        25        41     9      180.000000        7.628097         2    ;  uncertainty k = 0.442866
        40        24        25        41     9        0.000000       -0.477939         3    ;  uncertainty k = 0.282385
        40        24        25        41     9      180.000000        0.148042         4    ;  uncertainty k = 0.156058
        41        25        26        48     9        0.000000       -0.391576         1    ;  uncertainty k = 0.425690
        41        25        26        48     9      180.000000        8.399313         2    ;  uncertainty k = 0.266950
        41        25        26        48     9        0.000000        0.463757         3    ;  uncertainty k = 0.267844
        41        25        26        48     9      180.000000        0.838733         4    ;  uncertainty k = 0.257393
        42        27        26        48     9        0.000000       -0.391576         1    ;  uncertainty k = 0.425690
        42        27        26        48     9      180.000000        8.399313         2    ;  uncertainty k = 0.266950
        42        27        26        48     9        0.000000        0.463757         3    ;  uncertainty k = 0.267844
        42        27        26        48     9      180.000000        0.838733         4    ;  uncertainty k = 0.257393
        42        27        28        43     9        0.000000       -0.157292         1    ;  uncertainty k = 0.178485
        42        27        28        43     9      180.000000        7.628097         2    ;  uncertainty k = 0.442866
        42        27        28        43     9        0.000000       -0.477939         3    ;  uncertainty k = 0.282385
        42        27        28        43     9      180.000000        0.148042         4    ;  uncertainty k = 0.156058
        44         1         2        45     9        0.000000       -0.094333         1    ;  uncertainty k = 0.336011
        44         1         2        45     9      180.000000       13.344623         2    ;  uncertainty k = 0.463790
        44         1         2        45     9        0.000000        1.367857         3    ;  uncertainty k = 0.618062
        44         1         2        45     9      180.000000        1.294893         4    ;  uncertainty k = 0.454834
        44         1         3        52     9        0.000000       -0.334426         1    ;  uncertainty k = 0.589885
        44         1         3        52     9      180.000000       12.923904         2    ;  uncertainty k = 0.371859
        44         1         3        52     9        0.000000        0.929063         3    ;  uncertainty k = 0.545696
        44         1         3        52     9      180.000000        1.275011         4    ;  uncertainty k = 0.368112
        46         4         3        52     9        0.000000       -0.334426         1    ;  uncertainty k = 0.589885
        46         4         3        52     9      180.000000       12.923904         2    ;  uncertainty k = 0.371859
        46         4         3        52     9        0.000000        0.929063         3    ;  uncertainty k = 0.545696
        46         4         3        52     9      180.000000        1.275011         4    ;  uncertainty k = 0.368112
        46         4         5        47     9        0.000000       -0.094333         1    ;  uncertainty k = 0.336011
        46         4         5        47     9      180.000000       13.344624         2    ;  uncertainty k = 0.463790
        46         4         5        47     9        0.000000        1.367857         3    ;  uncertainty k = 0.618062
        46         4         5        47     9      180.000000        1.294893         4    ;  uncertainty k = 0.454834

[ dihedrals ] ; impropers
;       ai        aj        ak        al funct           phase               k        pn
         1         2         3        44     4      180.000000        9.770526         2    ;  uncertainty k = 0.078328
         1         3        44         2     4      180.000000        9.770526         2    ;  uncertainty k = 0.078328
         1        44         2         3     4      180.000000        9.770526         2    ;  uncertainty k = 0.078328
         2         1         6        45     4      180.000000       13.287886         2    ;  uncertainty k = 0.097041
         2         6        45         1     4      180.000000       13.287886         2    ;  uncertainty k = 0.097041
         2        45         1         6     4      180.000000       13.287886         2    ;  uncertainty k = 0.097041
         3         1         4        52     4      180.000000       13.604690         2    ;  uncertainty k = 0.099731
         3         4        52         1     4      180.000000       13.604690         2    ;  uncertainty k = 0.099731
         3        52         1         4     4      180.000000       13.604690         2    ;  uncertainty k = 0.099731
         4         3         5        46     4      180.000000        9.770526         2    ;  uncertainty k = 0.078328
         4         5        46         3     4      180.000000        9.770526         2    ;  uncertainty k = 0.078328
         4        46         3         5     4      180.000000        9.770526         2    ;  uncertainty k = 0.078328
         5         4         6        47     4      180.000000       13.287886         2    ;  uncertainty k = 0.097041
         5         6        47         4     4      180.000000       13.287886         2    ;  uncertainty k = 0.097041
         5        47         4         6     4      180.000000       13.287886         2    ;  uncertainty k = 0.097041
         6         2         5         7     4      180.000000       10.461281         2    ;  uncertainty k = 0.120451
         6         5         7         2     4      180.000000       10.461281         2    ;  uncertainty k = 0.120451
         6         7         2         5     4      180.000000       10.461281         2    ;  uncertainty k = 0.120451
         7         6         8        10     4      180.000000        5.007466         2    ;  uncertainty k = 0.506398
         7         8        10         6     4      180.000000        5.007466         2    ;  uncertainty k = 0.506398
         7        10         6         8     4      180.000000        5.007466         2    ;  uncertainty k = 0.506398
        10         7        11        29     4      180.000000        0.355165         2    ;  uncertainty k = 0.794172
        10        11        29         7     4      180.000000        0.355165         2    ;  uncertainty k = 0.794172
        10        29         7        11     4      180.000000        0.355165         2    ;  uncertainty k = 0.794172
        23        22        24        28     4      180.000000       11.790034         2    ;  uncertainty k = 0.101837
        23        24        28        22     4      180.000000       11.790034         2    ;  uncertainty k = 0.101837
        23        28        22        24     4      180.000000       11.790034         2    ;  uncertainty k = 0.101837
        24        23        25        40     4      180.000000        4.631440         2    ;  uncertainty k = 0.175194
        24        25        40        23     4      180.000000        4.631440         2    ;  uncertainty k = 0.175194
        24        40        23        25     4      180.000000        4.631440         2    ;  uncertainty k = 0.175194
        25        24        26        41     4      180.000000        3.995376         2    ;  uncertainty k = 0.157754
        25        26        41        24     4      180.000000        3.995376         2    ;  uncertainty k = 0.157754
        25        41        24        26     4      180.000000        3.995376         2    ;  uncertainty k = 0.157754
        26        25        27        48     4      180.000000       16.407561         2    ;  uncertainty k = 0.051646
        26        27        48        25     4      180.000000       16.407561         2    ;  uncertainty k = 0.051646
        26        48        25        27     4      180.000000       16.407561         2    ;  uncertainty k = 0.051646
        27        26        28        42     4      180.000000        3.995374         2    ;  uncertainty k = 0.157755
        27        28        42        26     4      180.000000        3.995374         2    ;  uncertainty k = 0.157755
        27        42        26        28     4      180.000000        3.995374         2    ;  uncertainty k = 0.157755
        28        23        27        43     4      180.000000        4.631443         2    ;  uncertainty k = 0.175195
        28        27        43        23     4      180.000000        4.631443         2    ;  uncertainty k = 0.175195
        28        43        23        27     4      180.000000        4.631443         2    ;  uncertainty k = 0.175195

[ pairs ]
;       ai        aj funct
         1         5     1
         1         7     1
         1        46     1
         1        53     1
         2         4     1
         2         8     1
         2        10     1
         2        47     1
         2        52     1
         3         6     1
         3        45     1
         3        47     1
         3        54     1
         3        55     1
         3        56     1
         4         7     1
         4        44     1
         4        53     1
         5         8     1
         5        10     1
         5        45     1
         5        52     1
         6         9     1
         6        11     1
         6        29     1
         6        44     1
         6        46     1
         7        12     1
         7        45     1
         7        47     1
         8        12     1
         8        29     1
         9        13     1
         9        15     1
         9        29     1
         9        30     1
        10        13     1
        10        15     1
        10        30     1
        11        14     1
        11        16     1
        11        17     1
        11        21     1
        11        31     1
        11        33     1
        12        18     1
        12        20     1
        12        22     1
        12        29     1
        12        32     1
        12        34     1
        12        35     1
        12        39     1
        13        16     1
        13        17     1
        13        23     1
        13        33     1
        14        15     1
        14        20     1
        14        22     1
        14        30     1
        14        39     1
        15        19     1
        15        21     1
        15        31     1
        15        36     1
        15        37     1
        16        18     1
        16        20     1
        16        30     1
        16        35     1
        17        22     1
        17        30     1
        17        34     1
        17        38     1
        17        39     1
        18        21     1
        18        33     1
        19        20     1
        19        35     1
        20        23     1
        20        31     1
        20        33     1
        20        36     1
        20        37     1
        21        24     1
        21        28     1
        21        30     1
        21        32     1
        21        35     1
        22        25     1
        22        27     1
        22        31     1
        22        40     1
        22        43     1
        23        26     1
        23        39     1
        23        41     1
        23        42     1
        24        27     1
        24        43     1
        24        48     1
        25        28     1
        25        42     1
        25        49     1
        25        50     1
        25        51     1
        26        40     1
        26        43     1
        27        41     1
        27        49     1
        27        50     1
        27        51     1
        28        40     1
        28        48     1
        30        31     1
        30        33     1
        31        32     1
        31        39     1
        33        34     1
        33        35     1
        35        36     1
        35        37     1
        36        38     1
        37        38     1
        40        41     1
        41        48     1
        42        43     1
        42        48     1
        44        45     1
        44        52     1
        46        47     1
        46        52     1
