clashed crystal waters from opls_stress/fxa_yoshikawa_set
9
   75SOL     OW  223   0.788   0.690   2.171
   75SOL    HW1  224   0.744   0.616   2.122
   75SOL    HW2  225   0.844   0.744   2.108
   78SOL     OW  232   0.959   0.877   2.048
   78SOL    HW1  233   1.057   0.857   2.058
   78SOL    HW2  234   0.934   0.952   2.109
  140SOL     OW  418   0.818   1.079   2.192
  140SOL    HW1  419   0.834   1.015   2.267
  140SOL    HW2  420   0.795   1.169   2.229
    6.3059    6.3059    6.3059
