Generated by PDBParser (exclude clash < 1.000 A)
567
    1SOL     OW    1   2.078   1.455   2.194
    1SOL    HW1    2   2.032   1.526   2.141
    1SOL    HW2    3   2.017   1.420   2.265
    2SOL     OW    4   2.179   0.542   3.188
    2SOL    HW1    5   2.135   0.573   3.272
    2SOL    HW2    6   2.174   0.614   3.119
    3SOL     OW    7   2.129   2.489   3.217
    3SOL    HW1    8   2.214   2.450   3.184
    3SOL    HW2    9   2.146   2.581   3.254
    4SOL     OW   10   1.489   2.436   3.524
    4SOL    HW1   11   1.577   2.425   3.570
    4SOL    HW2   12   1.458   2.347   3.489
    5SOL     OW   13   1.510   1.671   2.588
    5SOL    HW1   14   1.546   1.643   2.677
    5SOL    HW2   15   1.475   1.591   2.540
    6SOL     OW   16   1.889   1.981   4.052
    6SOL    HW1   17   1.794   1.987   4.019
    6SOL    HW2   18   1.949   2.030   3.988
    7SOL     OW   19   1.877   0.407   1.713
    7SOL    HW1   20   1.949   0.372   1.774
    7SOL    HW2   21   1.790   0.406   1.761
    8SOL     OW   22   1.018  -0.121   2.515
    8SOL    HW1   23   1.085  -0.174   2.463
    8SOL    HW2   24   0.926  -0.155   2.495
    9SOL     OW   25   1.471   0.654   3.086
    9SOL    HW1   26   1.499   0.558   3.087
    9SOL    HW2   27   1.371   0.660   3.082
   10SOL     OW   28   2.113  -0.557   2.047
   10SOL    HW1   29   2.198  -0.521   2.008
   10SOL    HW2   30   2.052  -0.584   1.972
   11SOL     OW   31   3.364   1.711   2.229
   11SOL    HW1   32   3.269   1.733   2.207
   11SOL    HW2   33   3.376   1.708   2.328
   12SOL     OW   34   1.191  -0.092   1.747
   12SOL    HW1   35   1.227  -0.010   1.702
   12SOL    HW2   36   1.265  -0.140   1.794
   13SOL     OW   37   1.469   3.070   3.132
   13SOL    HW1   38   1.550   3.082   3.188
   13SOL    HW2   39   1.454   3.152   3.077
   14SOL     OW   40  -0.154   1.194   2.519
   14SOL    HW1   41  -0.244   1.154   2.537
   14SOL    HW2   42  -0.149   1.224   2.424
   15SOL     OW   43   2.088   1.532   3.034
   15SOL    HW1   44   2.044   1.443   3.044
   15SOL    HW2   45   2.019   1.602   3.013
   16SOL     OW   46   0.762   2.790   3.458
   16SOL    HW1   47   0.842   2.849   3.467
   16SOL    HW2   48   0.681   2.846   3.438
   17SOL     OW   49   1.038   1.778   3.155
   17SOL    HW1   50   1.124   1.814   3.118
   17SOL    HW2   51   0.970   1.774   3.083
   18SOL     OW   52   1.295   1.863   2.569
   18SOL    HW1   53   1.217   1.822   2.521
   18SOL    HW2   54   1.369   1.797   2.575
   19SOL     OW   55   2.218   1.711   3.185
   19SOL    HW1   56   2.145   1.642   3.179
   19SOL    HW2   57   2.219   1.749   3.277
   20SOL     OW   58   3.611   1.495   2.202
   20SOL    HW1   59   3.543   1.432   2.241
   20SOL    HW2   60   3.570   1.586   2.192
   21SOL     OW   61   3.145   2.372   1.550
   21SOL    HW1   62   3.096   2.316   1.617
   21SOL    HW2   63   3.153   2.465   1.585
   22SOL     OW   64   0.746   2.095   3.528
   22SOL    HW1   65   0.793   2.096   3.439
   22SOL    HW2   66   0.814   2.096   3.601
   23SOL     OW   67   1.712   1.222   3.946
   23SOL    HW1   68   1.700   1.320   3.967
   23SOL    HW2   69   1.773   1.181   4.014
   24SOL     OW   70   0.950   0.420   2.861
   24SOL    HW1   71   1.028   0.358   2.852
   24SOL    HW2   72   0.965   0.481   2.938
   25SOL     OW   73   2.111   2.548   2.677
   25SOL    HW1   74   2.182   2.546   2.748
   25SOL    HW2   75   2.102   2.456   2.638
   26SOL     OW   76   2.629   0.993   3.520
   26SOL    HW1   77   2.594   0.900   3.505
   26SOL    HW2   78   2.635   1.010   3.618
   27SOL     OW   79   1.554   2.713   1.133
   27SOL    HW1   80   1.493   2.648   1.180
   27SOL    HW2   81   1.558   2.798   1.185
   28SOL     OW   82   0.784   3.144   3.585
   28SOL    HW1   83   0.823   3.189   3.666
   28SOL    HW2   84   0.720   3.073   3.615
   29SOL     OW   85   3.788   0.608   3.793
   29SOL    HW1   86   3.824   0.607   3.886
   29SOL    HW2   87   3.863   0.607   3.727
   30SOL     OW   88   0.974   0.118   2.654
   30SOL    HW1   89   1.045   0.158   2.711
   30SOL    HW2   90   0.990   0.019   2.645
   31SOL     OW   91   3.104   1.770   2.171
   31SOL    HW1   92   3.077   1.859   2.135
   31SOL    HW2   93   3.072   1.761   2.265
   32SOL     OW   94   3.838  -0.125   1.922
   32SOL    HW1   95   3.840  -0.064   2.001
   32SOL    HW2   96   3.834  -0.220   1.954
   33SOL     OW   97   1.416   2.688   3.629
   33SOL    HW1   98   1.436   2.593   3.604
   33SOL    HW2   99   1.499   2.744   3.617
   34SOL     OW  100   1.695  -0.003   3.676
   34SOL    HW1  101   1.665   0.075   3.620
   34SOL    HW2  102   1.623  -0.028   3.740
   35SOL     OW  103   1.593   0.414   1.840
   35SOL    HW1  104   1.576   0.414   1.742
   35SOL    HW2  105   1.556   0.498   1.881
   36SOL     OW  106   0.995   0.309   3.270
   36SOL    HW1  107   1.003   0.227   3.214
   36SOL    HW2  108   0.988   0.390   3.212
   37SOL     OW  109   3.537   1.755   4.202
   37SOL    HW1  110   3.482   1.723   4.125
   37SOL    HW2  111   3.494   1.729   4.288
   38SOL     OW  112   2.009   2.534   2.989
   38SOL    HW1  113   2.040   2.538   2.894
   38SOL    HW2  114   2.079   2.488   3.045
   39SOL     OW  115   3.776   0.449   2.086
   39SOL    HW1  116   3.815   0.377   2.029
   39SOL    HW2  117   3.703   0.496   2.036
   40SOL     OW  118   3.377   0.963   3.817
   40SOL    HW1  119   3.464   0.919   3.837
   40SOL    HW2  120   3.330   0.987   3.903
   41SOL     OW  121   1.778   2.478   2.745
   41SOL    HW1  122   1.877   2.482   2.761
   41SOL    HW2  123   1.731   2.530   2.816
   42SOL     OW  124   3.505  -0.200   2.132
   42SOL    HW1  125   3.545  -0.286   2.100
   42SOL    HW2  126   3.542  -0.124   2.078
   43SOL     OW  127   2.304   2.614   4.043
   43SOL    HW1  128   2.318   2.623   3.944
   43SOL    HW2  129   2.376   2.664   4.091
   44SOL     OW  130   2.408   3.195   2.103
   44SOL    HW1  131   2.353   3.149   2.033
   44SOL    HW2  132   2.376   3.168   2.193
   45SOL     OW  133   2.949   0.585   1.333
   45SOL    HW1  134   2.903   0.526   1.399
   45SOL    HW2  135   2.932   0.550   1.240
   46SOL     OW  136   3.520  -0.122   2.501
   46SOL    HW1  137   3.523  -0.024   2.518
   46SOL    HW2  138   3.449  -0.143   2.434
   47SOL     OW  139   1.972  -0.400   3.461
   47SOL    HW1  140   1.954  -0.313   3.506
   47SOL    HW2  141   1.987  -0.471   3.530
   48SOL     OW  142   1.239   0.464   3.365
   48SOL    HW1  143   1.204   0.538   3.422
   48SOL    HW2  144   1.164   0.423   3.313
   49SOL     OW  145   1.695   2.603   2.578
   49SOL    HW1  146   1.714   2.593   2.480
   49SOL    HW2  147   1.731   2.523   2.626
   50SOL     OW  148   2.949   0.553   1.027
   50SOL    HW1  149   2.949   0.563   1.127
   50SOL    HW2  150   2.857   0.529   0.996
   51SOL     OW  151   0.692   1.452   3.708
   51SOL    HW1  152   0.635   1.419   3.634
   51SOL    HW2  153   0.765   1.510   3.672
   52SOL     OW  154   0.868   0.271   3.570
   52SOL    HW1  155   0.891   0.175   3.585
   52SOL    HW2  156   0.905   0.326   3.645
   53SOL     OW  157   2.056  -0.157   2.740
   53SOL    HW1  158   2.053  -0.162   2.840
   53SOL    HW2  159   2.016  -0.240   2.702
   54SOL     OW  160   2.882   0.839   3.679
   54SOL    HW1  161   2.935   0.897   3.617
   54SOL    HW2  162   2.785   0.855   3.663
   55SOL     OW  163   3.084   1.990   3.557
   55SOL    HW1  164   3.148   1.914   3.549
   55SOL    HW2  165   3.067   2.009   3.653
   56SOL     OW  166   0.302   1.037   2.627
   56SOL    HW1  167   0.245   1.065   2.703
   56SOL    HW2  168   0.387   0.996   2.661
   57SOL     OW  169   2.339  -0.874   2.904
   57SOL    HW1  170   2.256  -0.853   2.956
   57SOL    HW2  171   2.414  -0.894   2.967
   58SOL     OW  172   1.928   2.064   0.499
   58SOL    HW1  173   1.950   2.152   0.438
   58SOL    HW2  174   1.865   1.994   0.443
   59SOL     OW  175   3.330  -0.176   2.324
   59SOL    HW1  176   3.249  -0.128   2.294
   59SOL    HW2  177   3.395  -0.184   2.248
   60SOL     OW  178   3.454   1.108   1.936
   60SOL    HW1  179   3.426   1.066   2.022
   60SOL    HW2  180   3.509   1.189   1.955
   61SOL     OW  181   1.116  -0.156   2.783
   61SOL    HW1  182   1.151  -0.247   2.804
   61SOL    HW2  183   1.066  -0.158   2.696
   62SOL     OW  184   2.897  -0.120   2.726
   62SOL    HW1  185   2.975  -0.065   2.755
   62SOL    HW2  186   2.849  -0.155   2.806
   63SOL     OW  187   1.453   2.691   3.904
   63SOL    HW1  188   1.412   2.603   3.928
   63SOL    HW2  189   1.447   2.704   3.805
   64SOL     OW  190   2.677   0.679   3.757
   64SOL    HW1  191   2.581   0.705   3.757
   64SOL    HW2  192   2.689   0.592   3.805
   65SOL     OW  193   2.643   0.536   2.376
   65SOL    HW1  194   2.660   0.472   2.451
   65SOL    HW2  195   2.579   0.606   2.406
   66SOL     OW  196   2.666   2.751   0.948
   66SOL    HW1  197   2.603   2.739   1.024
   66SOL    HW2  198   2.625   2.715   0.864
   67SOL     OW  199   2.141  -0.391   1.528
   67SOL    HW1  200   2.179  -0.481   1.507
   67SOL    HW2  201   2.130  -0.339   1.443
   68SOL     OW  202   0.282  -0.108   2.836
   68SOL    HW1  203   0.354  -0.087   2.917
   68SOL    HW2  204   0.262  -0.216   2.833
   69SOL     OW  205   3.242   1.199   1.750
   69SOL    HW1  206   3.219   1.136   1.675
   69SOL    HW2  207   3.315   1.159   1.806
   70SOL     OW  208   2.050   3.173   1.331
   70SOL    HW1  209   2.029   3.142   1.238
   70SOL    HW2  210   2.138   3.135   1.359
   71SOL     OW  211   2.251   0.048   3.631
   71SOL    HW1  212   2.281   0.144   3.632
   71SOL    HW2  213   2.198   0.030   3.548
   72SOL     OW  214   1.215   0.024   3.983
   72SOL    HW1  215   1.233   0.096   4.049
   72SOL    HW2  216   1.157  -0.046   4.025
   73SOL     OW  217   3.276   2.503   1.955
   73SOL    HW1  218   3.315   2.475   1.867
   73SOL    HW2  219   3.323   2.584   1.988
   74SOL     OW  220   2.321   1.757   3.442
   74SOL    HW1  221   2.336   1.856   3.435
   74SOL    HW2  222   2.317   1.731   3.539
   76SOL     OW  226   0.763   2.329   2.729
   76SOL    HW1  227   0.781   2.302   2.824
   76SOL    HW2  228   0.708   2.413   2.729
   77SOL     OW  229   1.865   3.358   1.507
   77SOL    HW1  230   1.870   3.306   1.592
   77SOL    HW2  231   1.920   3.312   1.437
   79SOL     OW  235   3.877   0.101   2.672
   79SOL    HW1  236   3.795   0.138   2.716
   79SOL    HW2  237   3.923   0.173   2.621
   80SOL     OW  238   0.905   1.272   1.948
   80SOL    HW1  239   0.842   1.199   1.972
   80SOL    HW2  240   0.962   1.295   2.027
   81SOL     OW  241   0.961   2.285   3.855
   81SOL    HW1  242   1.035   2.350   3.870
   81SOL    HW2  243   0.926   2.254   3.944
   82SOL     OW  244   3.293   2.367   2.156
   82SOL    HW1  245   3.352   2.428   2.104
   82SOL    HW2  246   3.217   2.420   2.196
   83SOL     OW  247   3.358   1.406   1.642
   83SOL    HW1  248   3.427   1.399   1.570
   83SOL    HW2  249   3.328   1.314   1.667
   84SOL     OW  250   2.757   3.245   1.089
   84SOL    HW1  251   2.676   3.187   1.081
   84SOL    HW2  252   2.777   3.260   1.186
   85SOL     OW  253   1.258  -0.600   3.353
   85SOL    HW1  254   1.303  -0.512   3.372
   85SOL    HW2  255   1.234  -0.645   3.438
   86SOL     OW  256   2.543   3.718   2.280
   86SOL    HW1  257   2.540   3.805   2.328
   86SOL    HW2  258   2.486   3.651   2.328
   87SOL     OW  259   3.625   0.837   3.875
   87SOL    HW1  260   3.681   0.758   3.847
   87SOL    HW2  261   3.622   0.841   3.974
   88SOL     OW  262   0.713   0.340   2.974
   88SOL    HW1  263   0.655   0.314   2.897
   88SOL    HW2  264   0.802   0.370   2.940
   89SOL     OW  265   2.588   1.067   3.780
   89SOL    HW1  266   2.513   1.022   3.829
   89SOL    HW2  267   2.652   1.107   3.846
   90SOL     OW  268   1.183   3.125   2.730
   90SOL    HW1  269   1.251   3.066   2.775
   90SOL    HW2  270   1.129   3.172   2.800
   91SOL     OW  271   3.242  -0.166   2.008
   91SOL    HW1  272   3.200  -0.127   2.089
   91SOL    HW2  273   3.339  -0.182   2.025
   92SOL     OW  274   3.077   3.295   2.484
   92SOL    HW1  275   3.157   3.299   2.424
   92SOL    HW2  276   3.014   3.225   2.450
   93SOL     OW  277   1.495   1.151   4.087
   93SOL    HW1  278   1.408   1.114   4.053
   93SOL    HW2  279   1.556   1.167   4.010
   94SOL     OW  280   1.489  -0.713   2.097
   94SOL    HW1  281   1.521  -0.766   2.175
   94SOL    HW2  282   1.516  -0.758   2.012
   95SOL     OW  283   3.293   0.173   3.493
   95SOL    HW1  284   3.247   0.138   3.411
   95SOL    HW2  285   3.270   0.270   3.505
   96SOL     OW  286   2.603  -0.003   3.350
   96SOL    HW1  287   2.635   0.037   3.265
   96SOL    HW2  288   2.643   0.046   3.427
   97SOL     OW  289   4.008  -0.129   2.338
   97SOL    HW1  290   3.955  -0.077   2.271
   97SOL    HW2  291   3.981  -0.102   2.430
   98SOL     OW  292   0.529   2.075   1.579
   98SOL    HW1  293   0.564   1.999   1.525
   98SOL    HW2  294   0.597   2.148   1.583
   99SOL     OW  295   2.327  -0.172   2.655
   99SOL    HW1  296   2.232  -0.167   2.685
   99SOL    HW2  297   2.386  -0.127   2.723
  100SOL     OW  298   1.345   3.573   1.368
  100SOL    HW1  299   1.333   3.475   1.352
  100SOL    HW2  300   1.348   3.590   1.466
  101SOL     OW  301   0.374   0.849   3.313
  101SOL    HW1  302   0.431   0.776   3.276
  101SOL    HW2  303   0.377   0.847   3.413
  102SOL     OW  304   1.913  -0.121   3.605
  102SOL    HW1  305   1.963  -0.062   3.541
  102SOL    HW2  306   1.828  -0.075   3.632
  103SOL     OW  307   3.370   2.420   1.722
  103SOL    HW1  308   3.465   2.429   1.692
  103SOL    HW2  309   3.317   2.375   1.650
  104SOL     OW  310   2.382   0.889   0.684
  104SOL    HW1  311   2.480   0.883   0.665
  104SOL    HW2  312   2.331   0.892   0.598
  105SOL     OW  313   2.689   3.667   2.043
  105SOL    HW1  314   2.694   3.575   2.081
  105SOL    HW2  315   2.638   3.726   2.105
  106SOL     OW  316   0.940  -0.182   1.587
  106SOL    HW1  317   0.924  -0.113   1.516
  106SOL    HW2  318   1.020  -0.157   1.641
  107SOL     OW  319   1.288  -0.670   2.210
  107SOL    HW1  320   1.272  -0.678   2.309
  107SOL    HW2  321   1.247  -0.586   2.176
  108SOL     OW  322   2.625   0.483   1.051
  108SOL    HW1  323   2.540   0.535   1.043
  108SOL    HW2  324   2.703   0.544   1.037
  109SOL     OW  325   3.444  -0.247   3.166
  109SOL    HW1  326   3.412  -0.155   3.145
  109SOL    HW2  327   3.449  -0.260   3.265
  110SOL     OW  328   2.462  -0.024   2.893
  110SOL    HW1  329   2.532   0.018   2.951
  110SOL    HW2  330   2.392  -0.065   2.951
  111SOL     OW  331   0.733   1.075   3.998
  111SOL    HW1  332   0.769   1.003   3.938
  111SOL    HW2  333   0.746   1.049   4.093
  112SOL     OW  334   0.324   1.273   3.728
  112SOL    HW1  335   0.386   1.299   3.655
  112SOL    HW2  336   0.368   1.291   3.817
  113SOL     OW  337   1.466  -0.047   3.848
  113SOL    HW1  338   1.381  -0.023   3.894
  113SOL    HW2  339   1.537  -0.067   3.916
  114SOL     OW  340   3.324   2.138   2.182
  114SOL    HW1  341   3.242   2.090   2.152
  114SOL    HW2  342   3.311   2.237   2.171
  115SOL     OW  343   3.553   0.689   1.878
  115SOL    HW1  344   3.606   0.768   1.849
  115SOL    HW2  345   3.515   0.643   1.797
  116SOL     OW  346   0.909   3.285   3.842
  116SOL    HW1  347   0.890   3.331   3.929
  116SOL    HW2  348   0.937   3.354   3.775
  117SOL     OW  349   1.744  -0.085   1.050
  117SOL    HW1  350   1.681  -0.009   1.034
  117SOL    HW2  351   1.784  -0.076   1.141
  118SOL     OW  352   2.325  -0.193   1.334
  118SOL    HW1  353   2.226  -0.207   1.326
  118SOL    HW2  354   2.351  -0.190   1.430
  119SOL     OW  355   2.065  -0.229   1.313
  119SOL    HW1  356   2.021  -0.313   1.284
  119SOL    HW2  357   1.996  -0.160   1.334
  120SOL     OW  358   2.663  -0.331   2.021
  120SOL    HW1  359   2.580  -0.372   2.057
  120SOL    HW2  360   2.722  -0.302   2.097
  121SOL     OW  361   3.436   0.531   1.684
  121SOL    HW1  362   3.483   0.503   1.589
  121SOL    HW2  363   3.336   0.486   1.690
  122SOL     OW  364   2.007   0.420   0.307
  122SOL    HW1  365   1.967   0.475   0.381
  122SOL    HW2  366   2.060   0.346   0.347
  123SOL     OW  367   2.906   1.039   0.638
  123SOL    HW1  368   2.844   1.110   0.672
  123SOL    HW2  369   2.905   1.039   0.538
  124SOL     OW  370   3.325   2.225   1.083
  124SOL    HW1  371   3.346   2.177   1.168
  124SOL    HW2  372   3.285   2.314   1.103
  125SOL     OW  373   0.329   1.642   2.405
  125SOL    HW1  374   0.392   1.703   2.453
  125SOL    HW2  375   0.349   1.645   2.307
  126SOL     OW  376   3.419   2.021   1.795
  126SOL    HW1  377   3.482   2.085   1.859
  126SOL    HW2  378   3.355   1.958   1.858
  127SOL     OW  379   3.390   2.698   2.036
  127SOL    HW1  380   3.422   2.711   2.130
  127SOL    HW2  381   3.413   2.778   1.981
  128SOL     OW  382   2.776  -0.043   2.513
  128SOL    HW1  383   2.755   0.054   2.520
  128SOL    HW2  384   2.823  -0.073   2.596
  129SOL     OW  385   0.871   2.805   2.424
  129SOL    HW1  386   0.786   2.781   2.470
  129SOL    HW2  387   0.851   2.859   2.343
  130SOL     OW  388   3.663   1.540   1.091
  130SOL    HW1  389   3.596   1.581   1.030
  130SOL    HW2  390   3.622   1.461   1.137
  131SOL     OW  391   3.039   3.443   2.698
  131SOL    HW1  392   3.054   3.387   2.617
  131SOL    HW2  393   3.053   3.388   2.780
  132SOL     OW  394   0.745   2.490   2.458
  132SOL    HW1  395   0.751   2.439   2.544
  132SOL    HW2  396   0.788   2.580   2.469
  133SOL     OW  397   3.188   1.278   3.887
  133SOL    HW1  398   3.193   1.258   3.985
  133SOL    HW2  399   3.210   1.195   3.835
  134SOL     OW  400   2.566  -0.050   1.637
  134SOL    HW1  401   2.491   0.012   1.611
  134SOL    HW2  402   2.572  -0.055   1.737
  135SOL     OW  403   1.053   2.861   1.525
  135SOL    HW1  404   0.970   2.816   1.560
  135SOL    HW2  405   1.109   2.892   1.602
  136SOL     OW  406   1.646   0.859   3.962
  136SOL    HW1  407   1.584   0.908   4.023
  136SOL    HW2  408   1.690   0.924   3.899
  137SOL     OW  409   2.460  -0.430   2.108
  137SOL    HW1  410   2.441  -0.332   2.103
  137SOL    HW2  411   2.457  -0.460   2.203
  138SOL     OW  412   0.677   0.283   1.591
  138SOL    HW1  413   0.665   0.383   1.546
  138SOL    HW2  414   0.617   0.210   1.536
  139SOL     OW  415   2.314   1.697   0.423
  139SOL    HW1  416   2.243   1.712   0.491
  139SOL    HW2  417   2.401   1.679   0.469
  141SOL     OW  421   1.782   0.927   4.158
  141SOL    HW1  422   1.754   0.848   4.104
  141SOL    HW2  423   1.774   0.905   4.255
  142SOL     OW  424   3.854   0.505   2.333
  142SOL    HW1  425   3.875   0.603   2.326
  142SOL    HW2  426   3.780   0.482   2.270
  143SOL     OW  427   1.464   2.398   0.931
  143SOL    HW1  428   1.448   2.441   1.020
  143SOL    HW2  429   1.500   2.305   0.946
  144SOL     OW  430   3.788   1.593   3.300
  144SOL    HW1  431   3.810   1.502   3.263
  144SOL    HW2  432   3.690   1.607   3.297
  145SOL     OW  433   2.851   0.422   3.878
  145SOL    HW1  434   2.827   0.419   3.975
  145SOL    HW2  435   2.944   0.458   3.869
  146SOL     OW  436   2.394   3.515   3.009
  146SOL    HW1  437   2.487   3.491   3.035
  146SOL    HW2  438   2.339   3.529   3.091
  147SOL     OW  439   0.615   0.654   1.904
  147SOL    HW1  440   0.638   0.577   1.964
  147SOL    HW2  441   0.592   0.733   1.960
  148SOL     OW  442   1.839   3.040   3.344
  148SOL    HW1  443   1.794   3.111   3.290
  148SOL    HW2  444   1.908   2.994   3.287
  149SOL     OW  445   3.378   2.106   1.296
  149SOL    HW1  446   3.440   2.146   1.377
  149SOL    HW2  447   3.344   2.005   1.322
  150SOL     OW  448   4.288   1.157   3.074
  150SOL    HW1  449   4.258   1.166   2.978
  150SOL    HW2  450   4.294   1.248   3.115
  151SOL     OW  451   3.817   0.153   3.572
  151SOL    HW1  452   3.760   0.232   3.595
  151SOL    HW2  453   3.848   0.108   3.656
  152SOL     OW  454   3.419   2.857   3.097
  152SOL    HW1  455   3.364   2.784   3.136
  152SOL    HW2  456   3.459   2.912   3.170
  153SOL     OW  457   5.115   0.208   3.274
  153SOL    HW1  458   5.158   0.298   3.322
  153SOL    HW2  459   5.167   0.119   3.312
  154SOL     OW  460   3.651   1.337   3.317
  154SOL    HW1  461   3.577   1.305   3.376
  154SOL    HW2  462   3.731   1.278   3.329
  155SOL     OW  463   3.574   2.153   2.491
  155SOL    HW1  464   3.673   2.143   2.490
  155SOL    HW2  465   3.542   2.179   2.400
  156SOL     OW  466   4.932   0.921   2.950
  156SOL    HW1  467   4.901   0.991   3.014
  156SOL    HW2  468   4.967   0.843   3.000
  157SOL     OW  469   4.119   1.579   3.789
  157SOL    HW1  470   4.178   1.593   3.868
  157SOL    HW2  471   4.173   1.542   3.713
  158SOL     OW  472   3.451   2.941   2.408
  158SOL    HW1  473   3.483   2.889   2.487
  158SOL    HW2  474   3.400   3.022   2.439
  159SOL     OW  475   4.130   0.767   3.844
  159SOL    HW1  476   4.197   0.767   3.769
  159SOL    HW2  477   4.153   0.694   3.909
  160SOL     OW  478   3.885   0.305   3.158
  160SOL    HW1  479   3.898   0.399   3.191
  160SOL    HW2  480   3.791   0.293   3.127
  161SOL     OW  481   3.239   2.615   3.224
  161SOL    HW1  482   3.192   2.545   3.172
  161SOL    HW2  483   3.223   2.601   3.322
  162SOL     OW  484   3.868   0.055   3.924
  162SOL    HW1  485   3.838   0.073   4.028
  162SOL    HW2  486   3.794  -0.011   3.875
  163SOL     OW  487   2.387   1.839   3.866
  163SOL    HW1  488   2.344   1.920   3.905
  163SOL    HW2  489   2.419   1.779   3.939
  164SOL     OW  490   3.417   2.481   2.404
  164SOL    HW1  491   3.387   2.497   2.498
  164SOL    HW2  492   3.343   2.440   2.352
  165SOL     OW  493   4.391   0.589   4.059
  165SOL    HW1  494   4.291   0.589   4.063
  165SOL    HW2  495   4.423   0.675   4.021
  166SOL     OW  496   3.146   2.468   3.021
  166SOL    HW1  497   3.201   2.403   2.968
  166SOL    HW2  498   3.083   2.417   3.080
  167SOL     OW  499   5.306   0.359   2.638
  167SOL    HW1  500   5.247   0.343   2.559
  167SOL    HW2  501   5.273   0.304   2.715
  168SOL     OW  502   3.455   1.954   2.286
  168SOL    HW1  503   3.415   2.039   2.253
  168SOL    HW2  504   3.534   1.973   2.344
  169SOL     OW  505   4.835   0.481   3.551
  169SOL    HW1  506   4.746   0.521   3.531
  169SOL    HW2  507   4.848   0.475   3.650
  170SOL     OW  508   5.052   1.776   3.580
  170SOL    HW1  509   5.005   1.695   3.615
  170SOL    HW2  510   5.085   1.832   3.657
  171SOL     OW  511   4.446   1.438   2.461
  171SOL    HW1  512   4.384   1.505   2.420
  171SOL    HW2  513   4.486   1.475   2.545
  172SOL     OW  514   4.208   2.055   2.194
  172SOL    HW1  515   4.288   2.113   2.241
  172SOL    HW2  516   4.247   2.005   2.104
  173SOL     OW  517   4.002   0.296   2.534
  173SOL    HW1  518   4.046   0.339   2.612
  173SOL    HW2  519   3.958   0.366   2.477
  174SOL     OW  520   3.652   0.382   3.640
  174SOL    HW1  521   3.697   0.456   3.690
  174SOL    HW2  522   3.613   0.317   3.704
  175SOL     OW  523   5.051   2.070   3.347
  175SOL    HW1  524   5.148   2.077   3.326
  175SOL    HW2  525   5.038   2.069   3.446
  176SOL     OW  526   4.801   1.091   2.534
  176SOL    HW1  527   4.737   1.067   2.607
  176SOL    HW2  528   4.887   1.124   2.575
  177SOL     OW  529   3.810   2.758   3.080
  177SOL    HW1  530   3.811   2.727   2.985
  177SOL    HW2  531   3.848   2.850   3.085
  178SOL     OW  532   4.216   1.291   2.213
  178SOL    HW1  533   4.173   1.342   2.287
  178SOL    HW2  534   4.276   1.221   2.252
  179SOL     OW  535   2.764   3.420   3.112
  179SOL    HW1  536   2.814   3.390   3.194
  179SOL    HW2  537   2.682   3.470   3.139
  180SOL     OW  538   4.553   0.227   3.768
  180SOL    HW1  539   4.465   0.201   3.730
  180SOL    HW2  540   4.627   0.186   3.714
  181SOL     OW  541   3.180   2.284   3.643
  181SOL    HW1  542   3.118   2.335   3.583
  181SOL    HW2  543   3.165   2.186   3.630
  182SOL     OW  544   3.929   1.729   3.373
  182SOL    HW1  545   4.006   1.679   3.410
  182SOL    HW2  546   3.845   1.677   3.389
  183SOL     OW  547   3.143   2.843   3.377
  183SOL    HW1  548   3.184   2.768   3.429
  183SOL    HW2  549   3.163   2.831   3.280
  184SOL     OW  550   4.701   1.700   2.491
  184SOL    HW1  551   4.791   1.730   2.459
  184SOL    HW2  552   4.652   1.653   2.418
  185SOL     OW  553   4.232   1.674   2.319
  185SOL    HW1  554   4.183   1.596   2.357
  185SOL    HW2  555   4.243   1.744   2.389
  186SOL     OW  556   4.771  -0.163   3.645
  186SOL    HW1  557   4.804  -0.068   3.691
  186SOL    HW2  558   4.835  -0.245   3.681
  187SOL     OW  559   4.784   1.849   3.708
  187SOL    HW1  560   4.872   1.825   3.666
  187SOL    HW2  561   4.793   1.846   3.808
  188SOL     OW  562   4.163  -0.341   3.141
  188SOL    HW1  563   4.084  -0.324   3.200
  188SOL    HW2  564   4.213  -0.255   3.126
  189SOL     OW  565   5.158   1.532   2.865
  189SOL    HW1  566   5.114   1.563   2.949
  189SOL    HW2  567   5.237   1.475   2.888
  190SOL     OW  568   3.728   2.625   3.273
  190SOL    HW1  569   3.761   2.679   3.195
  190SOL    HW2  570   3.756   2.670   3.358
  191SOL     OW  571   3.885   1.623   3.783
  191SOL    HW1  572   3.840   1.555   3.725
  191SOL    HW2  573   3.983   1.604   3.786
  192SOL     OW  574   4.587   0.381   3.974
  192SOL    HW1  575   4.509   0.442   3.983
  192SOL    HW2  576   4.574   0.322   3.894
    6.3059    6.3059    6.3059
