; ITP file created by ByteFF-ML, 2025-12-06 03:39:13.536673

[ atomtypes ]
;name           bonded.type        at.num        mass        charge   ptype           sigma         epsilon
 h0bf                                   1      0.0000       0.00000       A     2.62467e-01     6.73573e-02
 c1bf                                   6      0.0000       0.00000       A     3.31494e-01     4.13235e-01
 c2bf                                   6      0.0000       0.00000       A     3.31470e-01     4.12619e-01
 c3bf                                   6      0.0000       0.00000       A     3.31452e-01     4.10078e-01
 c4bf                                   6      0.0000       0.00000       A     3.31538e-01     4.12705e-01
 c5bf                                   6      0.0000       0.00000       A     3.31553e-01     4.13286e-01
 c6bf                                   6      0.0000       0.00000       A     3.31484e-01     4.13026e-01
 c7bf                                   6      0.0000       0.00000       A     3.31494e-01     4.13000e-01
 c8bf                                   6      0.0000       0.00000       A     3.31484e-01     4.13026e-01
 c9bf                                   6      0.0000       0.00000       A     3.31553e-01     4.13286e-01
 c10bf                                  6      0.0000       0.00000       A     3.31482e-01     4.13304e-01
 c11bf                                  6      0.0000       0.00000       A     3.31465e-01     4.13261e-01
 c12bf                                  6      0.0000       0.00000       A     3.31307e-01     4.12700e-01
 c13bf                                  6      0.0000       0.00000       A     3.39665e-01     4.55362e-01
 c14bf                                  6      0.0000       0.00000       A     3.39825e-01     4.50243e-01
 c15bf                                  6      0.0000       0.00000       A     3.31332e-01     4.12707e-01
 n16bf                                  7      0.0000       0.00000       A     3.38783e-01     3.92738e-01
 o17bf                                  8      0.0000       0.00000       A     3.24179e-01     3.84587e-01
 c18bf                                  6      0.0000       0.00000       A     3.31376e-01     4.11971e-01
 c19bf                                  6      0.0000       0.00000       A     3.39868e-01     4.52158e-01
 c20bf                                  6      0.0000       0.00000       A     3.31469e-01     4.12873e-01
 n21bf                                  7      0.0000       0.00000       A     3.38241e-01     3.91806e-01
 c22bf                                  6      0.0000       0.00000       A     3.31382e-01     4.14783e-01
 n23bf                                  7      0.0000       0.00000       A     3.36784e-01     4.72733e-01
 n24bf                                  7      0.0000       0.00000       A     3.38303e-01     3.93616e-01
 c25bf                                  6      0.0000       0.00000       A     3.31230e-01     4.14413e-01
 h26bf                                  1      0.0000       0.00000       A     2.62514e-01     6.73876e-02
 h27bf                                  1      0.0000       0.00000       A     2.62472e-01     6.74738e-02
 h28bf                                  1      0.0000       0.00000       A     2.62467e-01     6.73573e-02
 h29bf                                  1      0.0000       0.00000       A     2.62472e-01     6.74738e-02
 h30bf                                  1      0.0000       0.00000       A     2.62458e-01     6.72647e-02
 h31bf                                  1      0.0000       0.00000       A     2.62567e-01     6.76941e-02
 h32bf                                  1      0.0000       0.00000       A     2.59862e-01     8.72523e-02
 h33bf                                  1      0.0000       0.00000       A     2.59890e-01     8.73641e-02
 h34bf                                  1      0.0000       0.00000       A     2.59890e-01     8.73641e-02
 h35bf                                  1      0.0000       0.00000       A     5.35355e-02     2.08814e-02
 h36bf                                  1      0.0000       0.00000       A     2.59803e-01     8.72028e-02
 h37bf                                  1      0.0000       0.00000       A     2.59803e-01     8.72028e-02
 h38bf                                  1      0.0000       0.00000       A     1.10066e-01     4.24315e-02
 h39bf                                  1      0.0000       0.00000       A     1.10066e-01     4.24315e-02
 h40bf                                  1      0.0000       0.00000       A     2.62467e-01     6.73573e-02
 h41bf                                  1      0.0000       0.00000       A     2.62457e-01     6.73477e-02
 h42bf                                  1      0.0000       0.00000       A     2.53485e-01     6.65513e-02

[ moleculetype ]
;name             nrexcl
 14                    3

[ atoms ]
;       nr            type      resi   res      atom      cgnr      charge          mass ; qtot
         1            h0bf         1   UNL        h0         1     0.11766        1.0080 ; qtot    0.118
         2            c1bf         1   UNL        c1         2    -0.11732       12.0110 ; qtot    0.000
         3            c2bf         1   UNL        c2         3    -0.10324       12.0110 ; qtot   -0.103
         4            c3bf         1   UNL        c3         4    -0.03527       12.0110 ; qtot   -0.138
         5            c4bf         1   UNL        c4         5    -0.04468       12.0110 ; qtot   -0.183
         6            c5bf         1   UNL        c5         6    -0.10079       12.0110 ; qtot   -0.284
         7            c6bf         1   UNL        c6         7    -0.11595       12.0110 ; qtot   -0.400
         8            c7bf         1   UNL        c7         8    -0.10311       12.0110 ; qtot   -0.503
         9            c8bf         1   UNL        c8         9    -0.11595       12.0110 ; qtot   -0.619
        10            c9bf         1   UNL        c9        10    -0.10079       12.0110 ; qtot   -0.719
        11           c10bf         1   UNL       c10        11    -0.10377       12.0110 ; qtot   -0.823
        12           c11bf         1   UNL       c11        12    -0.11071       12.0110 ; qtot   -0.934
        13           c12bf         1   UNL       c12        13    -0.06651       12.0110 ; qtot   -1.000
        14           c13bf         1   UNL       c13        14    -0.00381       12.0110 ; qtot   -1.004
        15           c14bf         1   UNL       c14        15    -0.12024       12.0110 ; qtot   -1.124
        16           c15bf         1   UNL       c15        16     0.44311       12.0110 ; qtot   -0.681
        17           n16bf         1   UNL       n16        17    -0.32189       14.0070 ; qtot   -1.003
        18           o17bf         1   UNL       o17        18    -0.52066       15.9990 ; qtot   -1.524
        19           c18bf         1   UNL       c18        19    -0.30594       12.0110 ; qtot   -1.830
        20           c19bf         1   UNL       c19        20    -0.13468       12.0110 ; qtot   -1.965
        21           c20bf         1   UNL       c20        21     0.17790       12.0110 ; qtot   -1.787
        22           n21bf         1   UNL       n21        22    -0.24095       14.0070 ; qtot   -2.028
        23           c22bf         1   UNL       c22        23     0.36756       12.0110 ; qtot   -1.660
        24           n23bf         1   UNL       n23        24    -1.03015       14.0070 ; qtot   -2.690
        25           n24bf         1   UNL       n24        25    -0.24637       14.0070 ; qtot   -2.937
        26           c25bf         1   UNL       c25        26     0.18835       12.0110 ; qtot   -2.748
        27           h26bf         1   UNL       h26        27     0.11442        1.0080 ; qtot   -2.634
        28           h27bf         1   UNL       h27        28     0.11812        1.0080 ; qtot   -2.516
        29           h28bf         1   UNL       h28        29     0.11544        1.0080 ; qtot   -2.400
        30           h29bf         1   UNL       h29        30     0.11812        1.0080 ; qtot   -2.282
        31           h30bf         1   UNL       h30        31     0.11691        1.0080 ; qtot   -2.165
        32           h31bf         1   UNL       h31        32     0.11517        1.0080 ; qtot   -2.050
        33           h32bf         1   UNL       h32        33     0.06435        1.0080 ; qtot   -1.986
        34           h33bf         1   UNL       h33        34     0.06967        1.0080 ; qtot   -1.916
        35           h34bf         1   UNL       h34        35     0.06967        1.0080 ; qtot   -1.846
        36           h35bf         1   UNL       h35        36     0.46640        1.0080 ; qtot   -1.380
        37           h36bf         1   UNL       h36        37     0.07439        1.0080 ; qtot   -1.306
        38           h37bf         1   UNL       h37        38     0.07439        1.0080 ; qtot   -1.231
        39           h38bf         1   UNL       h38        39     0.47748        1.0080 ; qtot   -0.754
        40           h39bf         1   UNL       h39        40     0.47748        1.0080 ; qtot   -0.276
        41           h40bf         1   UNL       h40        41     0.11544        1.0080 ; qtot   -0.161
        42           h41bf         1   UNL       h41        42     0.11588        1.0080 ; qtot   -0.045
        43           h42bf         1   UNL       h42        43     0.04487        1.0080 ; qtot   -0.000

[ bonds ]
;       ai        aj funct               r               k
         1         2     1        0.108618   320015.272754
         2         3     1        0.139542   318239.728613
         2        11     1        0.139745   308518.185205
         3         4     1        0.140450   288678.200635
         3        27     1        0.108613   317373.203418
         4         5     1        0.149148   211936.926929
         4        13     1        0.141299   253595.166553
         5         6     1        0.140455   284508.271582
         5        10     1        0.140455   284508.271582
         6         7     1        0.139745   312127.370410
         6        28     1        0.108588   319092.157324
         7         8     1        0.139950   305544.516504
         7        41     1        0.108644   319100.278125
         8         9     1        0.139950   305544.516504
         8        42     1        0.108618   320581.609229
         9        10     1        0.139745   312127.370410
         9        29     1        0.108644   319100.278125
        10        30     1        0.108588   319092.157324
        11        12     1        0.139636   315996.191406
        11        31     1        0.108624   319818.458252
        12        13     1        0.140348   289083.065967
        12        32     1        0.108568   317401.013330
        13        14     1        0.152004   181416.569873
        14        15     1        0.154383   168389.056128
        14        20     1        0.153985   175008.262109
        14        33     1        0.109426   301161.173828
        15        16     1        0.151099   189285.613062
        15        34     1        0.109393   299748.614160
        15        35     1        0.109393   299748.614160
        16        17     1        0.129024   505805.864258
        16        19     1        0.147226   207710.816235
        17        18     1        0.140889   209139.081226
        18        36     1        0.097167   471574.697070
        19        21     1        0.140933   265953.774023
        19        26     1        0.140548   276607.804980
        20        21     1        0.150717   198828.486084
        20        37     1        0.109488   297783.993262
        20        38     1        0.109488   297783.993262
        21        22     1        0.133615   329331.516699
        22        23     1        0.134833   264285.587891
        23        24     1        0.136602   334912.115674
        23        25     1        0.135162   257250.982520
        24        39     1        0.101078   429790.878711
        24        40     1        0.101078   429790.878711
        25        26     1        0.133129   358360.289502
        26        43     1        0.108718   318089.008594

[ angles ]
;       ai        aj        ak funct           theta             cth
         1         2         3     1      120.138390      441.278888
         1         2        11     1      120.604736      435.804977
         2         3         4     1      121.535118      692.358087
         2         3        27     1      119.741745      438.829017
         2        11        12     1      119.661972      696.587671
         2        11        31     1      120.383385      430.838775
         3         2        11     1      119.229958      699.114951
         3         4         5     1      117.604202      548.330259
         3         4        13     1      119.374527      705.474330
         4         3        27     1      118.710289      420.421326
         4         5         6     1      120.726463      487.151197
         4         5        10     1      120.726463      487.151197
         4        13        12     1      118.236794      709.317473
         4        13        14     1      122.408897      451.609670
         5         4        13     1      122.922569      400.240402
         5         6         7     1      120.745651      712.883539
         5         6        28     1      119.384232      395.118583
         5        10         9     1      120.745651      712.883539
         5        10        30     1      119.384232      395.118583
         6         5        10     1      118.583572      713.055723
         6         7         8     1      120.208145      717.489795
         6         7        41     1      119.684586      429.994805
         7         6        28     1      119.909500      421.161647
         7         8         9     1      119.502403      668.838473
         7         8        42     1      120.262772      428.502417
         8         7        41     1      120.096313      440.275088
         8         9        10     1      120.208145      717.489795
         8         9        29     1      120.096313      440.275152
         9         8        42     1      120.262772      428.502417
         9        10        30     1      119.909500      421.161647
        10         9        29     1      119.684586      429.994805
        11        12        13     1      121.957687      694.411845
        11        12        32     1      118.875656      440.497676
        12        11        31     1      119.954834      436.406886
        12        13        14     1      119.198242      541.172335
        13        12        32     1      119.234924      407.678117
        13        14        15     1      112.660179      590.298966
        13        14        20     1      112.825562      589.402230
        13        14        33     1      107.424438      496.508920
        14        15        16     1      111.296852      657.811167
        14        15        34     1      109.997482      472.365083
        14        15        35     1      109.997482      472.365083
        14        20        21     1      112.244736      602.555885
        14        20        37     1      110.397156      467.934842
        14        20        38     1      110.397156      467.934842
        15        14        20     1      109.437378      562.868407
        15        14        33     1      106.866989      477.077318
        15        16        17     1      120.013954      430.434427
        15        16        19     1      117.144836      492.617224
        16        15        34     1      109.020767      496.858874
        16        15        35     1      109.020767      496.858874
        16        17        18     1      113.112999      801.250492
        16        19        21     1      120.230179      594.837421
        16        19        26     1      123.885643      513.558484
        17        16        19     1      124.515732      399.499155
        17        18        36     1      102.120956      637.494481
        19        21        20     1      120.517761      491.679661
        19        21        22     1      122.318359      740.579364
        19        26        25     1      123.672630      754.235333
        19        26        43     1      119.552567      405.439119
        20        14        33     1      107.054832      476.795516
        20        21        22     1      116.985374      443.595327
        21        19        26     1      115.494774      773.622596
        21        20        37     1      108.391708      512.454291
        21        20        38     1      108.391701      512.454291
        21        22        23     1      116.580101      849.389540
        22        23        24     1      116.771118      577.833792
        22        23        25     1      126.387306      667.883513
        23        24        39     1      117.066307      464.047775
        23        24        40     1      117.066307      464.047775
        23        25        26     1      115.779945      941.439838
        24        23        25     1      116.752159      621.263030
        25        26        43     1      116.720825      391.075612
        34        15        35     1      107.146935      354.809629
        37        20        38     1      106.633507      364.405038
        39        24        40     1      117.697060      318.890408

[ dihedrals ] ; propers for gromacs 4.5 or higher, use funct 9
;       ai        aj        ak        al funct           phase               k        pn
         1         2         3         4     9        0.000000        0.043212         1
         1         2         3         4     9      180.000000       14.405792         2
         1         2         3         4     9        0.000000       -0.636118         3
         1         2         3         4     9      180.000000        0.083827         4
         1         2         3        27     9        0.000000       -0.250929         1
         1         2         3        27     9      180.000000       11.787686         2
         1         2         3        27     9        0.000000       -0.721327         3
         1         2         3        27     9      180.000000        0.355325         4
         1         2        11        12     9        0.000000        0.007715         1
         1         2        11        12     9      180.000000       14.217533         2
         1         2        11        12     9        0.000000       -0.761854         3
         1         2        11        12     9      180.000000        0.122580         4
         1         2        11        31     9        0.000000       -0.165477         1
         1         2        11        31     9      180.000000       10.873132         2
         1         2        11        31     9        0.000000       -0.445365         3
         1         2        11        31     9      180.000000        0.213421         4
         2         3         4         5     9        0.000000        0.307734         1
         2         3         4         5     9      180.000000       17.844915         2
         2         3         4         5     9        0.000000        0.029045         3
         2         3         4         5     9      180.000000       -0.354393         4
         2         3         4        13     9        0.000000       -0.090251         1
         2         3         4        13     9      180.000000       19.246735         2
         2         3         4        13     9        0.000000       -1.507622         3
         2         3         4        13     9      180.000000       -0.385719         4
         2        11        12        13     9        0.000000        0.022119         1
         2        11        12        13     9      180.000000       18.939112         2
         2        11        12        13     9        0.000000       -1.744548         3
         2        11        12        13     9      180.000000       -0.417055         4
         2        11        12        32     9        0.000000        0.054621         1
         2        11        12        32     9      180.000000       14.958405         2
         2        11        12        32     9        0.000000       -0.749325         3
         2        11        12        32     9      180.000000        0.148597         4
         3         2        11        12     9        0.000000        0.029203         1
         3         2        11        12     9      180.000000       18.341344         2
         3         2        11        12     9        0.000000       -1.657321         3
         3         2        11        12     9      180.000000       -0.378095         4
         3         2        11        31     9        0.000000        0.085827         1
         3         2        11        31     9      180.000000       14.059096         2
         3         2        11        31     9        0.000000       -0.779413         3
         3         2        11        31     9      180.000000        0.125663         4
         3         4         5         6     9        0.000000       -0.209146         1
         3         4         5         6     9      180.000000        4.224479         2
         3         4         5         6     9        0.000000        0.023472         3
         3         4         5         6     9      180.000000        0.414751         4
         3         4         5        10     9        0.000000       -0.209146         1
         3         4         5        10     9      180.000000        4.224479         2
         3         4         5        10     9        0.000000        0.023472         3
         3         4         5        10     9      180.000000        0.414751         4
         3         4        13        12     9        0.000000       -0.100794         1
         3         4        13        12     9      180.000000       17.800860         2
         3         4        13        12     9        0.000000       -1.248381         3
         3         4        13        12     9      180.000000       -0.456832         4
         3         4        13        14     9        0.000000        0.137502         1
         3         4        13        14     9      180.000000       13.112059         2
         3         4        13        14     9        0.000000        0.061236         3
         3         4        13        14     9      180.000000       -0.429150         4
         4         3         2        11     9        0.000000       -0.019016         1
         4         3         2        11     9      180.000000       18.715228         2
         4         3         2        11     9        0.000000       -1.526841         3
         4         3         2        11     9      180.000000       -0.313237         4
         4         5         6         7     9        0.000000        0.313664         1
         4         5         6         7     9      180.000000       16.809158         2
         4         5         6         7     9        0.000000       -0.069760         3
         4         5         6         7     9      180.000000       -0.309899         4
         4         5         6        28     9        0.000000        0.027811         1
         4         5         6        28     9      180.000000       13.330018         2
         4         5         6        28     9        0.000000       -0.164976         3
         4         5         6        28     9      180.000000        0.178388         4
         4         5        10         9     9        0.000000        0.313664         1
         4         5        10         9     9      180.000000       16.809158         2
         4         5        10         9     9        0.000000       -0.069760         3
         4         5        10         9     9      180.000000       -0.309899         4
         4         5        10        30     9        0.000000        0.027811         1
         4         5        10        30     9      180.000000       13.330018         2
         4         5        10        30     9        0.000000       -0.164976         3
         4         5        10        30     9      180.000000        0.178388         4
         4        13        12        11     9        0.000000        0.002697         1
         4        13        12        11     9      180.000000       19.618252         2
         4        13        12        11     9        0.000000       -1.392692         3
         4        13        12        11     9      180.000000       -0.476071         4
         4        13        12        32     9        0.000000        0.066234         1
         4        13        12        32     9      180.000000       14.686490         2
         4        13        12        32     9        0.000000       -0.457195         3
         4        13        12        32     9      180.000000        0.074372         4
         4        13        14        15     9        0.000000        1.174514         1
         4        13        14        15     9      180.000000       -0.419194         2
         4        13        14        15     9        0.000000        0.587355         3
         4        13        14        15     9      180.000000        0.099944         4
         4        13        14        20     9        0.000000        0.626401         1
         4        13        14        20     9      180.000000       -0.137603         2
         4        13        14        20     9        0.000000        0.578817         3
         4        13        14        20     9      180.000000        0.059557         4
         4        13        14        33     9        0.000000       -0.705623         1
         4        13        14        33     9      180.000000        0.260525         2
         4        13        14        33     9        0.000000        0.233452         3
         4        13        14        33     9      180.000000        0.011381         4
         5         4         3        27     9        0.000000        0.028496         1
         5         4         3        27     9      180.000000       14.014449         2
         5         4         3        27     9        0.000000       -0.096236         3
         5         4         3        27     9      180.000000        0.192681         4
         5         4        13        12     9        0.000000        0.077960         1
         5         4        13        12     9      180.000000       15.798467         2
         5         4        13        12     9        0.000000       -0.141203         3
         5         4        13        12     9      180.000000       -0.553356         4
         5         4        13        14     9        0.000000       -0.125271         1
         5         4        13        14     9      180.000000       15.187723         2
         5         4        13        14     9        0.000000        0.148226         3
         5         4        13        14     9      180.000000       -0.484647         4
         5         6         7         8     9        0.000000       -0.032495         1
         5         6         7         8     9      180.000000       18.921093         2
         5         6         7         8     9        0.000000       -1.443983         3
         5         6         7         8     9      180.000000       -0.415755         4
         5         6         7        41     9        0.000000       -0.072430         1
         5         6         7        41     9      180.000000       14.744175         2
         5         6         7        41     9        0.000000       -0.609649         3
         5         6         7        41     9      180.000000        0.039938         4
         5        10         9         8     9        0.000000       -0.032495         1
         5        10         9         8     9      180.000000       18.921093         2
         5        10         9         8     9        0.000000       -1.443983         3
         5        10         9         8     9      180.000000       -0.415755         4
         5        10         9        29     9        0.000000       -0.072431         1
         5        10         9        29     9      180.000000       14.744177         2
         5        10         9        29     9        0.000000       -0.609649         3
         5        10         9        29     9      180.000000        0.039938         4
         6         5         4        13     9        0.000000        0.137878         1
         6         5         4        13     9      180.000000        3.831070         2
         6         5         4        13     9        0.000000        0.117561         3
         6         5         4        13     9      180.000000        0.272549         4
         6         5        10         9     9        0.000000       -0.155250         1
         6         5        10         9     9      180.000000       18.748310         2
         6         5        10         9     9        0.000000       -1.310742         3
         6         5        10         9     9      180.000000       -0.406370         4
         6         5        10        30     9        0.000000        0.027025         1
         6         5        10        30     9      180.000000       14.154353         2
         6         5        10        30     9        0.000000       -0.511328         3
         6         5        10        30     9      180.000000        0.066441         4
         6         7         8         9     9        0.000000       -0.012797         1
         6         7         8         9     9      180.000000       18.791654         2
         6         7         8         9     9        0.000000       -1.544147         3
         6         7         8         9     9      180.000000       -0.403268         4
         6         7         8        42     9        0.000000        0.053225         1
         6         7         8        42     9      180.000000       13.937268         2
         6         7         8        42     9        0.000000       -0.695678         3
         6         7         8        42     9      180.000000        0.158619         4
         7         6         5        10     9        0.000000       -0.155250         1
         7         6         5        10     9      180.000000       18.748310         2
         7         6         5        10     9        0.000000       -1.310742         3
         7         6         5        10     9      180.000000       -0.406370         4
         7         8         9        10     9        0.000000       -0.012797         1
         7         8         9        10     9      180.000000       18.791654         2
         7         8         9        10     9        0.000000       -1.544147         3
         7         8         9        10     9      180.000000       -0.403268         4
         7         8         9        29     9        0.000000       -0.000463         1
         7         8         9        29     9      180.000000       14.363802         2
         7         8         9        29     9        0.000000       -0.720490         3
         7         8         9        29     9      180.000000        0.160854         4
         8         7         6        28     9        0.000000        0.077460         1
         8         7         6        28     9      180.000000       14.610451         2
         8         7         6        28     9        0.000000       -0.707963         3
         8         7         6        28     9      180.000000        0.118818         4
         8         9        10        30     9        0.000000        0.077460         1
         8         9        10        30     9      180.000000       14.610451         2
         8         9        10        30     9        0.000000       -0.707963         3
         8         9        10        30     9      180.000000        0.118818         4
         9         8         7        41     9        0.000000       -0.000464         1
         9         8         7        41     9      180.000000       14.363802         2
         9         8         7        41     9        0.000000       -0.720489         3
         9         8         7        41     9      180.000000        0.160855         4
        10         5         4        13     9        0.000000        0.137878         1
        10         5         4        13     9      180.000000        3.831070         2
        10         5         4        13     9        0.000000        0.117561         3
        10         5         4        13     9      180.000000        0.272549         4
        10         5         6        28     9        0.000000        0.027025         1
        10         5         6        28     9      180.000000       14.154353         2
        10         5         6        28     9        0.000000       -0.511328         3
        10         5         6        28     9      180.000000        0.066441         4
        10         9         8        42     9        0.000000        0.053225         1
        10         9         8        42     9      180.000000       13.937268         2
        10         9         8        42     9        0.000000       -0.695678         3
        10         9         8        42     9      180.000000        0.158619         4
        11         2         3        27     9        0.000000        0.057961         1
        11         2         3        27     9      180.000000       14.650858         2
        11         2         3        27     9        0.000000       -0.773862         3
        11         2         3        27     9      180.000000        0.209768         4
        11        12        13        14     9        0.000000        0.206669         1
        11        12        13        14     9      180.000000       16.726900         2
        11        12        13        14     9        0.000000       -0.002202         3
        11        12        13        14     9      180.000000       -0.370459         4
        12        13        14        15     9        0.000000       -0.750775         1
        12        13        14        15     9      180.000000        0.528785         2
        12        13        14        15     9        0.000000       -0.293050         3
        12        13        14        15     9      180.000000        0.188830         4
        12        13        14        20     9        0.000000       -0.526844         1
        12        13        14        20     9      180.000000        0.590664         2
        12        13        14        20     9        0.000000       -0.236013         3
        12        13        14        20     9      180.000000        0.177188         4
        12        13        14        33     9        0.000000        0.853816         1
        12        13        14        33     9      180.000000        0.136007         2
        12        13        14        33     9        0.000000       -0.241733         3
        12        13        14        33     9      180.000000       -0.081610         4
        13         4         3        27     9        0.000000       -0.028658         1
        13         4         3        27     9      180.000000       15.211967         2
        13         4         3        27     9        0.000000       -0.512715         3
        13         4         3        27     9      180.000000        0.000493         4
        13        12        11        31     9        0.000000        0.034083         1
        13        12        11        31     9      180.000000       14.567658         2
        13        12        11        31     9        0.000000       -0.675040         3
        13        12        11        31     9      180.000000        0.007242         4
        13        14        15        16     9        0.000000       -1.330994         1
        13        14        15        16     9      180.000000       -0.260473         2
        13        14        15        16     9        0.000000        0.243678         3
        13        14        15        16     9      180.000000        0.017321         4
        13        14        15        34     9        0.000000        0.059747         1
        13        14        15        34     9      180.000000        0.010996         2
        13        14        15        34     9        0.000000        0.443918         3
        13        14        15        34     9      180.000000       -0.057204         4
        13        14        15        35     9        0.000000        0.059747         1
        13        14        15        35     9      180.000000        0.010996         2
        13        14        15        35     9        0.000000        0.443918         3
        13        14        15        35     9      180.000000       -0.057204         4
        13        14        20        21     9        0.000000       -1.287813         1
        13        14        20        21     9      180.000000       -0.172583         2
        13        14        20        21     9        0.000000        0.371513         3
        13        14        20        21     9      180.000000        0.007261         4
        13        14        20        37     9        0.000000        0.063066         1
        13        14        20        37     9      180.000000       -0.024627         2
        13        14        20        37     9        0.000000        0.507948         3
        13        14        20        37     9      180.000000       -0.045533         4
        13        14        20        38     9        0.000000        0.063066         1
        13        14        20        38     9      180.000000       -0.024627         2
        13        14        20        38     9        0.000000        0.507948         3
        13        14        20        38     9      180.000000       -0.045533         4
        14        13        12        32     9        0.000000       -0.000001         1
        14        13        12        32     9      180.000000       13.312472         2
        14        13        12        32     9        0.000000       -0.311198         3
        14        13        12        32     9      180.000000        0.188247         4
        14        15        16        17     9        0.000000       -1.349883         1
        14        15        16        17     9      180.000000       -0.874675         2
        14        15        16        17     9        0.000000       -0.420751         3
        14        15        16        17     9      180.000000        0.131968         4
        14        15        16        19     9        0.000000       -0.198807         1
        14        15        16        19     9      180.000000       -0.481929         2
        14        15        16        19     9        0.000000        0.006886         3
        14        15        16        19     9      180.000000        0.175991         4
        14        20        21        19     9        0.000000        1.386536         1
        14        20        21        19     9      180.000000       -1.111674         2
        14        20        21        19     9        0.000000       -0.178584         3
        14        20        21        19     9      180.000000        0.443258         4
        14        20        21        22     9        0.000000       -0.424976         1
        14        20        21        22     9      180.000000       -0.469493         2
        14        20        21        22     9        0.000000        0.236497         3
        14        20        21        22     9      180.000000        0.259278         4
        15        14        20        21     9        0.000000        2.708651         1
        15        14        20        21     9      180.000000       -2.229561         2
        15        14        20        21     9        0.000000        0.017924         3
        15        14        20        21     9      180.000000        0.210556         4
        15        14        20        37     9        0.000000        0.001531         1
        15        14        20        37     9      180.000000        0.028290         2
        15        14        20        37     9        0.000000        0.248981         3
        15        14        20        37     9      180.000000        0.047895         4
        15        14        20        38     9        0.000000        0.001531         1
        15        14        20        38     9      180.000000        0.028290         2
        15        14        20        38     9        0.000000        0.248981         3
        15        14        20        38     9      180.000000        0.047895         4
        15        16        17        18     9        0.000000        3.363732         1
        15        16        17        18     9      180.000000       52.082947         2
        15        16        17        18     9        0.000000        2.890655         3
        15        16        17        18     9      180.000000       -3.456990         4
        15        16        19        21     9        0.000000       -0.105042         1
        15        16        19        21     9      180.000000        3.262065         2
        15        16        19        21     9        0.000000       -0.329360         3
        15        16        19        21     9      180.000000        0.193367         4
        15        16        19        26     9        0.000000       -1.116981         1
        15        16        19        26     9      180.000000        3.539832         2
        15        16        19        26     9        0.000000       -0.147258         3
        15        16        19        26     9      180.000000        0.145257         4
        16        15        14        20     9        0.000000        0.464616         1
        16        15        14        20     9      180.000000       -0.762481         2
        16        15        14        20     9        0.000000       -0.002744         3
        16        15        14        20     9      180.000000       -0.129781         4
        16        15        14        33     9        0.000000       -0.353743         1
        16        15        14        33     9      180.000000       -0.035368         2
        16        15        14        33     9        0.000000        0.154794         3
        16        15        14        33     9      180.000000        0.115810         4
        16        17        18        36     9        0.000000        2.024121         1
        16        17        18        36     9      180.000000       12.678770         2
        16        17        18        36     9        0.000000       -0.330975         3
        16        17        18        36     9      180.000000        0.221989         4
        16        19        21        20     9        0.000000       -0.099911         1
        16        19        21        20     9      180.000000       12.833321         2
        16        19        21        20     9        0.000000       -0.007959         3
        16        19        21        20     9      180.000000       -0.446285         4
        16        19        21        22     9        0.000000       -0.138668         1
        16        19        21        22     9      180.000000       13.265177         2
        16        19        21        22     9        0.000000       -0.033823         3
        16        19        21        22     9      180.000000       -0.447267         4
        16        19        26        25     9        0.000000       -0.068819         1
        16        19        26        25     9      180.000000       13.845205         2
        16        19        26        25     9        0.000000        0.048471         3
        16        19        26        25     9      180.000000       -0.494599         4
        16        19        26        43     9        0.000000       -0.028253         1
        16        19        26        43     9      180.000000       11.684197         2
        16        19        26        43     9        0.000000       -0.010865         3
        16        19        26        43     9      180.000000       -0.085467         4
        17        16        15        34     9        0.000000       -0.066219         1
        17        16        15        34     9      180.000000       -0.107236         2
        17        16        15        34     9        0.000000       -0.526582         3
        17        16        15        34     9      180.000000        0.018810         4
        17        16        15        35     9        0.000000       -0.066219         1
        17        16        15        35     9      180.000000       -0.107236         2
        17        16        15        35     9        0.000000       -0.526582         3
        17        16        15        35     9      180.000000        0.018810         4
        17        16        19        21     9        0.000000        1.888015         1
        17        16        19        21     9      180.000000        3.601241         2
        17        16        19        21     9        0.000000        0.315727         3
        17        16        19        21     9      180.000000       -0.060737         4
        17        16        19        26     9        0.000000        0.770710         1
        17        16        19        26     9      180.000000        3.814427         2
        17        16        19        26     9        0.000000        0.320550         3
        17        16        19        26     9      180.000000       -0.045678         4
        18        17        16        19     9        0.000000        1.194487         1
        18        17        16        19     9      180.000000       38.770240         2
        18        17        16        19     9        0.000000        3.824235         3
        18        17        16        19     9      180.000000       -1.756185         4
        19        16        15        34     9        0.000000        0.061027         1
        19        16        15        34     9      180.000000       -0.111711         2
        19        16        15        34     9        0.000000       -0.106836         3
        19        16        15        34     9      180.000000        0.160987         4
        19        16        15        35     9        0.000000        0.061027         1
        19        16        15        35     9      180.000000       -0.111711         2
        19        16        15        35     9        0.000000       -0.106836         3
        19        16        15        35     9      180.000000        0.160987         4
        19        21        20        37     9        0.000000       -0.010717         1
        19        21        20        37     9      180.000000       -0.051483         2
        19        21        20        37     9        0.000000       -0.233342         3
        19        21        20        37     9      180.000000        0.033792         4
        19        21        20        38     9        0.000000       -0.010717         1
        19        21        20        38     9      180.000000       -0.051483         2
        19        21        20        38     9        0.000000       -0.233342         3
        19        21        20        38     9      180.000000        0.033792         4
        19        21        22        23     9        0.000000       -0.829526         1
        19        21        22        23     9      180.000000       19.604488         2
        19        21        22        23     9        0.000000       -0.673399         3
        19        21        22        23     9      180.000000       -0.273950         4
        19        26        25        23     9        0.000000       -0.704938         1
        19        26        25        23     9      180.000000       20.948294         2
        19        26        25        23     9        0.000000       -1.276741         3
        19        26        25        23     9      180.000000       -0.206956         4
        20        14        15        34     9        0.000000       -0.027083         1
        20        14        15        34     9      180.000000        0.063096         2
        20        14        15        34     9        0.000000        0.202040         3
        20        14        15        34     9      180.000000        0.047219         4
        20        14        15        35     9        0.000000       -0.027083         1
        20        14        15        35     9      180.000000        0.063096         2
        20        14        15        35     9        0.000000        0.202040         3
        20        14        15        35     9      180.000000        0.047219         4
        20        21        19        26     9        0.000000        0.015913         1
        20        21        19        26     9      180.000000       12.617166         2
        20        21        19        26     9        0.000000       -0.055913         3
        20        21        19        26     9      180.000000       -0.381369         4
        20        21        22        23     9        0.000000        0.306428         1
        20        21        22        23     9      180.000000       20.652732         2
        20        21        22        23     9        0.000000        0.608602         3
        20        21        22        23     9      180.000000       -0.857148         4
        21        19        26        25     9        0.000000        0.252392         1
        21        19        26        25     9      180.000000       13.936697         2
        21        19        26        25     9        0.000000       -0.224869         3
        21        19        26        25     9      180.000000       -0.277823         4
        21        19        26        43     9        0.000000        0.288294         1
        21        19        26        43     9      180.000000       12.628423         2
        21        19        26        43     9        0.000000       -0.283320         3
        21        19        26        43     9      180.000000       -0.168012         4
        21        20        14        33     9        0.000000       -0.353382         1
        21        20        14        33     9      180.000000       -0.023290         2
        21        20        14        33     9        0.000000        0.240916         3
        21        20        14        33     9      180.000000        0.133608         4
        21        22        23        24     9        0.000000        1.247320         1
        21        22        23        24     9      180.000000       18.809178         2
        21        22        23        24     9        0.000000        0.454804         3
        21        22        23        24     9      180.000000       -1.303540         4
        21        22        23        25     9        0.000000        0.327321         1
        21        22        23        25     9      180.000000       10.303849         2
        21        22        23        25     9        0.000000        0.838718         3
        21        22        23        25     9      180.000000       -0.477356         4
        22        21        19        26     9        0.000000        0.166568         1
        22        21        19        26     9      180.000000       14.025081         2
        22        21        19        26     9        0.000000       -0.044732         3
        22        21        19        26     9      180.000000       -0.508297         4
        22        21        20        37     9        0.000000        0.090873         1
        22        21        20        37     9      180.000000        0.058617         2
        22        21        20        37     9        0.000000        0.011814         3
        22        21        20        37     9      180.000000        0.004680         4
        22        21        20        38     9        0.000000        0.090873         1
        22        21        20        38     9      180.000000        0.058617         2
        22        21        20        38     9        0.000000        0.011814         3
        22        21        20        38     9      180.000000        0.004680         4
        22        23        24        39     9        0.000000        2.068125         1
        22        23        24        39     9      180.000000        8.500601         2
        22        23        24        39     9        0.000000       -0.260618         3
        22        23        24        39     9      180.000000       -0.742210         4
        22        23        24        40     9        0.000000        2.068125         1
        22        23        24        40     9      180.000000        8.500601         2
        22        23        24        40     9        0.000000       -0.260618         3
        22        23        24        40     9      180.000000       -0.742210         4
        22        23        25        26     9        0.000000        0.615406         1
        22        23        25        26     9      180.000000       11.294575         2
        22        23        25        26     9        0.000000        0.564881         3
        22        23        25        26     9      180.000000       -0.433730         4
        23        25        26        43     9        0.000000        0.356048         1
        23        25        26        43     9      180.000000       18.492383         2
        23        25        26        43     9        0.000000       -0.275171         3
        23        25        26        43     9      180.000000        0.046746         4
        24        23        25        26     9        0.000000        1.138541         1
        24        23        25        26     9      180.000000       20.172826         2
        24        23        25        26     9        0.000000        0.398445         3
        24        23        25        26     9      180.000000       -1.305231         4
        25        23        24        39     9        0.000000        1.980462         1
        25        23        24        39     9      180.000000        8.437557         2
        25        23        24        39     9        0.000000       -0.214409         3
        25        23        24        39     9      180.000000       -0.855761         4
        25        23        24        40     9        0.000000        1.980462         1
        25        23        24        40     9      180.000000        8.437557         2
        25        23        24        40     9        0.000000       -0.214409         3
        25        23        24        40     9      180.000000       -0.855761         4
        28         6         7        41     9        0.000000       -0.173705         1
        28         6         7        41     9      180.000000       12.051563         2
        28         6         7        41     9        0.000000       -0.647865         3
        28         6         7        41     9      180.000000        0.262922         4
        29         9         8        42     9        0.000000       -0.079427         1
        29         9         8        42     9      180.000000       11.318323         2
        29         9         8        42     9        0.000000       -0.539704         3
        29         9         8        42     9      180.000000        0.255202         4
        29         9        10        30     9        0.000000       -0.173705         1
        29         9        10        30     9      180.000000       12.051565         2
        29         9        10        30     9        0.000000       -0.647865         3
        29         9        10        30     9      180.000000        0.262921         4
        31        11        12        32     9        0.000000       -0.191086         1
        31        11        12        32     9      180.000000       11.578835         2
        31        11        12        32     9        0.000000       -0.734835         3
        31        11        12        32     9      180.000000        0.358963         4
        33        14        15        34     9        0.000000        0.042918         1
        33        14        15        34     9      180.000000        0.053690         2
        33        14        15        34     9        0.000000        0.412715         3
        33        14        15        34     9      180.000000       -0.055908         4
        33        14        15        35     9        0.000000        0.042918         1
        33        14        15        35     9      180.000000        0.053690         2
        33        14        15        35     9        0.000000        0.412715         3
        33        14        15        35     9      180.000000       -0.055908         4
        33        14        20        37     9        0.000000        0.056326         1
        33        14        20        37     9      180.000000        0.008077         2
        33        14        20        37     9        0.000000        0.451258         3
        33        14        20        37     9      180.000000       -0.048735         4
        33        14        20        38     9        0.000000        0.056326         1
        33        14        20        38     9      180.000000        0.008077         2
        33        14        20        38     9        0.000000        0.451258         3
        33        14        20        38     9      180.000000       -0.048735         4
        41         7         8        42     9        0.000000       -0.079428         1
        41         7         8        42     9      180.000000       11.318324         2
        41         7         8        42     9        0.000000       -0.539704         3
        41         7         8        42     9      180.000000        0.255203         4

[ dihedrals ] ; impropers
;       ai        aj        ak        al funct           phase               k        pn
         6         5         7        28     4      180.000000        1.029981         2
         6         7        28         5     4      180.000000        1.029981         2
         6        28         5         7     4      180.000000        1.029981         2
         7         6         8        41     4      180.000000        4.393989         2
         7         8        41         6     4      180.000000        4.393989         2
         7        41         6         8     4      180.000000        4.393989         2
         9         8        10        29     4      180.000000        4.393990         2
         9        10        29         8     4      180.000000        4.393990         2
         9        29         8        10     4      180.000000        4.393990         2
        10         5         9        30     4      180.000000        1.029981         2
        10         9        30         5     4      180.000000        1.029981         2
        10        30         5         9     4      180.000000        1.029981         2
        16        15        17        19     4      180.000000       11.058925         2
        16        17        19        15     4      180.000000       11.058925         2
        16        19        15        17     4      180.000000       11.058925         2
        21        19        20        22     4      180.000000       14.109310         2
        21        20        22        19     4      180.000000       14.109310         2
        21        22        19        20     4      180.000000       14.109310         2
        23        22        24        25     4      180.000000        4.071697         2
        23        24        25        22     4      180.000000        4.071697         2
        23        25        22        24     4      180.000000        4.071697         2
        26        19        25        43     4      180.000000       13.343718         2
        26        25        43        19     4      180.000000       13.343718         2
        26        43        19        25     4      180.000000       13.343718         2

[ pairs ]
;       ai        aj funct
         1         4     1
         1        12     1
         1        27     1
         1        31     1
         2         5     1
         2        13     1
         2        32     1
         3         6     1
         3        10     1
         3        12     1
         3        14     1
         3        31     1
         4         7     1
         4         9     1
         4        11     1
         4        15     1
         4        20     1
         4        28     1
         4        30     1
         4        32     1
         4        33     1
         5         8     1
         5        12     1
         5        14     1
         5        27     1
         5        29     1
         5        41     1
         6         9     1
         6        13     1
         6        30     1
         6        42     1
         7        10     1
         7        29     1
         8        28     1
         8        30     1
         9        41     1
        10        13     1
        10        28     1
        10        42     1
        11        14     1
        11        27     1
        12        15     1
        12        20     1
        12        33     1
        13        16     1
        13        21     1
        13        27     1
        13        31     1
        13        34     1
        13        35     1
        13        37     1
        13        38     1
        14        17     1
        14        19     1
        14        22     1
        14        32     1
        15        18     1
        15        21     1
        15        26     1
        15        37     1
        15        38     1
        16        20     1
        16        22     1
        16        25     1
        16        33     1
        16        36     1
        16        43     1
        17        21     1
        17        26     1
        17        34     1
        17        35     1
        18        19     1
        19        23     1
        19        34     1
        19        35     1
        19        37     1
        19        38     1
        20        23     1
        20        26     1
        20        34     1
        20        35     1
        21        24     1
        21        25     1
        21        33     1
        21        43     1
        22        26     1
        22        37     1
        22        38     1
        22        39     1
        22        40     1
        23        43     1
        24        26     1
        25        39     1
        25        40     1
        28        41     1
        29        30     1
        29        42     1
        31        32     1
        33        34     1
        33        35     1
        33        37     1
        33        38     1
        41        42     1
