; ITP file created by ByteFF-ML, 2025-12-06 03:38:56.046839

[ atomtypes ]
;name           bonded.type        at.num        mass        charge   ptype           sigma         epsilon
 h0bf                                   1      0.0000       0.00000       A     2.62467e-01     6.73573e-02
 c1bf                                   6      0.0000       0.00000       A     3.31494e-01     4.13235e-01
 c2bf                                   6      0.0000       0.00000       A     3.31470e-01     4.12619e-01
 c3bf                                   6      0.0000       0.00000       A     3.31505e-01     4.09430e-01
 c4bf                                   6      0.0000       0.00000       A     3.31468e-01     4.12868e-01
 c5bf                                   6      0.0000       0.00000       A     3.31438e-01     4.13243e-01
 c6bf                                   6      0.0000       0.00000       A     3.31459e-01     4.12905e-01
 n7bf                                   7      0.0000       0.00000       A     3.38336e-01     3.92922e-01
 c8bf                                   6      0.0000       0.00000       A     3.31459e-01     4.12905e-01
 c9bf                                   6      0.0000       0.00000       A     3.31438e-01     4.13243e-01
 c10bf                                  6      0.0000       0.00000       A     3.31482e-01     4.13304e-01
 c11bf                                  6      0.0000       0.00000       A     3.31465e-01     4.13261e-01
 c12bf                                  6      0.0000       0.00000       A     3.31307e-01     4.12700e-01
 c13bf                                  6      0.0000       0.00000       A     3.39665e-01     4.55362e-01
 c14bf                                  6      0.0000       0.00000       A     3.39811e-01     4.48644e-01
 c15bf                                  6      0.0000       0.00000       A     3.31501e-01     4.13824e-01
 n16bf                                  7      0.0000       0.00000       A     3.38862e-01     3.93244e-01
 o17bf                                  8      0.0000       0.00000       A     3.24179e-01     3.84587e-01
 c18bf                                  6      0.0000       0.00000       A     3.31471e-01     4.16170e-01
 c19bf                                  6      0.0000       0.00000       A     3.39770e-01     4.51953e-01
 c20bf                                  6      0.0000       0.00000       A     3.31493e-01     4.13301e-01
 n21bf                                  7      0.0000       0.00000       A     3.38250e-01     3.91083e-01
 c22bf                                  6      0.0000       0.00000       A     3.31280e-01     4.15256e-01
 n23bf                                  7      0.0000       0.00000       A     3.36802e-01     4.71982e-01
 n24bf                                  7      0.0000       0.00000       A     3.38408e-01     3.91650e-01
 c25bf                                  6      0.0000       0.00000       A     3.31307e-01     4.10333e-01
 c26bf                                  6      0.0000       0.00000       A     3.39764e-01     4.51935e-01
 h27bf                                  1      0.0000       0.00000       A     2.62514e-01     6.73876e-02
 h28bf                                  1      0.0000       0.00000       A     2.62571e-01     6.76590e-02
 h29bf                                  1      0.0000       0.00000       A     2.53698e-01     6.71259e-02
 h30bf                                  1      0.0000       0.00000       A     2.62571e-01     6.76590e-02
 h31bf                                  1      0.0000       0.00000       A     2.62458e-01     6.72647e-02
 h32bf                                  1      0.0000       0.00000       A     2.62567e-01     6.76941e-02
 h33bf                                  1      0.0000       0.00000       A     2.59862e-01     8.72523e-02
 h34bf                                  1      0.0000       0.00000       A     2.59890e-01     8.73641e-02
 h35bf                                  1      0.0000       0.00000       A     2.59890e-01     8.73641e-02
 h36bf                                  1      0.0000       0.00000       A     5.35355e-02     2.08814e-02
 h37bf                                  1      0.0000       0.00000       A     2.59803e-01     8.72028e-02
 h38bf                                  1      0.0000       0.00000       A     2.59803e-01     8.72028e-02
 h39bf                                  1      0.0000       0.00000       A     1.10066e-01     4.24315e-02
 h40bf                                  1      0.0000       0.00000       A     1.10066e-01     4.24315e-02
 h41bf                                  1      0.0000       0.00000       A     2.59969e-01     8.70097e-02
 h42bf                                  1      0.0000       0.00000       A     2.59969e-01     8.70097e-02
 h43bf                                  1      0.0000       0.00000       A     2.59969e-01     8.70097e-02
 h44bf                                  1      0.0000       0.00000       A     2.53698e-01     6.71259e-02

[ moleculetype ]
;name             nrexcl
 16                    3

[ atoms ]
;       nr            type      resi   res      atom      cgnr      charge          mass ; qtot
         1            h0bf         1   UNL        h0         1     0.11766        1.0080 ; qtot    0.118
         2            c1bf         1   UNL        c1         2    -0.11732       12.0110 ; qtot    0.000
         3            c2bf         1   UNL        c2         3    -0.09590       12.0110 ; qtot   -0.096
         4            c3bf         1   UNL        c3         4    -0.04803       12.0110 ; qtot   -0.144
         5            c4bf         1   UNL        c4         5     0.00200       12.0110 ; qtot   -0.142
         6            c5bf         1   UNL        c5         6    -0.15469       12.0110 ; qtot   -0.296
         7            c6bf         1   UNL        c6         7     0.32725       12.0110 ; qtot    0.031
         8            n7bf         1   UNL        n7         8    -0.65105       14.0070 ; qtot   -0.620
         9            c8bf         1   UNL        c8         9     0.32725       12.0110 ; qtot   -0.293
        10            c9bf         1   UNL        c9        10    -0.15469       12.0110 ; qtot   -0.448
        11           c10bf         1   UNL       c10        11    -0.10377       12.0110 ; qtot   -0.551
        12           c11bf         1   UNL       c11        12    -0.11071       12.0110 ; qtot   -0.662
        13           c12bf         1   UNL       c12        13    -0.06104       12.0110 ; qtot   -0.723
        14           c13bf         1   UNL       c13        14    -0.00396       12.0110 ; qtot   -0.727
        15           c14bf         1   UNL       c14        15    -0.12114       12.0110 ; qtot   -0.848
        16           c15bf         1   UNL       c15        16     0.44776       12.0110 ; qtot   -0.400
        17           n16bf         1   UNL       n16        17    -0.32560       14.0070 ; qtot   -0.726
        18           o17bf         1   UNL       o17        18    -0.52514       15.9990 ; qtot   -1.251
        19           c18bf         1   UNL       c18        19    -0.30294       12.0110 ; qtot   -1.554
        20           c19bf         1   UNL       c19        20    -0.13420       12.0110 ; qtot   -1.688
        21           c20bf         1   UNL       c20        21     0.17875       12.0110 ; qtot   -1.510
        22           n21bf         1   UNL       n21        22    -0.24622       14.0070 ; qtot   -1.756
        23           c22bf         1   UNL       c22        23     0.37063       12.0110 ; qtot   -1.385
        24           n23bf         1   UNL       n23        24    -1.02809       14.0070 ; qtot   -2.413
        25           n24bf         1   UNL       n24        25    -0.26323       14.0070 ; qtot   -2.676
        26           c25bf         1   UNL       c25        26     0.21953       12.0110 ; qtot   -2.457
        27           c26bf         1   UNL       c26        27    -0.15202       12.0110 ; qtot   -2.609
        28           h27bf         1   UNL       h27        28     0.11442        1.0080 ; qtot   -2.494
        29           h28bf         1   UNL       h28        29     0.12927        1.0080 ; qtot   -2.365
        30           h29bf         1   UNL       h29        30     0.02354        1.0080 ; qtot   -2.342
        31           h30bf         1   UNL       h30        31     0.12927        1.0080 ; qtot   -2.212
        32           h31bf         1   UNL       h31        32     0.11691        1.0080 ; qtot   -2.095
        33           h32bf         1   UNL       h32        33     0.11517        1.0080 ; qtot   -1.980
        34           h33bf         1   UNL       h33        34     0.06435        1.0080 ; qtot   -1.916
        35           h34bf         1   UNL       h34        35     0.06919        1.0080 ; qtot   -1.847
        36           h35bf         1   UNL       h35        36     0.06919        1.0080 ; qtot   -1.778
        37           h36bf         1   UNL       h36        37     0.46640        1.0080 ; qtot   -1.311
        38           h37bf         1   UNL       h37        38     0.07330        1.0080 ; qtot   -1.238
        39           h38bf         1   UNL       h38        39     0.07330        1.0080 ; qtot   -1.165
        40           h39bf         1   UNL       h39        40     0.47640        1.0080 ; qtot   -0.688
        41           h40bf         1   UNL       h40        41     0.47640        1.0080 ; qtot   -0.212
        42           h41bf         1   UNL       h41        42     0.06275        1.0080 ; qtot   -0.149
        43           h42bf         1   UNL       h42        43     0.06275        1.0080 ; qtot   -0.086
        44           h43bf         1   UNL       h43        44     0.06275        1.0080 ; qtot   -0.024
        45           h44bf         1   UNL       h44        45     0.02355        1.0080 ; qtot    0.000

[ bonds ]
;       ai        aj funct               r               k
         1         2     1        0.108618   320015.272754
         2         3     1        0.139542   318239.728613
         2        11     1        0.139745   308518.185205
         3         4     1        0.140433   290015.834424
         3        28     1        0.108613   317373.203418
         4         5     1        0.149002   213076.469360
         4        13     1        0.141250   254937.626855
         5         6     1        0.140226   291263.015771
         5        10     1        0.140226   291263.015771
         6         7     1        0.139712   298794.088086
         6        29     1        0.108513   322160.287793
         7         8     1        0.134092   315862.530176
         7        45     1        0.108854   313907.306934
         8         9     1        0.134092   315862.530176
         9        10     1        0.139712   298794.088086
         9        30     1        0.108854   313907.306934
        10        31     1        0.108513   322160.287793
        11        12     1        0.139636   315996.191406
        11        32     1        0.108624   319818.458252
        12        13     1        0.140348   289083.065967
        12        33     1        0.108568   317401.013330
        13        14     1        0.152004   181416.569873
        14        15     1        0.154299   169464.155664
        14        20     1        0.153829   177121.892041
        14        34     1        0.109426   301161.173828
        15        16     1        0.151177   187543.918359
        15        35     1        0.109391   299627.031982
        15        36     1        0.109391   299627.031982
        16        17     1        0.129060   506319.058008
        16        19     1        0.147650   202629.378369
        17        18     1        0.141271   206818.945459
        18        37     1        0.097167   471574.697070
        19        21     1        0.141260   256477.412402
        19        26     1        0.142245   240602.728027
        20        21     1        0.150785   197447.847803
        20        38     1        0.109478   297916.939453
        20        39     1        0.109478   297916.939453
        21        22     1        0.133669   327033.355615
        22        23     1        0.134567   269085.313135
        23        24     1        0.136754   331182.854980
        23        25     1        0.134651   266011.283594
        24        40     1        0.101080   429504.045898
        24        41     1        0.101080   429504.045898
        25        26     1        0.133707   330704.008643
        26        27     1        0.150638   202499.534937
        27        42     1        0.109243   307403.183936
        27        43     1        0.109243   307403.183936
        27        44     1        0.109243   307403.183936

[ angles ]
;       ai        aj        ak funct           theta             cth
         1         2         3     1      120.138390      441.278888
         1         2        11     1      120.604736      435.804977
         2         3         4     1      121.403664      688.023801
         2         3        28     1      119.741745      438.829017
         2        11        12     1      119.661972      696.587671
         2        11        32     1      120.383385      430.838775
         3         2        11     1      119.229958      699.114951
         3         4         5     1      117.386963      558.078795
         3         4        13     1      119.592056      700.479846
         4         3        28     1      118.849976      421.472050
         4         5         6     1      121.541138      488.271830
         4         5        10     1      121.541138      488.271830
         4        13        12     1      118.075584      702.997613
         4        13        14     1      122.551315      451.305076
         5         4        13     1      122.886803      408.351722
         5         6         7     1      119.265038      781.883340
         5         6        29     1      120.672874      402.791016
         5        10         9     1      119.265038      781.883340
         5        10        31     1      120.672874      402.791016
         6         5        10     1      117.050026      770.017778
         6         7         8     1      123.883469      732.899461
         6         7        45     1      119.924789      410.188096
         7         6        29     1      119.994446      445.931877
         7         8         9     1      116.570801      666.695463
         8         7        45     1      116.066467      354.503279
         8         9        10     1      123.883469      732.899461
         8         9        30     1      116.066467      354.503343
         9        10        31     1      119.994446      445.931877
        10         9        30     1      119.924789      410.188096
        11        12        13     1      121.957687      694.411845
        11        12        33     1      118.875656      440.497676
        12        11        32     1      119.954834      436.406886
        12        13        14     1      119.198242      541.172335
        13        12        33     1      119.234924      407.678117
        13        14        15     1      112.737595      588.902597
        13        14        20     1      112.964706      591.444624
        13        14        34     1      107.424438      496.508920
        14        15        16     1      111.227646      654.928921
        14        15        35     1      109.974037      473.402848
        14        15        36     1      109.974037      473.402848
        14        20        21     1      112.053543      610.461216
        14        20        38     1      110.438126      467.752315
        14        20        39     1      110.438126      467.752315
        15        14        20     1      109.029373      566.652305
        15        14        34     1      106.915565      477.222848
        15        16        17     1      120.780602      440.233399
        15        16        19     1      117.722778      488.619485
        16        15        35     1      109.073753      498.526256
        16        15        36     1      109.073753      498.526256
        16        17        18     1      112.810524      812.580159
        16        19        21     1      118.612839      598.884797
        16        19        26     1      125.020386      525.449966
        17        16        19     1      120.662064      402.309578
        17        18        37     1      102.078308      633.371834
        19        21        20     1      120.758751      475.315577
        19        21        22     1      122.698654      721.367541
        19        26        25     1      121.228188      743.307813
        19        26        27     1      123.606651      456.126802
        20        14        34     1      107.124107      477.539253
        20        21        22     1      116.127136      462.293184
        21        19        26     1      115.999184      815.529503
        21        20        38     1      108.435226      513.281789
        21        20        39     1      108.435226      513.281789
        21        22        23     1      116.060204      870.243526
        22        23        24     1      116.984520      584.312174
        22        23        25     1      126.302536      666.537963
        23        24        40     1      116.789536      467.143798
        23        24        41     1      116.789536      467.143798
        23        25        26     1      117.405640      936.974100
        24        23        25     1      116.582581      610.643998
        25        26        27     1      115.223915      514.212425
        26        27        42     1      110.244286      508.144297
        26        27        43     1      110.244286      508.144297
        26        27        44     1      110.244286      508.144297
        35        15        36     1      107.161148      354.713833
        38        20        39     1      106.649391      364.142006
        40        24        41     1      117.566406      320.237682
        42        27        43     1      108.657333      349.777190
        42        27        44     1      108.657333      349.777190
        43        27        44     1      108.657333      349.777190

[ dihedrals ] ; propers for gromacs 4.5 or higher, use funct 9
;       ai        aj        ak        al funct           phase               k        pn
         1         2         3         4     9        0.000000        0.040013         1
         1         2         3         4     9      180.000000       14.575499         2
         1         2         3         4     9        0.000000       -0.656781         3
         1         2         3         4     9      180.000000        0.078786         4
         1         2         3        28     9        0.000000       -0.250929         1
         1         2         3        28     9      180.000000       11.787686         2
         1         2         3        28     9        0.000000       -0.721327         3
         1         2         3        28     9      180.000000        0.355325         4
         1         2        11        12     9        0.000000        0.007715         1
         1         2        11        12     9      180.000000       14.217533         2
         1         2        11        12     9        0.000000       -0.761854         3
         1         2        11        12     9      180.000000        0.122580         4
         1         2        11        32     9        0.000000       -0.165477         1
         1         2        11        32     9      180.000000       10.873132         2
         1         2        11        32     9        0.000000       -0.445365         3
         1         2        11        32     9      180.000000        0.213421         4
         2         3         4         5     9        0.000000        0.267790         1
         2         3         4         5     9      180.000000       17.707811         2
         2         3         4         5     9        0.000000       -0.011086         3
         2         3         4         5     9      180.000000       -0.361191         4
         2         3         4        13     9        0.000000       -0.056604         1
         2         3         4        13     9      180.000000       19.191257         2
         2         3         4        13     9        0.000000       -1.539774         3
         2         3         4        13     9      180.000000       -0.376965         4
         2        11        12        13     9        0.000000        0.022119         1
         2        11        12        13     9      180.000000       18.939112         2
         2        11        12        13     9        0.000000       -1.744548         3
         2        11        12        13     9      180.000000       -0.417055         4
         2        11        12        33     9        0.000000        0.054621         1
         2        11        12        33     9      180.000000       14.958405         2
         2        11        12        33     9        0.000000       -0.749325         3
         2        11        12        33     9      180.000000        0.148597         4
         3         2        11        12     9        0.000000        0.029203         1
         3         2        11        12     9      180.000000       18.341344         2
         3         2        11        12     9        0.000000       -1.657321         3
         3         2        11        12     9      180.000000       -0.378095         4
         3         2        11        32     9        0.000000        0.085827         1
         3         2        11        32     9      180.000000       14.059096         2
         3         2        11        32     9        0.000000       -0.779413         3
         3         2        11        32     9      180.000000        0.125663         4
         3         4         5         6     9        0.000000       -0.101756         1
         3         4         5         6     9      180.000000        4.000671         2
         3         4         5         6     9        0.000000        0.106407         3
         3         4         5         6     9      180.000000        0.335369         4
         3         4         5        10     9        0.000000       -0.101756         1
         3         4         5        10     9      180.000000        4.000671         2
         3         4         5        10     9        0.000000        0.106407         3
         3         4         5        10     9      180.000000        0.335369         4
         3         4        13        12     9        0.000000       -0.087778         1
         3         4        13        12     9      180.000000       17.918055         2
         3         4        13        12     9        0.000000       -1.274869         3
         3         4        13        12     9      180.000000       -0.457849         4
         3         4        13        14     9        0.000000        0.128497         1
         3         4        13        14     9      180.000000       13.342779         2
         3         4        13        14     9        0.000000        0.049987         3
         3         4        13        14     9      180.000000       -0.422519         4
         4         3         2        11     9        0.000000       -0.030777         1
         4         3         2        11     9      180.000000       18.723150         2
         4         3         2        11     9        0.000000       -1.544172         3
         4         3         2        11     9      180.000000       -0.295899         4
         4         5         6         7     9        0.000000        0.460063         1
         4         5         6         7     9      180.000000       16.460481         2
         4         5         6         7     9        0.000000        0.056502         3
         4         5         6         7     9      180.000000       -0.365488         4
         4         5         6        29     9        0.000000        0.029099         1
         4         5         6        29     9      180.000000       13.305192         2
         4         5         6        29     9        0.000000       -0.142896         3
         4         5         6        29     9      180.000000        0.176295         4
         4         5        10         9     9        0.000000        0.460063         1
         4         5        10         9     9      180.000000       16.460481         2
         4         5        10         9     9        0.000000        0.056502         3
         4         5        10         9     9      180.000000       -0.365488         4
         4         5        10        31     9        0.000000        0.029099         1
         4         5        10        31     9      180.000000       13.305192         2
         4         5        10        31     9        0.000000       -0.142896         3
         4         5        10        31     9      180.000000        0.176295         4
         4        13        12        11     9        0.000000       -0.003872         1
         4        13        12        11     9      180.000000       19.671991         2
         4        13        12        11     9        0.000000       -1.416619         3
         4        13        12        11     9      180.000000       -0.470917         4
         4        13        12        33     9        0.000000        0.061345         1
         4        13        12        33     9      180.000000       14.843804         2
         4        13        12        33     9        0.000000       -0.496149         3
         4        13        12        33     9      180.000000        0.068251         4
         4        13        14        15     9        0.000000        0.945728         1
         4        13        14        15     9      180.000000       -0.358308         2
         4        13        14        15     9        0.000000        0.524657         3
         4        13        14        15     9      180.000000        0.124034         4
         4        13        14        20     9        0.000000        0.495366         1
         4        13        14        20     9      180.000000       -0.072262         2
         4        13        14        20     9        0.000000        0.498398         3
         4        13        14        20     9      180.000000        0.097063         4
         4        13        14        34     9        0.000000       -0.743188         1
         4        13        14        34     9      180.000000        0.226288         2
         4        13        14        34     9        0.000000        0.198013         3
         4        13        14        34     9      180.000000        0.022314         4
         5         4         3        28     9        0.000000       -0.042271         1
         5         4         3        28     9      180.000000       13.832388         2
         5         4         3        28     9        0.000000       -0.122060         3
         5         4         3        28     9      180.000000        0.186782         4
         5         4        13        12     9        0.000000        0.110743         1
         5         4        13        12     9      180.000000       15.386694         2
         5         4        13        12     9        0.000000       -0.173363         3
         5         4        13        12     9      180.000000       -0.510185         4
         5         4        13        14     9        0.000000       -0.119294         1
         5         4        13        14     9      180.000000       15.058752         2
         5         4        13        14     9        0.000000        0.236707         3
         5         4        13        14     9      180.000000       -0.502179         4
         5         6         7         8     9        0.000000       -0.202260         1
         5         6         7         8     9      180.000000       18.826059         2
         5         6         7         8     9        0.000000       -0.954704         3
         5         6         7         8     9      180.000000       -0.685102         4
         5         6         7        45     9        0.000000        0.004589         1
         5         6         7        45     9      180.000000       14.738490         2
         5         6         7        45     9        0.000000       -0.480876         3
         5         6         7        45     9      180.000000        0.004090         4
         5        10         9         8     9        0.000000       -0.202260         1
         5        10         9         8     9      180.000000       18.826059         2
         5        10         9         8     9        0.000000       -0.954704         3
         5        10         9         8     9      180.000000       -0.685102         4
         5        10         9        30     9        0.000000        0.004590         1
         5        10         9        30     9      180.000000       14.738490         2
         5        10         9        30     9        0.000000       -0.480876         3
         5        10         9        30     9      180.000000        0.004090         4
         6         5         4        13     9        0.000000        0.225025         1
         6         5         4        13     9      180.000000        3.630415         2
         6         5         4        13     9        0.000000        0.013756         3
         6         5         4        13     9      180.000000        0.269115         4
         6         5        10         9     9        0.000000       -0.139495         1
         6         5        10         9     9      180.000000       18.451060         2
         6         5        10         9     9        0.000000       -1.493318         3
         6         5        10         9     9      180.000000       -0.446258         4
         6         5        10        31     9        0.000000       -0.052783         1
         6         5        10        31     9      180.000000       14.390762         2
         6         5        10        31     9        0.000000       -0.509768         3
         6         5        10        31     9      180.000000        0.047993         4
         6         7         8         9     9        0.000000        0.153022         1
         6         7         8         9     9      180.000000       22.720841         2
         6         7         8         9     9        0.000000       -0.962394         3
         6         7         8         9     9      180.000000       -0.096057         4
         7         6         5        10     9        0.000000       -0.139495         1
         7         6         5        10     9      180.000000       18.451060         2
         7         6         5        10     9        0.000000       -1.493318         3
         7         6         5        10     9      180.000000       -0.446258         4
         7         8         9        10     9        0.000000        0.153022         1
         7         8         9        10     9      180.000000       22.720841         2
         7         8         9        10     9        0.000000       -0.962394         3
         7         8         9        10     9      180.000000       -0.096057         4
         7         8         9        30     9        0.000000        1.032132         1
         7         8         9        30     9      180.000000       20.904095         2
         7         8         9        30     9        0.000000        0.232440         3
         7         8         9        30     9      180.000000       -0.356139         4
         8         7         6        29     9        0.000000       -0.040432         1
         8         7         6        29     9      180.000000       14.206549         2
         8         7         6        29     9        0.000000       -0.427801         3
         8         7         6        29     9      180.000000       -0.021814         4
         8         9        10        31     9        0.000000       -0.040432         1
         8         9        10        31     9      180.000000       14.206549         2
         8         9        10        31     9        0.000000       -0.427801         3
         8         9        10        31     9      180.000000       -0.021814         4
         9         8         7        45     9        0.000000        1.032132         1
         9         8         7        45     9      180.000000       20.904097         2
         9         8         7        45     9        0.000000        0.232440         3
         9         8         7        45     9      180.000000       -0.356138         4
        10         5         4        13     9        0.000000        0.225025         1
        10         5         4        13     9      180.000000        3.630415         2
        10         5         4        13     9        0.000000        0.013756         3
        10         5         4        13     9      180.000000        0.269115         4
        10         5         6        29     9        0.000000       -0.052783         1
        10         5         6        29     9      180.000000       14.390762         2
        10         5         6        29     9        0.000000       -0.509768         3
        10         5         6        29     9      180.000000        0.047993         4
        11         2         3        28     9        0.000000        0.057961         1
        11         2         3        28     9      180.000000       14.650858         2
        11         2         3        28     9        0.000000       -0.773862         3
        11         2         3        28     9      180.000000        0.209768         4
        11        12        13        14     9        0.000000        0.206669         1
        11        12        13        14     9      180.000000       16.726900         2
        11        12        13        14     9        0.000000       -0.002202         3
        11        12        13        14     9      180.000000       -0.370459         4
        12        13        14        15     9        0.000000       -0.762131         1
        12        13        14        15     9      180.000000        0.499961         2
        12        13        14        15     9        0.000000       -0.272033         3
        12        13        14        15     9      180.000000        0.188019         4
        12        13        14        20     9        0.000000       -0.565326         1
        12        13        14        20     9      180.000000        0.603612         2
        12        13        14        20     9        0.000000       -0.267929         3
        12        13        14        20     9      180.000000        0.193694         4
        12        13        14        34     9        0.000000        0.853816         1
        12        13        14        34     9      180.000000        0.136007         2
        12        13        14        34     9        0.000000       -0.241733         3
        12        13        14        34     9      180.000000       -0.081610         4
        13         4         3        28     9        0.000000       -0.035916         1
        13         4         3        28     9      180.000000       15.161675         2
        13         4         3        28     9        0.000000       -0.502662         3
        13         4         3        28     9      180.000000        0.006486         4
        13        12        11        32     9        0.000000        0.034083         1
        13        12        11        32     9      180.000000       14.567658         2
        13        12        11        32     9        0.000000       -0.675040         3
        13        12        11        32     9      180.000000        0.007242         4
        13        14        15        16     9        0.000000       -1.437370         1
        13        14        15        16     9      180.000000       -0.247464         2
        13        14        15        16     9        0.000000        0.245148         3
        13        14        15        16     9      180.000000        0.017017         4
        13        14        15        35     9        0.000000        0.050320         1
        13        14        15        35     9      180.000000        0.016028         2
        13        14        15        35     9        0.000000        0.455224         3
        13        14        15        35     9      180.000000       -0.057819         4
        13        14        15        36     9        0.000000        0.050320         1
        13        14        15        36     9      180.000000        0.016028         2
        13        14        15        36     9        0.000000        0.455224         3
        13        14        15        36     9      180.000000       -0.057819         4
        13        14        20        21     9        0.000000       -1.595951         1
        13        14        20        21     9      180.000000       -0.013577         2
        13        14        20        21     9        0.000000        0.317769         3
        13        14        20        21     9      180.000000       -0.000820         4
        13        14        20        38     9        0.000000        0.069197         1
        13        14        20        38     9      180.000000       -0.016886         2
        13        14        20        38     9        0.000000        0.488869         3
        13        14        20        38     9      180.000000       -0.041276         4
        13        14        20        39     9        0.000000        0.069197         1
        13        14        20        39     9      180.000000       -0.016886         2
        13        14        20        39     9        0.000000        0.488869         3
        13        14        20        39     9      180.000000       -0.041276         4
        14        13        12        33     9        0.000000       -0.000001         1
        14        13        12        33     9      180.000000       13.312472         2
        14        13        12        33     9        0.000000       -0.311198         3
        14        13        12        33     9      180.000000        0.188247         4
        14        15        16        17     9        0.000000        0.509026         1
        14        15        16        17     9      180.000000       -0.987330         2
        14        15        16        17     9        0.000000       -0.487897         3
        14        15        16        17     9      180.000000        0.211307         4
        14        15        16        19     9        0.000000       -0.371254         1
        14        15        16        19     9      180.000000       -0.412905         2
        14        15        16        19     9        0.000000        0.032705         3
        14        15        16        19     9      180.000000        0.160869         4
        14        20        21        19     9        0.000000        1.213571         1
        14        20        21        19     9      180.000000       -0.749710         2
        14        20        21        19     9        0.000000       -0.236537         3
        14        20        21        19     9      180.000000        0.360548         4
        14        20        21        22     9        0.000000       -0.318114         1
        14        20        21        22     9      180.000000       -0.467500         2
        14        20        21        22     9        0.000000        0.258116         3
        14        20        21        22     9      180.000000        0.268366         4
        15        14        20        21     9        0.000000        1.890197         1
        15        14        20        21     9      180.000000       -1.932319         2
        15        14        20        21     9        0.000000        0.067296         3
        15        14        20        21     9      180.000000        0.186608         4
        15        14        20        38     9        0.000000       -0.001244         1
        15        14        20        38     9      180.000000        0.040611         2
        15        14        20        38     9        0.000000        0.234590         3
        15        14        20        38     9      180.000000        0.043342         4
        15        14        20        39     9        0.000000       -0.001244         1
        15        14        20        39     9      180.000000        0.040611         2
        15        14        20        39     9        0.000000        0.234590         3
        15        14        20        39     9      180.000000        0.043342         4
        15        16        17        18     9        0.000000        4.225547         1
        15        16        17        18     9      180.000000       51.189295         2
        15        16        17        18     9        0.000000        1.990612         3
        15        16        17        18     9      180.000000       -3.202666         4
        15        16        19        21     9        0.000000       -0.217385         1
        15        16        19        21     9      180.000000        3.061032         2
        15        16        19        21     9        0.000000       -0.811748         3
        15        16        19        21     9      180.000000        0.133120         4
        15        16        19        26     9        0.000000       -1.310389         1
        15        16        19        26     9      180.000000        2.614690         2
        15        16        19        26     9        0.000000       -0.170646         3
        15        16        19        26     9      180.000000        0.033001         4
        16        15        14        20     9        0.000000       -0.248677         1
        16        15        14        20     9      180.000000       -0.478484         2
        16        15        14        20     9        0.000000        0.027428         3
        16        15        14        20     9      180.000000       -0.122464         4
        16        15        14        34     9        0.000000       -0.368427         1
        16        15        14        34     9      180.000000       -0.005057         2
        16        15        14        34     9        0.000000        0.138286         3
        16        15        14        34     9      180.000000        0.122313         4
        16        17        18        37     9        0.000000        2.198069         1
        16        17        18        37     9      180.000000       12.283681         2
        16        17        18        37     9        0.000000       -0.372773         3
        16        17        18        37     9      180.000000        0.273089         4
        16        19        21        20     9        0.000000       -0.022853         1
        16        19        21        20     9      180.000000       13.036931         2
        16        19        21        20     9        0.000000        0.201050         3
        16        19        21        20     9      180.000000       -0.592324         4
        16        19        21        22     9        0.000000       -0.014305         1
        16        19        21        22     9      180.000000       13.171290         2
        16        19        21        22     9        0.000000        0.095227         3
        16        19        21        22     9      180.000000       -0.457752         4
        16        19        26        25     9        0.000000        0.205978         1
        16        19        26        25     9      180.000000       12.740901         2
        16        19        26        25     9        0.000000        0.144999         3
        16        19        26        25     9      180.000000       -0.611686         4
        16        19        26        27     9        0.000000       -0.082682         1
        16        19        26        27     9      180.000000       12.643957         2
        16        19        26        27     9        0.000000        0.009628         3
        16        19        26        27     9      180.000000       -0.543150         4
        17        16        15        35     9        0.000000       -0.022972         1
        17        16        15        35     9      180.000000       -0.159370         2
        17        16        15        35     9        0.000000       -0.593155         3
        17        16        15        35     9      180.000000        0.021380         4
        17        16        15        36     9        0.000000       -0.022972         1
        17        16        15        36     9      180.000000       -0.159370         2
        17        16        15        36     9        0.000000       -0.593155         3
        17        16        15        36     9      180.000000        0.021380         4
        17        16        19        21     9        0.000000        3.293583         1
        17        16        19        21     9      180.000000        3.739881         2
        17        16        19        21     9        0.000000        0.376543         3
        17        16        19        21     9      180.000000       -0.168725         4
        17        16        19        26     9        0.000000       -0.009804         1
        17        16        19        26     9      180.000000        3.455469         2
        17        16        19        26     9        0.000000        0.063352         3
        17        16        19        26     9      180.000000       -0.130541         4
        18        17        16        19     9        0.000000       -2.699043         1
        18        17        16        19     9      180.000000       38.687819         2
        18        17        16        19     9        0.000000        4.601281         3
        18        17        16        19     9      180.000000       -1.294552         4
        19        16        15        35     9        0.000000        0.077282         1
        19        16        15        35     9      180.000000       -0.084628         2
        19        16        15        35     9        0.000000       -0.075808         3
        19        16        15        35     9      180.000000        0.143049         4
        19        16        15        36     9        0.000000        0.077282         1
        19        16        15        36     9      180.000000       -0.084628         2
        19        16        15        36     9        0.000000       -0.075808         3
        19        16        15        36     9      180.000000        0.143049         4
        19        21        20        38     9        0.000000       -0.043907         1
        19        21        20        38     9      180.000000       -0.003905         2
        19        21        20        38     9        0.000000       -0.224690         3
        19        21        20        38     9      180.000000        0.041805         4
        19        21        20        39     9        0.000000       -0.043907         1
        19        21        20        39     9      180.000000       -0.003905         2
        19        21        20        39     9        0.000000       -0.224690         3
        19        21        20        39     9      180.000000        0.041805         4
        19        21        22        23     9        0.000000       -0.820047         1
        19        21        22        23     9      180.000000       19.251178         2
        19        21        22        23     9        0.000000       -0.800118         3
        19        21        22        23     9      180.000000       -0.237508         4
        19        26        25        23     9        0.000000       -0.419784         1
        19        26        25        23     9      180.000000       19.701046         2
        19        26        25        23     9        0.000000       -0.673837         3
        19        26        25        23     9      180.000000       -0.382273         4
        19        26        27        42     9        0.000000       -0.053022         1
        19        26        27        42     9      180.000000        0.024168         2
        19        26        27        42     9        0.000000       -0.072947         3
        19        26        27        42     9      180.000000        0.026040         4
        19        26        27        43     9        0.000000       -0.053022         1
        19        26        27        43     9      180.000000        0.024168         2
        19        26        27        43     9        0.000000       -0.072947         3
        19        26        27        43     9      180.000000        0.026040         4
        19        26        27        44     9        0.000000       -0.053022         1
        19        26        27        44     9      180.000000        0.024168         2
        19        26        27        44     9        0.000000       -0.072947         3
        19        26        27        44     9      180.000000        0.026040         4
        20        14        15        35     9        0.000000       -0.033746         1
        20        14        15        35     9      180.000000        0.039372         2
        20        14        15        35     9        0.000000        0.214278         3
        20        14        15        35     9      180.000000        0.046356         4
        20        14        15        36     9        0.000000       -0.033746         1
        20        14        15        36     9      180.000000        0.039372         2
        20        14        15        36     9        0.000000        0.214278         3
        20        14        15        36     9      180.000000        0.046356         4
        20        21        19        26     9        0.000000        0.056874         1
        20        21        19        26     9      180.000000       12.089376         2
        20        21        19        26     9        0.000000       -0.052085         3
        20        21        19        26     9      180.000000       -0.430799         4
        20        21        22        23     9        0.000000        0.355451         1
        20        21        22        23     9      180.000000       21.192553         2
        20        21        22        23     9        0.000000        0.608534         3
        20        21        22        23     9      180.000000       -0.962953         4
        21        19        26        25     9        0.000000        0.056891         1
        21        19        26        25     9      180.000000       12.472255         2
        21        19        26        25     9        0.000000        0.070846         3
        21        19        26        25     9      180.000000       -0.560172         4
        21        19        26        27     9        0.000000        0.336974         1
        21        19        26        27     9      180.000000       12.345535         2
        21        19        26        27     9        0.000000        0.133026         3
        21        19        26        27     9      180.000000       -0.613308         4
        21        20        14        34     9        0.000000       -0.337130         1
        21        20        14        34     9      180.000000       -0.012394         2
        21        20        14        34     9        0.000000        0.217271         3
        21        20        14        34     9      180.000000        0.125867         4
        21        22        23        24     9        0.000000        1.328924         1
        21        22        23        24     9      180.000000       19.298655         2
        21        22        23        24     9        0.000000        0.513296         3
        21        22        23        24     9      180.000000       -1.382907         4
        21        22        23        25     9        0.000000        0.332521         1
        21        22        23        25     9      180.000000       10.966068         2
        21        22        23        25     9        0.000000        0.873333         3
        21        22        23        25     9      180.000000       -0.600360         4
        22        21        19        26     9        0.000000        0.241143         1
        22        21        19        26     9      180.000000       12.977944         2
        22        21        19        26     9        0.000000       -0.132314         3
        22        21        19        26     9      180.000000       -0.391115         4
        22        21        20        38     9        0.000000        0.124915         1
        22        21        20        38     9      180.000000        0.056356         2
        22        21        20        38     9        0.000000        0.033774         3
        22        21        20        38     9      180.000000        0.007734         4
        22        21        20        39     9        0.000000        0.124915         1
        22        21        20        39     9      180.000000        0.056356         2
        22        21        20        39     9        0.000000        0.033774         3
        22        21        20        39     9      180.000000        0.007734         4
        22        23        24        40     9        0.000000        2.150164         1
        22        23        24        40     9      180.000000        8.456023         2
        22        23        24        40     9        0.000000       -0.226335         3
        22        23        24        40     9      180.000000       -0.706929         4
        22        23        24        41     9        0.000000        2.150164         1
        22        23        24        41     9      180.000000        8.456023         2
        22        23        24        41     9        0.000000       -0.226335         3
        22        23        24        41     9      180.000000       -0.706929         4
        22        23        25        26     9        0.000000        0.451493         1
        22        23        25        26     9      180.000000       10.466505         2
        22        23        25        26     9        0.000000        0.528119         3
        22        23        25        26     9      180.000000       -0.424154         4
        23        25        26        27     9        0.000000        0.005731         1
        23        25        26        27     9      180.000000       19.763845         2
        23        25        26        27     9        0.000000        0.655866         3
        23        25        26        27     9      180.000000       -0.556165         4
        24        23        25        26     9        0.000000        1.168168         1
        24        23        25        26     9      180.000000       18.736900         2
        24        23        25        26     9        0.000000        0.275942         3
        24        23        25        26     9      180.000000       -1.220428         4
        25        23        24        40     9        0.000000        2.115854         1
        25        23        24        40     9      180.000000        8.542262         2
        25        23        24        40     9        0.000000       -0.196071         3
        25        23        24        40     9      180.000000       -0.809972         4
        25        23        24        41     9        0.000000        2.115854         1
        25        23        24        41     9      180.000000        8.542262         2
        25        23        24        41     9        0.000000       -0.196071         3
        25        23        24        41     9      180.000000       -0.809972         4
        25        26        27        42     9        0.000000       -0.044806         1
        25        26        27        42     9      180.000000       -0.015070         2
        25        26        27        42     9        0.000000        0.146304         3
        25        26        27        42     9      180.000000       -0.008751         4
        25        26        27        43     9        0.000000       -0.044806         1
        25        26        27        43     9      180.000000       -0.015070         2
        25        26        27        43     9        0.000000        0.146304         3
        25        26        27        43     9      180.000000       -0.008751         4
        25        26        27        44     9        0.000000       -0.044806         1
        25        26        27        44     9      180.000000       -0.015070         2
        25        26        27        44     9        0.000000        0.146304         3
        25        26        27        44     9      180.000000       -0.008751         4
        29         6         7        45     9        0.000000       -0.152347         1
        29         6         7        45     9      180.000000       11.812697         2
        29         6         7        45     9        0.000000       -0.705037         3
        29         6         7        45     9      180.000000        0.310786         4
        30         9        10        31     9        0.000000       -0.152346         1
        30         9        10        31     9      180.000000       11.812696         2
        30         9        10        31     9        0.000000       -0.705037         3
        30         9        10        31     9      180.000000        0.310786         4
        32        11        12        33     9        0.000000       -0.191086         1
        32        11        12        33     9      180.000000       11.578835         2
        32        11        12        33     9        0.000000       -0.734835         3
        32        11        12        33     9      180.000000        0.358963         4
        34        14        15        35     9        0.000000        0.033123         1
        34        14        15        35     9      180.000000        0.047136         2
        34        14        15        35     9        0.000000        0.413672         3
        34        14        15        35     9      180.000000       -0.054014         4
        34        14        15        36     9        0.000000        0.033123         1
        34        14        15        36     9      180.000000        0.047136         2
        34        14        15        36     9        0.000000        0.413672         3
        34        14        15        36     9      180.000000       -0.054014         4
        34        14        20        38     9        0.000000        0.047215         1
        34        14        20        38     9      180.000000        0.018087         2
        34        14        20        38     9        0.000000        0.437927         3
        34        14        20        38     9      180.000000       -0.041640         4
        34        14        20        39     9        0.000000        0.047215         1
        34        14        20        39     9      180.000000        0.018087         2
        34        14        20        39     9        0.000000        0.437927         3
        34        14        20        39     9      180.000000       -0.041640         4

[ dihedrals ] ; impropers
;       ai        aj        ak        al funct           phase               k        pn
         7         6         8        45     4      180.000000        8.913435         2
         7         8        45         6     4      180.000000        8.913435         2
         7        45         6         8     4      180.000000        8.913435         2
         9         8        10        30     4      180.000000        8.913437         2
         9        10        30         8     4      180.000000        8.913437         2
         9        30         8        10     4      180.000000        8.913437         2
        16        15        17        19     4      180.000000        1.982062         2
        16        17        19        15     4      180.000000        1.982062         2
        16        19        15        17     4      180.000000        1.982062         2
        21        19        20        22     4      180.000000       11.663190         2
        21        20        22        19     4      180.000000       11.663190         2
        21        22        19        20     4      180.000000       11.663190         2
        23        22        24        25     4      180.000000        3.794662         2
        23        24        25        22     4      180.000000        3.794662         2
        23        25        22        24     4      180.000000        3.794662         2
        26        19        25        27     4      180.000000       14.252838         2
        26        25        27        19     4      180.000000       14.252838         2
        26        27        19        25     4      180.000000       14.252838         2

[ pairs ]
;       ai        aj funct
         1         4     1
         1        12     1
         1        28     1
         1        32     1
         2         5     1
         2        13     1
         2        33     1
         3         6     1
         3        10     1
         3        12     1
         3        14     1
         3        32     1
         4         7     1
         4         9     1
         4        11     1
         4        15     1
         4        20     1
         4        29     1
         4        31     1
         4        33     1
         4        34     1
         5         8     1
         5        12     1
         5        14     1
         5        28     1
         5        30     1
         5        45     1
         6         9     1
         6        13     1
         6        31     1
         7        10     1
         7        30     1
         8        29     1
         8        31     1
         9        45     1
        10        13     1
        10        29     1
        11        14     1
        11        28     1
        12        15     1
        12        20     1
        12        34     1
        13        16     1
        13        21     1
        13        28     1
        13        32     1
        13        35     1
        13        36     1
        13        38     1
        13        39     1
        14        17     1
        14        19     1
        14        22     1
        14        33     1
        15        18     1
        15        21     1
        15        26     1
        15        38     1
        15        39     1
        16        20     1
        16        22     1
        16        25     1
        16        27     1
        16        34     1
        16        37     1
        17        21     1
        17        26     1
        17        35     1
        17        36     1
        18        19     1
        19        23     1
        19        35     1
        19        36     1
        19        38     1
        19        39     1
        19        42     1
        19        43     1
        19        44     1
        20        23     1
        20        26     1
        20        35     1
        20        36     1
        21        24     1
        21        25     1
        21        27     1
        21        34     1
        22        26     1
        22        38     1
        22        39     1
        22        40     1
        22        41     1
        23        27     1
        24        26     1
        25        40     1
        25        41     1
        25        42     1
        25        43     1
        25        44     1
        29        45     1
        30        31     1
        32        33     1
        34        35     1
        34        36     1
        34        38     1
        34        39     1
