; ITP file created by ByteFF-ML, 2025-12-06 03:40:23.536855

[ atomtypes ]
;name           bonded.type        at.num        mass        charge   ptype           sigma         epsilon
 h0bf                                   1      0.0000       0.00000       A     2.62467e-01     6.73573e-02
 c1bf                                   6      0.0000       0.00000       A     3.31494e-01     4.13235e-01
 c2bf                                   6      0.0000       0.00000       A     3.31481e-01     4.12621e-01
 c3bf                                   6      0.0000       0.00000       A     3.31420e-01     4.09183e-01
 c4bf                                   6      0.0000       0.00000       A     3.31477e-01     4.12132e-01
 c5bf                                   6      0.0000       0.00000       A     3.31520e-01     4.12983e-01
 n6bf                                   7      0.0000       0.00000       A     3.38304e-01     3.92853e-01
 c7bf                                   6      0.0000       0.00000       A     3.31503e-01     4.12916e-01
 c8bf                                   6      0.0000       0.00000       A     3.31443e-01     4.13069e-01
 c9bf                                   6      0.0000       0.00000       A     3.31504e-01     4.12978e-01
 c10bf                                  6      0.0000       0.00000       A     3.31482e-01     4.13304e-01
 c11bf                                  6      0.0000       0.00000       A     3.31465e-01     4.13261e-01
 c12bf                                  6      0.0000       0.00000       A     3.31285e-01     4.12396e-01
 c13bf                                  6      0.0000       0.00000       A     3.39665e-01     4.55362e-01
 c14bf                                  6      0.0000       0.00000       A     3.39811e-01     4.48644e-01
 c15bf                                  6      0.0000       0.00000       A     3.31501e-01     4.13824e-01
 n16bf                                  7      0.0000       0.00000       A     3.38862e-01     3.93244e-01
 o17bf                                  8      0.0000       0.00000       A     3.24179e-01     3.84587e-01
 c18bf                                  6      0.0000       0.00000       A     3.31471e-01     4.16170e-01
 c19bf                                  6      0.0000       0.00000       A     3.39770e-01     4.51953e-01
 c20bf                                  6      0.0000       0.00000       A     3.31493e-01     4.13301e-01
 n21bf                                  7      0.0000       0.00000       A     3.38250e-01     3.91083e-01
 c22bf                                  6      0.0000       0.00000       A     3.31280e-01     4.15256e-01
 n23bf                                  7      0.0000       0.00000       A     3.36802e-01     4.71982e-01
 n24bf                                  7      0.0000       0.00000       A     3.38408e-01     3.91650e-01
 c25bf                                  6      0.0000       0.00000       A     3.31307e-01     4.10333e-01
 c26bf                                  6      0.0000       0.00000       A     3.39764e-01     4.51935e-01
 h27bf                                  1      0.0000       0.00000       A     2.62514e-01     6.73876e-02
 h28bf                                  1      0.0000       0.00000       A     2.53647e-01     6.70142e-02
 h29bf                                  1      0.0000       0.00000       A     2.53706e-01     6.70365e-02
 h30bf                                  1      0.0000       0.00000       A     2.62496e-01     6.73302e-02
 h31bf                                  1      0.0000       0.00000       A     2.62505e-01     6.74786e-02
 h32bf                                  1      0.0000       0.00000       A     2.62458e-01     6.72647e-02
 h33bf                                  1      0.0000       0.00000       A     2.62567e-01     6.76941e-02
 h34bf                                  1      0.0000       0.00000       A     2.59862e-01     8.72523e-02
 h35bf                                  1      0.0000       0.00000       A     2.59890e-01     8.73641e-02
 h36bf                                  1      0.0000       0.00000       A     2.59890e-01     8.73641e-02
 h37bf                                  1      0.0000       0.00000       A     5.35355e-02     2.08814e-02
 h38bf                                  1      0.0000       0.00000       A     2.59803e-01     8.72028e-02
 h39bf                                  1      0.0000       0.00000       A     2.59803e-01     8.72028e-02
 h40bf                                  1      0.0000       0.00000       A     1.10066e-01     4.24315e-02
 h41bf                                  1      0.0000       0.00000       A     1.10066e-01     4.24315e-02
 h42bf                                  1      0.0000       0.00000       A     2.59969e-01     8.70097e-02
 h43bf                                  1      0.0000       0.00000       A     2.59969e-01     8.70097e-02
 h44bf                                  1      0.0000       0.00000       A     2.59969e-01     8.70097e-02

[ moleculetype ]
;name             nrexcl
 17                    3

[ atoms ]
;       nr            type      resi   res      atom      cgnr      charge          mass ; qtot
         1            h0bf         1   UNL        h0         1     0.11766        1.0080 ; qtot    0.118
         2            c1bf         1   UNL        c1         2    -0.11556       12.0110 ; qtot    0.002
         3            c2bf         1   UNL        c2         3    -0.10119       12.0110 ; qtot   -0.099
         4            c3bf         1   UNL        c3         4    -0.03576       12.0110 ; qtot   -0.135
         5            c4bf         1   UNL        c4         5    -0.09054       12.0110 ; qtot   -0.225
         6            c5bf         1   UNL        c5         6     0.34104       12.0110 ; qtot    0.116
         7            n6bf         1   UNL        n6         7    -0.66157       14.0070 ; qtot   -0.546
         8            c7bf         1   UNL        c7         8     0.33415       12.0110 ; qtot   -0.212
         9            c8bf         1   UNL        c8         9    -0.16723       12.0110 ; qtot   -0.379
        10            c9bf         1   UNL        c9        10    -0.06755       12.0110 ; qtot   -0.447
        11           c10bf         1   UNL       c10        11    -0.10377       12.0110 ; qtot   -0.550
        12           c11bf         1   UNL       c11        12    -0.10992       12.0110 ; qtot   -0.660
        13           c12bf         1   UNL       c12        13    -0.06435       12.0110 ; qtot   -0.725
        14           c13bf         1   UNL       c13        14    -0.00385       12.0110 ; qtot   -0.728
        15           c14bf         1   UNL       c14        15    -0.12114       12.0110 ; qtot   -0.850
        16           c15bf         1   UNL       c15        16     0.44776       12.0110 ; qtot   -0.402
        17           n16bf         1   UNL       n16        17    -0.32560       14.0070 ; qtot   -0.727
        18           o17bf         1   UNL       o17        18    -0.52514       15.9990 ; qtot   -1.253
        19           c18bf         1   UNL       c18        19    -0.30294       12.0110 ; qtot   -1.555
        20           c19bf         1   UNL       c19        20    -0.13420       12.0110 ; qtot   -1.690
        21           c20bf         1   UNL       c20        21     0.17875       12.0110 ; qtot   -1.511
        22           n21bf         1   UNL       n21        22    -0.24622       14.0070 ; qtot   -1.757
        23           c22bf         1   UNL       c22        23     0.37063       12.0110 ; qtot   -1.387
        24           n23bf         1   UNL       n23        24    -1.02809       14.0070 ; qtot   -2.415
        25           n24bf         1   UNL       n24        25    -0.26323       14.0070 ; qtot   -2.678
        26           c25bf         1   UNL       c25        26     0.21953       12.0110 ; qtot   -2.458
        27           c26bf         1   UNL       c26        27    -0.15202       12.0110 ; qtot   -2.610
        28           h27bf         1   UNL       h27        28     0.11549        1.0080 ; qtot   -2.495
        29           h28bf         1   UNL       h28        29     0.02725        1.0080 ; qtot   -2.468
        30           h29bf         1   UNL       h29        30     0.02484        1.0080 ; qtot   -2.443
        31           h30bf         1   UNL       h30        31     0.12757        1.0080 ; qtot   -2.315
        32           h31bf         1   UNL       h31        32     0.12632        1.0080 ; qtot   -2.189
        33           h32bf         1   UNL       h32        33     0.11691        1.0080 ; qtot   -2.072
        34           h33bf         1   UNL       h33        34     0.11517        1.0080 ; qtot   -1.957
        35           h34bf         1   UNL       h34        35     0.06435        1.0080 ; qtot   -1.892
        36           h35bf         1   UNL       h35        36     0.06919        1.0080 ; qtot   -1.823
        37           h36bf         1   UNL       h36        37     0.06919        1.0080 ; qtot   -1.754
        38           h37bf         1   UNL       h37        38     0.46640        1.0080 ; qtot   -1.288
        39           h38bf         1   UNL       h38        39     0.07330        1.0080 ; qtot   -1.214
        40           h39bf         1   UNL       h39        40     0.07330        1.0080 ; qtot   -1.141
        41           h40bf         1   UNL       h40        41     0.47640        1.0080 ; qtot   -0.665
        42           h41bf         1   UNL       h41        42     0.47640        1.0080 ; qtot   -0.188
        43           h42bf         1   UNL       h42        43     0.06275        1.0080 ; qtot   -0.126
        44           h43bf         1   UNL       h43        44     0.06275        1.0080 ; qtot   -0.063
        45           h44bf         1   UNL       h44        45     0.06277        1.0080 ; qtot   -0.000

[ bonds ]
;       ai        aj funct               r               k
         1         2     1        0.108618   320015.272754
         2         3     1        0.139535   318296.599756
         2        11     1        0.139745   308518.185205
         3         4     1        0.140453   289245.916113
         3        28     1        0.108613   317464.958252
         4         5     1        0.148890   214434.137012
         4        13     1        0.141302   253950.540967
         5         6     1        0.140603   273654.514893
         5        10     1        0.140225   289715.390332
         6         7     1        0.133771   323661.282471
         6        29     1        0.108793   315640.459473
         7         8     1        0.134079   312417.574121
         8         9     1        0.139872   293580.993652
         8        30     1        0.108796   316313.668750
         9        10     1        0.139473   320668.512012
         9        31     1        0.108569   322424.750098
        10        32     1        0.108581   320509.926563
        11        12     1        0.139636   315996.191406
        11        33     1        0.108624   319818.458252
        12        13     1        0.140336   289325.336523
        12        34     1        0.108568   317401.013330
        13        14     1        0.151990   181720.780688
        14        15     1        0.154299   169464.155664
        14        20     1        0.153829   177121.892041
        14        35     1        0.109426   301161.199365
        15        16     1        0.151177   187543.918359
        15        36     1        0.109391   299627.031982
        15        37     1        0.109391   299627.031982
        16        17     1        0.129060   506319.058008
        16        19     1        0.147650   202629.378369
        17        18     1        0.141271   206818.945459
        18        38     1        0.097167   471574.697070
        19        21     1        0.141260   256477.412402
        19        26     1        0.142245   240602.728027
        20        21     1        0.150785   197447.847803
        20        39     1        0.109478   297916.939453
        20        40     1        0.109478   297916.939453
        21        22     1        0.133669   327033.355615
        22        23     1        0.134567   269085.313135
        23        24     1        0.136754   331182.854980
        23        25     1        0.134651   266011.283594
        24        41     1        0.101080   429504.045898
        24        42     1        0.101080   429504.045898
        25        26     1        0.133707   330704.008643
        26        27     1        0.150638   202499.534937
        27        43     1        0.109243   307403.183936
        27        44     1        0.109243   307403.183936
        27        45     1        0.109243   307403.183936

[ angles ]
;       ai        aj        ak funct           theta             cth
         1         2         3     1      120.129272      440.413435
         1         2        11     1      120.604736      435.804977
         2         3         4     1      121.398636      689.664241
         2         3        28     1      119.746483      438.777528
         2        11        12     1      119.661972      696.587671
         2        11        33     1      120.383385      430.838775
         3         2        11     1      119.238159      700.532069
         3         4         5     1      117.578140      547.107350
         3         4        13     1      119.563065      701.593583
         4         3        28     1      118.820679      421.861491
         4         5         6     1      121.089256      509.563841
         4         5        10     1      121.683144      479.305495
         4        13        12     1      118.103310      705.073142
         4        13        14     1      122.429466      454.724431
         5         4        13     1      122.879639      397.009798
         5         6         7     1      124.342087      740.135784
         5         6        29     1      119.764908      384.591772
         5        10         9     1      119.272987      769.635232
         5        10        32     1      119.995239      396.694670
         6         5        10     1      117.027893      750.508256
         6         7         8     1      117.497452      725.304470
         7         6        29     1      116.042404      337.206868
         7         8         9     1      123.149353      698.436302
         7         8        30     1      116.197464      351.729279
         8         9        10     1      118.679703      782.994651
         8         9        31     1      120.286804      450.813998
         9         8        30     1      120.680199      412.468432
         9        10        32     1      120.671181      418.551531
        10         9        31     1      120.981613      431.037358
        11        12        13     1      121.942604      695.591277
        11        12        34     1      118.875656      440.497676
        12        11        33     1      119.954834      436.406886
        12        13        14     1      119.244713      541.517596
        13        12        34     1      119.242722      407.902492
        13        14        15     1      112.735764      588.532309
        13        14        20     1      112.960289      590.930690
        13        14        35     1      107.428299      496.793403
        14        15        16     1      111.227646      654.928921
        14        15        36     1      109.974037      473.402848
        14        15        37     1      109.974037      473.402848
        14        20        21     1      112.053543      610.461216
        14        20        39     1      110.438126      467.752315
        14        20        40     1      110.438126      467.752315
        15        14        20     1      109.029373      566.652305
        15        14        35     1      106.915565      477.222848
        15        16        17     1      120.780602      440.233399
        15        16        19     1      117.722778      488.619485
        16        15        36     1      109.073753      498.526256
        16        15        37     1      109.073753      498.526256
        16        17        18     1      112.810524      812.580159
        16        19        21     1      118.612839      598.884797
        16        19        26     1      125.020386      525.449966
        17        16        19     1      120.662064      402.309578
        17        18        38     1      102.078308      633.371834
        19        21        20     1      120.758751      475.315577
        19        21        22     1      122.698654      721.367541
        19        26        25     1      121.228188      743.307813
        19        26        27     1      123.606651      456.126802
        20        14        35     1      107.124107      477.539189
        20        21        22     1      116.127136      462.293184
        21        19        26     1      115.999184      815.529503
        21        20        39     1      108.435226      513.281789
        21        20        40     1      108.435226      513.281789
        21        22        23     1      116.060204      870.243526
        22        23        24     1      116.984520      584.312174
        22        23        25     1      126.302536      666.537963
        23        24        41     1      116.789536      467.143798
        23        24        42     1      116.789536      467.143798
        23        25        26     1      117.405640      936.974100
        24        23        25     1      116.582581      610.643998
        25        26        27     1      115.223915      514.212425
        26        27        43     1      110.244286      508.144297
        26        27        44     1      110.244286      508.144297
        26        27        45     1      110.244286      508.144297
        36        15        37     1      107.161148      354.713833
        39        20        40     1      106.649391      364.142006
        41        24        42     1      117.566406      320.237682
        43        27        44     1      108.657333      349.777190
        43        27        45     1      108.657333      349.777190
        44        27        45     1      108.657333      349.777190

[ dihedrals ] ; propers for gromacs 4.5 or higher, use funct 9
;       ai        aj        ak        al funct           phase               k        pn
         1         2         3         4     9        0.000000        0.031084         1
         1         2         3         4     9      180.000000       14.483435         2
         1         2         3         4     9        0.000000       -0.635404         3
         1         2         3         4     9      180.000000        0.072889         4
         1         2         3        28     9        0.000000       -0.263004         1
         1         2         3        28     9      180.000000       11.712793         2
         1         2         3        28     9        0.000000       -0.698750         3
         1         2         3        28     9      180.000000        0.348032         4
         1         2        11        12     9        0.000000        0.007715         1
         1         2        11        12     9      180.000000       14.217533         2
         1         2        11        12     9        0.000000       -0.761854         3
         1         2        11        12     9      180.000000        0.122580         4
         1         2        11        33     9        0.000000       -0.165477         1
         1         2        11        33     9      180.000000       10.873132         2
         1         2        11        33     9        0.000000       -0.445365         3
         1         2        11        33     9      180.000000        0.213421         4
         2         3         4         5     9        0.000000        0.327745         1
         2         3         4         5     9      180.000000       17.781459         2
         2         3         4         5     9        0.000000        0.016016         3
         2         3         4         5     9      180.000000       -0.343259         4
         2         3         4        13     9        0.000000       -0.041506         1
         2         3         4        13     9      180.000000       19.326229         2
         2         3         4        13     9        0.000000       -1.474900         3
         2         3         4        13     9      180.000000       -0.402331         4
         2        11        12        13     9        0.000000        0.030296         1
         2        11        12        13     9      180.000000       18.943009         2
         2        11        12        13     9        0.000000       -1.745521         3
         2        11        12        13     9      180.000000       -0.414924         4
         2        11        12        34     9        0.000000        0.054621         1
         2        11        12        34     9      180.000000       14.958405         2
         2        11        12        34     9        0.000000       -0.749325         3
         2        11        12        34     9      180.000000        0.148597         4
         3         2        11        12     9        0.000000        0.029071         1
         3         2        11        12     9      180.000000       18.345438         2
         3         2        11        12     9        0.000000       -1.664502         3
         3         2        11        12     9      180.000000       -0.378246         4
         3         2        11        33     9        0.000000        0.079827         1
         3         2        11        33     9      180.000000       14.082404         2
         3         2        11        33     9        0.000000       -0.776345         3
         3         2        11        33     9      180.000000        0.123033         4
         3         4         5         6     9        0.000000       -0.471103         1
         3         4         5         6     9      180.000000        3.442955         2
         3         4         5         6     9        0.000000        0.078679         3
         3         4         5         6     9      180.000000        0.204119         4
         3         4         5        10     9        0.000000       -0.167499         1
         3         4         5        10     9      180.000000        3.859417         2
         3         4         5        10     9        0.000000        0.046013         3
         3         4         5        10     9      180.000000        0.260253         4
         3         4        13        12     9        0.000000       -0.094583         1
         3         4        13        12     9      180.000000       17.888767         2
         3         4        13        12     9        0.000000       -1.249394         3
         3         4        13        12     9      180.000000       -0.465998         4
         3         4        13        14     9        0.000000        0.167806         1
         3         4        13        14     9      180.000000       13.214863         2
         3         4        13        14     9        0.000000        0.063396         3
         3         4        13        14     9      180.000000       -0.440031         4
         4         3         2        11     9        0.000000       -0.031504         1
         4         3         2        11     9      180.000000       18.688334         2
         4         3         2        11     9        0.000000       -1.536141         3
         4         3         2        11     9      180.000000       -0.324753         4
         4         5         6         7     9        0.000000       -0.075618         1
         4         5         6         7     9      180.000000       15.303355         2
         4         5         6         7     9        0.000000        0.001561         3
         4         5         6         7     9      180.000000       -0.525528         4
         4         5         6        29     9        0.000000        0.125910         1
         4         5         6        29     9      180.000000       12.782671         2
         4         5         6        29     9        0.000000       -0.097015         3
         4         5         6        29     9      180.000000        0.175269         4
         4         5        10         9     9        0.000000        0.316764         1
         4         5        10         9     9      180.000000       16.531323         2
         4         5        10         9     9        0.000000       -0.014128         3
         4         5        10         9     9      180.000000       -0.343287         4
         4         5        10        32     9        0.000000        0.027196         1
         4         5        10        32     9      180.000000       13.015437         2
         4         5        10        32     9        0.000000       -0.131603         3
         4         5        10        32     9      180.000000        0.208725         4
         4        13        12        11     9        0.000000        0.000200         1
         4        13        12        11     9      180.000000       19.625077         2
         4        13        12        11     9        0.000000       -1.409068         3
         4        13        12        11     9      180.000000       -0.474779         4
         4        13        12        34     9        0.000000        0.052094         1
         4        13        12        34     9      180.000000       14.803556         2
         4        13        12        34     9        0.000000       -0.466314         3
         4        13        12        34     9      180.000000        0.074567         4
         4        13        14        15     9        0.000000        1.009380         1
         4        13        14        15     9      180.000000       -0.386279         2
         4        13        14        15     9        0.000000        0.556111         3
         4        13        14        15     9      180.000000        0.109028         4
         4        13        14        20     9        0.000000        0.557650         1
         4        13        14        20     9      180.000000       -0.102430         2
         4        13        14        20     9        0.000000        0.545950         3
         4        13        14        20     9      180.000000        0.080043         4
         4        13        14        35     9        0.000000       -0.750461         1
         4        13        14        35     9      180.000000        0.223586         2
         4        13        14        35     9        0.000000        0.233558         3
         4        13        14        35     9      180.000000        0.018955         4
         5         4         3        28     9        0.000000       -0.006928         1
         5         4         3        28     9      180.000000       13.852722         2
         5         4         3        28     9        0.000000       -0.096282         3
         5         4         3        28     9      180.000000        0.188487         4
         5         4        13        12     9        0.000000        0.124142         1
         5         4        13        12     9      180.000000       15.570404         2
         5         4        13        12     9        0.000000       -0.130739         3
         5         4        13        12     9      180.000000       -0.537470         4
         5         4        13        14     9        0.000000       -0.049072         1
         5         4        13        14     9      180.000000       14.876220         2
         5         4        13        14     9        0.000000        0.255418         3
         5         4        13        14     9      180.000000       -0.470055         4
         5         6         7         8     9        0.000000        0.159530         1
         5         6         7         8     9      180.000000       23.553044         2
         5         6         7         8     9        0.000000       -0.647778         3
         5         6         7         8     9      180.000000       -0.200550         4
         5        10         9         8     9        0.000000        0.005092         1
         5        10         9         8     9      180.000000       18.560206         2
         5        10         9         8     9        0.000000       -1.605106         3
         5        10         9         8     9      180.000000       -0.448069         4
         5        10         9        31     9        0.000000       -0.111535         1
         5        10         9        31     9      180.000000       14.847541         2
         5        10         9        31     9        0.000000       -0.570735         3
         5        10         9        31     9      180.000000        0.023590         4
         6         5         4        13     9        0.000000        0.094828         1
         6         5         4        13     9      180.000000        2.944631         2
         6         5         4        13     9        0.000000        0.043772         3
         6         5         4        13     9      180.000000        0.109117         4
         6         5        10         9     9        0.000000       -0.165955         1
         6         5        10         9     9      180.000000       18.076485         2
         6         5        10         9     9        0.000000       -1.570801         3
         6         5        10         9     9      180.000000       -0.459341         4
         6         5        10        32     9        0.000000        0.013219         1
         6         5        10        32     9      180.000000       13.669677         2
         6         5        10        32     9        0.000000       -0.614345         3
         6         5        10        32     9      180.000000        0.066509         4
         6         7         8         9     9        0.000000        0.298945         1
         6         7         8         9     9      180.000000       22.294673         2
         6         7         8         9     9        0.000000       -0.786306         3
         6         7         8         9     9      180.000000       -0.188441         4
         6         7         8        30     9        0.000000        1.174633         1
         6         7         8        30     9      180.000000       20.228158         2
         6         7         8        30     9        0.000000        0.180199         3
         6         7         8        30     9      180.000000       -0.381469         4
         7         6         5        10     9        0.000000       -0.026274         1
         7         6         5        10     9      180.000000       17.429608         2
         7         6         5        10     9        0.000000       -0.562697         3
         7         6         5        10     9      180.000000       -0.435294         4
         7         8         9        10     9        0.000000       -0.106409         1
         7         8         9        10     9      180.000000       18.177821         2
         7         8         9        10     9        0.000000       -0.894445         3
         7         8         9        10     9      180.000000       -0.468386         4
         7         8         9        31     9        0.000000       -0.048068         1
         7         8         9        31     9      180.000000       13.610834         2
         7         8         9        31     9        0.000000       -0.353285         3
         7         8         9        31     9      180.000000       -0.011482         4
         8         7         6        29     9        0.000000        0.886783         1
         8         7         6        29     9      180.000000       21.246149         2
         8         7         6        29     9        0.000000        0.214289         3
         8         7         6        29     9      180.000000       -0.254800         4
         8         9        10        32     9        0.000000        0.078875         1
         8         9        10        32     9      180.000000       14.289765         2
         8         9        10        32     9        0.000000       -0.642108         3
         8         9        10        32     9      180.000000        0.122470         4
        10         5         4        13     9        0.000000        0.122885         1
        10         5         4        13     9      180.000000        3.532906         2
        10         5         4        13     9        0.000000        0.078111         3
        10         5         4        13     9      180.000000        0.149926         4
        10         5         6        29     9        0.000000       -0.112060         1
        10         5         6        29     9      180.000000       13.325215         2
        10         5         6        29     9        0.000000       -0.324411         3
        10         5         6        29     9      180.000000        0.115791         4
        10         9         8        30     9        0.000000        0.127045         1
        10         9         8        30     9      180.000000       13.676841         2
        10         9         8        30     9        0.000000       -0.497626         3
        10         9         8        30     9      180.000000        0.117306         4
        11         2         3        28     9        0.000000        0.049576         1
        11         2         3        28     9      180.000000       14.644565         2
        11         2         3        28     9        0.000000       -0.777692         3
        11         2         3        28     9      180.000000        0.207788         4
        11        12        13        14     9        0.000000        0.197218         1
        11        12        13        14     9      180.000000       16.707779         2
        11        12        13        14     9        0.000000       -0.003084         3
        11        12        13        14     9      180.000000       -0.367433         4
        12        13        14        15     9        0.000000       -0.744806         1
        12        13        14        15     9      180.000000        0.501703         2
        12        13        14        15     9        0.000000       -0.267929         3
        12        13        14        15     9      180.000000        0.184724         4
        12        13        14        20     9        0.000000       -0.547172         1
        12        13        14        20     9      180.000000        0.608802         2
        12        13        14        20     9        0.000000       -0.262492         3
        12        13        14        20     9      180.000000        0.189319         4
        12        13        14        35     9        0.000000        0.847887         1
        12        13        14        35     9      180.000000        0.130386         2
        12        13        14        35     9        0.000000       -0.239425         3
        12        13        14        35     9      180.000000       -0.079618         4
        13         4         3        28     9        0.000000       -0.003295         1
        13         4         3        28     9      180.000000       15.293103         2
        13         4         3        28     9        0.000000       -0.444219         3
        13         4         3        28     9      180.000000       -0.018407         4
        13        12        11        33     9        0.000000        0.032960         1
        13        12        11        33     9      180.000000       14.605356         2
        13        12        11        33     9        0.000000       -0.669644         3
        13        12        11        33     9      180.000000        0.003577         4
        13        14        15        16     9        0.000000       -1.413736         1
        13        14        15        16     9      180.000000       -0.256496         2
        13        14        15        16     9        0.000000        0.248533         3
        13        14        15        16     9      180.000000        0.015502         4
        13        14        15        36     9        0.000000        0.050903         1
        13        14        15        36     9      180.000000        0.017972         2
        13        14        15        36     9        0.000000        0.455600         3
        13        14        15        36     9      180.000000       -0.056982         4
        13        14        15        37     9        0.000000        0.050903         1
        13        14        15        37     9      180.000000        0.017972         2
        13        14        15        37     9        0.000000        0.455600         3
        13        14        15        37     9      180.000000       -0.056982         4
        13        14        20        21     9        0.000000       -1.579259         1
        13        14        20        21     9      180.000000       -0.019233         2
        13        14        20        21     9        0.000000        0.321533         3
        13        14        20        21     9      180.000000       -0.000115         4
        13        14        20        39     9        0.000000        0.067459         1
        13        14        20        39     9      180.000000       -0.015852         2
        13        14        20        39     9        0.000000        0.488201         3
        13        14        20        39     9      180.000000       -0.040609         4
        13        14        20        40     9        0.000000        0.067459         1
        13        14        20        40     9      180.000000       -0.015852         2
        13        14        20        40     9        0.000000        0.488201         3
        13        14        20        40     9      180.000000       -0.040609         4
        14        13        12        34     9        0.000000       -0.002058         1
        14        13        12        34     9      180.000000       13.309165         2
        14        13        12        34     9        0.000000       -0.308495         3
        14        13        12        34     9      180.000000        0.190419         4
        14        15        16        17     9        0.000000        0.509026         1
        14        15        16        17     9      180.000000       -0.987330         2
        14        15        16        17     9        0.000000       -0.487897         3
        14        15        16        17     9      180.000000        0.211307         4
        14        15        16        19     9        0.000000       -0.371254         1
        14        15        16        19     9      180.000000       -0.412905         2
        14        15        16        19     9        0.000000        0.032705         3
        14        15        16        19     9      180.000000        0.160869         4
        14        20        21        19     9        0.000000        1.213571         1
        14        20        21        19     9      180.000000       -0.749710         2
        14        20        21        19     9        0.000000       -0.236537         3
        14        20        21        19     9      180.000000        0.360548         4
        14        20        21        22     9        0.000000       -0.318114         1
        14        20        21        22     9      180.000000       -0.467500         2
        14        20        21        22     9        0.000000        0.258116         3
        14        20        21        22     9      180.000000        0.268366         4
        15        14        20        21     9        0.000000        1.890197         1
        15        14        20        21     9      180.000000       -1.932319         2
        15        14        20        21     9        0.000000        0.067296         3
        15        14        20        21     9      180.000000        0.186608         4
        15        14        20        39     9        0.000000       -0.001244         1
        15        14        20        39     9      180.000000        0.040611         2
        15        14        20        39     9        0.000000        0.234590         3
        15        14        20        39     9      180.000000        0.043342         4
        15        14        20        40     9        0.000000       -0.001244         1
        15        14        20        40     9      180.000000        0.040611         2
        15        14        20        40     9        0.000000        0.234590         3
        15        14        20        40     9      180.000000        0.043342         4
        15        16        17        18     9        0.000000        4.225547         1
        15        16        17        18     9      180.000000       51.189295         2
        15        16        17        18     9        0.000000        1.990612         3
        15        16        17        18     9      180.000000       -3.202666         4
        15        16        19        21     9        0.000000       -0.217385         1
        15        16        19        21     9      180.000000        3.061032         2
        15        16        19        21     9        0.000000       -0.811748         3
        15        16        19        21     9      180.000000        0.133120         4
        15        16        19        26     9        0.000000       -1.310389         1
        15        16        19        26     9      180.000000        2.614690         2
        15        16        19        26     9        0.000000       -0.170646         3
        15        16        19        26     9      180.000000        0.033001         4
        16        15        14        20     9        0.000000       -0.248677         1
        16        15        14        20     9      180.000000       -0.478484         2
        16        15        14        20     9        0.000000        0.027428         3
        16        15        14        20     9      180.000000       -0.122464         4
        16        15        14        35     9        0.000000       -0.368427         1
        16        15        14        35     9      180.000000       -0.005057         2
        16        15        14        35     9        0.000000        0.138286         3
        16        15        14        35     9      180.000000        0.122313         4
        16        17        18        38     9        0.000000        2.198069         1
        16        17        18        38     9      180.000000       12.283681         2
        16        17        18        38     9        0.000000       -0.372773         3
        16        17        18        38     9      180.000000        0.273089         4
        16        19        21        20     9        0.000000       -0.022853         1
        16        19        21        20     9      180.000000       13.036931         2
        16        19        21        20     9        0.000000        0.201050         3
        16        19        21        20     9      180.000000       -0.592324         4
        16        19        21        22     9        0.000000       -0.014305         1
        16        19        21        22     9      180.000000       13.171290         2
        16        19        21        22     9        0.000000        0.095227         3
        16        19        21        22     9      180.000000       -0.457752         4
        16        19        26        25     9        0.000000        0.205978         1
        16        19        26        25     9      180.000000       12.740901         2
        16        19        26        25     9        0.000000        0.144999         3
        16        19        26        25     9      180.000000       -0.611686         4
        16        19        26        27     9        0.000000       -0.082682         1
        16        19        26        27     9      180.000000       12.643957         2
        16        19        26        27     9        0.000000        0.009628         3
        16        19        26        27     9      180.000000       -0.543150         4
        17        16        15        36     9        0.000000       -0.022972         1
        17        16        15        36     9      180.000000       -0.159370         2
        17        16        15        36     9        0.000000       -0.593155         3
        17        16        15        36     9      180.000000        0.021380         4
        17        16        15        37     9        0.000000       -0.022972         1
        17        16        15        37     9      180.000000       -0.159370         2
        17        16        15        37     9        0.000000       -0.593155         3
        17        16        15        37     9      180.000000        0.021380         4
        17        16        19        21     9        0.000000        3.293583         1
        17        16        19        21     9      180.000000        3.739881         2
        17        16        19        21     9        0.000000        0.376543         3
        17        16        19        21     9      180.000000       -0.168725         4
        17        16        19        26     9        0.000000       -0.009804         1
        17        16        19        26     9      180.000000        3.455469         2
        17        16        19        26     9        0.000000        0.063352         3
        17        16        19        26     9      180.000000       -0.130541         4
        18        17        16        19     9        0.000000       -2.699043         1
        18        17        16        19     9      180.000000       38.687819         2
        18        17        16        19     9        0.000000        4.601281         3
        18        17        16        19     9      180.000000       -1.294552         4
        19        16        15        36     9        0.000000        0.077282         1
        19        16        15        36     9      180.000000       -0.084628         2
        19        16        15        36     9        0.000000       -0.075808         3
        19        16        15        36     9      180.000000        0.143049         4
        19        16        15        37     9        0.000000        0.077282         1
        19        16        15        37     9      180.000000       -0.084628         2
        19        16        15        37     9        0.000000       -0.075808         3
        19        16        15        37     9      180.000000        0.143049         4
        19        21        20        39     9        0.000000       -0.043907         1
        19        21        20        39     9      180.000000       -0.003905         2
        19        21        20        39     9        0.000000       -0.224690         3
        19        21        20        39     9      180.000000        0.041805         4
        19        21        20        40     9        0.000000       -0.043907         1
        19        21        20        40     9      180.000000       -0.003905         2
        19        21        20        40     9        0.000000       -0.224690         3
        19        21        20        40     9      180.000000        0.041805         4
        19        21        22        23     9        0.000000       -0.820047         1
        19        21        22        23     9      180.000000       19.251178         2
        19        21        22        23     9        0.000000       -0.800118         3
        19        21        22        23     9      180.000000       -0.237508         4
        19        26        25        23     9        0.000000       -0.419784         1
        19        26        25        23     9      180.000000       19.701046         2
        19        26        25        23     9        0.000000       -0.673837         3
        19        26        25        23     9      180.000000       -0.382273         4
        19        26        27        43     9        0.000000       -0.053022         1
        19        26        27        43     9      180.000000        0.024168         2
        19        26        27        43     9        0.000000       -0.072947         3
        19        26        27        43     9      180.000000        0.026040         4
        19        26        27        44     9        0.000000       -0.053022         1
        19        26        27        44     9      180.000000        0.024168         2
        19        26        27        44     9        0.000000       -0.072947         3
        19        26        27        44     9      180.000000        0.026040         4
        19        26        27        45     9        0.000000       -0.053022         1
        19        26        27        45     9      180.000000        0.024168         2
        19        26        27        45     9        0.000000       -0.072947         3
        19        26        27        45     9      180.000000        0.026040         4
        20        14        15        36     9        0.000000       -0.033746         1
        20        14        15        36     9      180.000000        0.039372         2
        20        14        15        36     9        0.000000        0.214278         3
        20        14        15        36     9      180.000000        0.046356         4
        20        14        15        37     9        0.000000       -0.033746         1
        20        14        15        37     9      180.000000        0.039372         2
        20        14        15        37     9        0.000000        0.214278         3
        20        14        15        37     9      180.000000        0.046356         4
        20        21        19        26     9        0.000000        0.056874         1
        20        21        19        26     9      180.000000       12.089376         2
        20        21        19        26     9        0.000000       -0.052085         3
        20        21        19        26     9      180.000000       -0.430799         4
        20        21        22        23     9        0.000000        0.355451         1
        20        21        22        23     9      180.000000       21.192553         2
        20        21        22        23     9        0.000000        0.608534         3
        20        21        22        23     9      180.000000       -0.962953         4
        21        19        26        25     9        0.000000        0.056891         1
        21        19        26        25     9      180.000000       12.472255         2
        21        19        26        25     9        0.000000        0.070846         3
        21        19        26        25     9      180.000000       -0.560172         4
        21        19        26        27     9        0.000000        0.336974         1
        21        19        26        27     9      180.000000       12.345535         2
        21        19        26        27     9        0.000000        0.133026         3
        21        19        26        27     9      180.000000       -0.613308         4
        21        20        14        35     9        0.000000       -0.337130         1
        21        20        14        35     9      180.000000       -0.012394         2
        21        20        14        35     9        0.000000        0.217271         3
        21        20        14        35     9      180.000000        0.125867         4
        21        22        23        24     9        0.000000        1.328924         1
        21        22        23        24     9      180.000000       19.298655         2
        21        22        23        24     9        0.000000        0.513296         3
        21        22        23        24     9      180.000000       -1.382907         4
        21        22        23        25     9        0.000000        0.332521         1
        21        22        23        25     9      180.000000       10.966068         2
        21        22        23        25     9        0.000000        0.873333         3
        21        22        23        25     9      180.000000       -0.600360         4
        22        21        19        26     9        0.000000        0.241143         1
        22        21        19        26     9      180.000000       12.977944         2
        22        21        19        26     9        0.000000       -0.132314         3
        22        21        19        26     9      180.000000       -0.391115         4
        22        21        20        39     9        0.000000        0.124915         1
        22        21        20        39     9      180.000000        0.056356         2
        22        21        20        39     9        0.000000        0.033774         3
        22        21        20        39     9      180.000000        0.007734         4
        22        21        20        40     9        0.000000        0.124915         1
        22        21        20        40     9      180.000000        0.056356         2
        22        21        20        40     9        0.000000        0.033774         3
        22        21        20        40     9      180.000000        0.007734         4
        22        23        24        41     9        0.000000        2.150164         1
        22        23        24        41     9      180.000000        8.456023         2
        22        23        24        41     9        0.000000       -0.226335         3
        22        23        24        41     9      180.000000       -0.706929         4
        22        23        24        42     9        0.000000        2.150164         1
        22        23        24        42     9      180.000000        8.456023         2
        22        23        24        42     9        0.000000       -0.226335         3
        22        23        24        42     9      180.000000       -0.706929         4
        22        23        25        26     9        0.000000        0.451493         1
        22        23        25        26     9      180.000000       10.466505         2
        22        23        25        26     9        0.000000        0.528119         3
        22        23        25        26     9      180.000000       -0.424154         4
        23        25        26        27     9        0.000000        0.005731         1
        23        25        26        27     9      180.000000       19.763845         2
        23        25        26        27     9        0.000000        0.655866         3
        23        25        26        27     9      180.000000       -0.556165         4
        24        23        25        26     9        0.000000        1.168168         1
        24        23        25        26     9      180.000000       18.736900         2
        24        23        25        26     9        0.000000        0.275942         3
        24        23        25        26     9      180.000000       -1.220428         4
        25        23        24        41     9        0.000000        2.115854         1
        25        23        24        41     9      180.000000        8.542262         2
        25        23        24        41     9        0.000000       -0.196071         3
        25        23        24        41     9      180.000000       -0.809972         4
        25        23        24        42     9        0.000000        2.115854         1
        25        23        24        42     9      180.000000        8.542262         2
        25        23        24        42     9        0.000000       -0.196071         3
        25        23        24        42     9      180.000000       -0.809972         4
        25        26        27        43     9        0.000000       -0.044806         1
        25        26        27        43     9      180.000000       -0.015070         2
        25        26        27        43     9        0.000000        0.146304         3
        25        26        27        43     9      180.000000       -0.008751         4
        25        26        27        44     9        0.000000       -0.044806         1
        25        26        27        44     9      180.000000       -0.015070         2
        25        26        27        44     9        0.000000        0.146304         3
        25        26        27        44     9      180.000000       -0.008751         4
        25        26        27        45     9        0.000000       -0.044806         1
        25        26        27        45     9      180.000000       -0.015070         2
        25        26        27        45     9        0.000000        0.146304         3
        25        26        27        45     9      180.000000       -0.008751         4
        30         8         9        31     9        0.000000       -0.013624         1
        30         8         9        31     9      180.000000       11.247322         2
        30         8         9        31     9        0.000000       -0.654121         3
        30         8         9        31     9      180.000000        0.292997         4
        31         9        10        32     9        0.000000       -0.287662         1
        31         9        10        32     9      180.000000       12.249904         2
        31         9        10        32     9        0.000000       -0.649921         3
        31         9        10        32     9      180.000000        0.288333         4
        33        11        12        34     9        0.000000       -0.191086         1
        33        11        12        34     9      180.000000       11.578835         2
        33        11        12        34     9        0.000000       -0.734835         3
        33        11        12        34     9      180.000000        0.358963         4
        35        14        15        36     9        0.000000        0.033122         1
        35        14        15        36     9      180.000000        0.047137         2
        35        14        15        36     9        0.000000        0.413673         3
        35        14        15        36     9      180.000000       -0.054014         4
        35        14        15        37     9        0.000000        0.033122         1
        35        14        15        37     9      180.000000        0.047137         2
        35        14        15        37     9        0.000000        0.413673         3
        35        14        15        37     9      180.000000       -0.054014         4
        35        14        20        39     9        0.000000        0.047214         1
        35        14        20        39     9      180.000000        0.018087         2
        35        14        20        39     9        0.000000        0.437927         3
        35        14        20        39     9      180.000000       -0.041640         4
        35        14        20        40     9        0.000000        0.047214         1
        35        14        20        40     9      180.000000        0.018087         2
        35        14        20        40     9        0.000000        0.437927         3
        35        14        20        40     9      180.000000       -0.041640         4

[ dihedrals ] ; impropers
;       ai        aj        ak        al funct           phase               k        pn
         6         5         7        29     4      180.000000        8.193083         2
         6         7        29         5     4      180.000000        8.193083         2
         6        29         5         7     4      180.000000        8.193083         2
         8         7         9        30     4      180.000000        5.419038         2
         8         9        30         7     4      180.000000        5.419038         2
         8        30         7         9     4      180.000000        5.419038         2
         9         8        10        31     4      180.000000        0.282321         2
         9        10        31         8     4      180.000000        0.282321         2
         9        31         8        10     4      180.000000        0.282321         2
        10         5         9        32     4      180.000000        3.281965         2
        10         9        32         5     4      180.000000        3.281965         2
        10        32         5         9     4      180.000000        3.281965         2
        16        15        17        19     4      180.000000        1.982062         2
        16        17        19        15     4      180.000000        1.982062         2
        16        19        15        17     4      180.000000        1.982062         2
        21        19        20        22     4      180.000000       11.663190         2
        21        20        22        19     4      180.000000       11.663190         2
        21        22        19        20     4      180.000000       11.663190         2
        23        22        24        25     4      180.000000        3.794662         2
        23        24        25        22     4      180.000000        3.794662         2
        23        25        22        24     4      180.000000        3.794662         2
        26        19        25        27     4      180.000000       14.252838         2
        26        25        27        19     4      180.000000       14.252838         2
        26        27        19        25     4      180.000000       14.252838         2

[ pairs ]
;       ai        aj funct
         1         4     1
         1        12     1
         1        28     1
         1        33     1
         2         5     1
         2        13     1
         2        34     1
         3         6     1
         3        10     1
         3        12     1
         3        14     1
         3        33     1
         4         7     1
         4         9     1
         4        11     1
         4        15     1
         4        20     1
         4        29     1
         4        32     1
         4        34     1
         4        35     1
         5         8     1
         5        12     1
         5        14     1
         5        28     1
         5        31     1
         6         9     1
         6        13     1
         6        30     1
         6        32     1
         7        10     1
         7        31     1
         8        29     1
         8        32     1
        10        13     1
        10        29     1
        10        30     1
        11        14     1
        11        28     1
        12        15     1
        12        20     1
        12        35     1
        13        16     1
        13        21     1
        13        28     1
        13        33     1
        13        36     1
        13        37     1
        13        39     1
        13        40     1
        14        17     1
        14        19     1
        14        22     1
        14        34     1
        15        18     1
        15        21     1
        15        26     1
        15        39     1
        15        40     1
        16        20     1
        16        22     1
        16        25     1
        16        27     1
        16        35     1
        16        38     1
        17        21     1
        17        26     1
        17        36     1
        17        37     1
        18        19     1
        19        23     1
        19        36     1
        19        37     1
        19        39     1
        19        40     1
        19        43     1
        19        44     1
        19        45     1
        20        23     1
        20        26     1
        20        36     1
        20        37     1
        21        24     1
        21        25     1
        21        27     1
        21        35     1
        22        26     1
        22        39     1
        22        40     1
        22        41     1
        22        42     1
        23        27     1
        24        26     1
        25        41     1
        25        42     1
        25        43     1
        25        44     1
        25        45     1
        30        31     1
        31        32     1
        33        34     1
        35        36     1
        35        37     1
        35        39     1
        35        40     1
