; ITP file created by ByteFF-ML, 2025-12-06 03:40:48.337810

[ atomtypes ]
;name           bonded.type        at.num        mass        charge   ptype           sigma         epsilon
 f0bf                                   9      0.0000       0.00000       A     3.03450e-01     3.48510e-01
 c1bf                                   6      0.0000       0.00000       A     3.31561e-01     4.13928e-01
 c2bf                                   6      0.0000       0.00000       A     3.31529e-01     4.13238e-01
 c3bf                                   6      0.0000       0.00000       A     3.31392e-01     4.09923e-01
 c4bf                                   6      0.0000       0.00000       A     3.31487e-01     4.13628e-01
 c5bf                                   6      0.0000       0.00000       A     3.31520e-01     4.12983e-01
 n6bf                                   7      0.0000       0.00000       A     3.38304e-01     3.92853e-01
 c7bf                                   6      0.0000       0.00000       A     3.31503e-01     4.12916e-01
 c8bf                                   6      0.0000       0.00000       A     3.31443e-01     4.13069e-01
 c9bf                                   6      0.0000       0.00000       A     3.31504e-01     4.12978e-01
 c10bf                                  6      0.0000       0.00000       A     3.31530e-01     4.12731e-01
 c11bf                                  6      0.0000       0.00000       A     3.31458e-01     4.12421e-01
 c12bf                                  6      0.0000       0.00000       A     3.31296e-01     4.12593e-01
 c13bf                                  6      0.0000       0.00000       A     3.39665e-01     4.55362e-01
 c14bf                                  6      0.0000       0.00000       A     3.39811e-01     4.48644e-01
 c15bf                                  6      0.0000       0.00000       A     3.31501e-01     4.13824e-01
 n16bf                                  7      0.0000       0.00000       A     3.38862e-01     3.93244e-01
 o17bf                                  8      0.0000       0.00000       A     3.24179e-01     3.84587e-01
 c18bf                                  6      0.0000       0.00000       A     3.31471e-01     4.16170e-01
 c19bf                                  6      0.0000       0.00000       A     3.39770e-01     4.51953e-01
 c20bf                                  6      0.0000       0.00000       A     3.31493e-01     4.13301e-01
 n21bf                                  7      0.0000       0.00000       A     3.38250e-01     3.91083e-01
 c22bf                                  6      0.0000       0.00000       A     3.31280e-01     4.15256e-01
 n23bf                                  7      0.0000       0.00000       A     3.36802e-01     4.71982e-01
 n24bf                                  7      0.0000       0.00000       A     3.38408e-01     3.91650e-01
 c25bf                                  6      0.0000       0.00000       A     3.31307e-01     4.10333e-01
 c26bf                                  6      0.0000       0.00000       A     3.39764e-01     4.51935e-01
 h27bf                                  1      0.0000       0.00000       A     2.62458e-01     6.72536e-02
 h28bf                                  1      0.0000       0.00000       A     2.53647e-01     6.70142e-02
 h29bf                                  1      0.0000       0.00000       A     2.53706e-01     6.70365e-02
 h30bf                                  1      0.0000       0.00000       A     2.62496e-01     6.73302e-02
 h31bf                                  1      0.0000       0.00000       A     2.62505e-01     6.74786e-02
 h32bf                                  1      0.0000       0.00000       A     2.62526e-01     6.71227e-02
 h33bf                                  1      0.0000       0.00000       A     2.62573e-01     6.77531e-02
 h34bf                                  1      0.0000       0.00000       A     2.59862e-01     8.72523e-02
 h35bf                                  1      0.0000       0.00000       A     2.59890e-01     8.73641e-02
 h36bf                                  1      0.0000       0.00000       A     2.59890e-01     8.73641e-02
 h37bf                                  1      0.0000       0.00000       A     5.35355e-02     2.08814e-02
 h38bf                                  1      0.0000       0.00000       A     2.59803e-01     8.72028e-02
 h39bf                                  1      0.0000       0.00000       A     2.59803e-01     8.72028e-02
 h40bf                                  1      0.0000       0.00000       A     1.10066e-01     4.24315e-02
 h41bf                                  1      0.0000       0.00000       A     1.10066e-01     4.24315e-02
 h42bf                                  1      0.0000       0.00000       A     2.59969e-01     8.70097e-02
 h43bf                                  1      0.0000       0.00000       A     2.59969e-01     8.70097e-02
 h44bf                                  1      0.0000       0.00000       A     2.59969e-01     8.70097e-02

[ moleculetype ]
;name             nrexcl
 19                    3

[ atoms ]
;       nr            type      resi   res      atom      cgnr      charge          mass ; qtot
         1            f0bf         1   UNL        f0         1    -0.17723       18.9980 ; qtot   -0.177
         2            c1bf         1   UNL        c1         2     0.15875       12.0110 ; qtot   -0.018
         3            c2bf         1   UNL        c2         3    -0.13742       12.0110 ; qtot   -0.156
         4            c3bf         1   UNL        c3         4    -0.00532       12.0110 ; qtot   -0.161
         5            c4bf         1   UNL        c4         5    -0.09471       12.0110 ; qtot   -0.256
         6            c5bf         1   UNL        c5         6     0.34320       12.0110 ; qtot    0.087
         7            n6bf         1   UNL        n6         7    -0.66157       14.0070 ; qtot   -0.574
         8            c7bf         1   UNL        c7         8     0.33415       12.0110 ; qtot   -0.240
         9            c8bf         1   UNL        c8         9    -0.16723       12.0110 ; qtot   -0.407
        10            c9bf         1   UNL        c9        10    -0.06527       12.0110 ; qtot   -0.473
        11           c10bf         1   UNL       c10        11    -0.14107       12.0110 ; qtot   -0.614
        12           c11bf         1   UNL       c11        12    -0.08239       12.0110 ; qtot   -0.696
        13           c12bf         1   UNL       c12        13    -0.07547       12.0110 ; qtot   -0.772
        14           c13bf         1   UNL       c13        14    -0.00255       12.0110 ; qtot   -0.774
        15           c14bf         1   UNL       c14        15    -0.12114       12.0110 ; qtot   -0.895
        16           c15bf         1   UNL       c15        16     0.44776       12.0110 ; qtot   -0.448
        17           n16bf         1   UNL       n16        17    -0.32560       14.0070 ; qtot   -0.773
        18           o17bf         1   UNL       o17        18    -0.52514       15.9990 ; qtot   -1.298
        19           c18bf         1   UNL       c18        19    -0.30294       12.0110 ; qtot   -1.601
        20           c19bf         1   UNL       c19        20    -0.13420       12.0110 ; qtot   -1.735
        21           c20bf         1   UNL       c20        21     0.17875       12.0110 ; qtot   -1.557
        22           n21bf         1   UNL       n21        22    -0.24622       14.0070 ; qtot   -1.803
        23           c22bf         1   UNL       c22        23     0.37063       12.0110 ; qtot   -1.432
        24           n23bf         1   UNL       n23        24    -1.02809       14.0070 ; qtot   -2.460
        25           n24bf         1   UNL       n24        25    -0.26323       14.0070 ; qtot   -2.724
        26           c25bf         1   UNL       c25        26     0.21953       12.0110 ; qtot   -2.504
        27           c26bf         1   UNL       c26        27    -0.15202       12.0110 ; qtot   -2.656
        28           h27bf         1   UNL       h27        28     0.13504        1.0080 ; qtot   -2.521
        29           h28bf         1   UNL       h28        29     0.02725        1.0080 ; qtot   -2.494
        30           h29bf         1   UNL       h29        30     0.02484        1.0080 ; qtot   -2.469
        31           h30bf         1   UNL       h30        31     0.12757        1.0080 ; qtot   -2.341
        32           h31bf         1   UNL       h31        32     0.12632        1.0080 ; qtot   -2.215
        33           h32bf         1   UNL       h32        33     0.13713        1.0080 ; qtot   -2.078
        34           h33bf         1   UNL       h33        34     0.12109        1.0080 ; qtot   -1.957
        35           h34bf         1   UNL       h34        35     0.06435        1.0080 ; qtot   -1.892
        36           h35bf         1   UNL       h35        36     0.06919        1.0080 ; qtot   -1.823
        37           h36bf         1   UNL       h36        37     0.06919        1.0080 ; qtot   -1.754
        38           h37bf         1   UNL       h37        38     0.46640        1.0080 ; qtot   -1.288
        39           h38bf         1   UNL       h38        39     0.07330        1.0080 ; qtot   -1.214
        40           h39bf         1   UNL       h39        40     0.07330        1.0080 ; qtot   -1.141
        41           h40bf         1   UNL       h40        41     0.47640        1.0080 ; qtot   -0.665
        42           h41bf         1   UNL       h41        42     0.47640        1.0080 ; qtot   -0.188
        43           h42bf         1   UNL       h42        43     0.06275        1.0080 ; qtot   -0.126
        44           h43bf         1   UNL       h43        44     0.06275        1.0080 ; qtot   -0.063
        45           h44bf         1   UNL       h44        45     0.06277        1.0080 ; qtot   -0.000

[ bonds ]
;       ai        aj funct               r               k
         1         2     1        0.135787   287154.682227
         2         3     1        0.138786   317662.717627
         2        11     1        0.138938   307826.563672
         3         4     1        0.140426   293195.536523
         3        28     1        0.108504   321846.181348
         4         5     1        0.148846   215028.053564
         4        13     1        0.141302   254249.171924
         5         6     1        0.140583   274143.703760
         5        10     1        0.140212   290055.876611
         6         7     1        0.133771   323661.282471
         6        29     1        0.108793   315640.459473
         7         8     1        0.134079   312417.574121
         8         9     1        0.139872   293580.993652
         8        30     1        0.108796   316313.668750
         9        10     1        0.139473   320668.512012
         9        31     1        0.108569   322424.750098
        10        32     1        0.108581   320509.926563
        11        12     1        0.139614   320024.031982
        11        33     1        0.108499   324735.449902
        12        13     1        0.140288   289233.939209
        12        34     1        0.108539   318997.286963
        13        14     1        0.151958   182306.397681
        14        15     1        0.154299   169464.155664
        14        20     1        0.153829   177121.892041
        14        35     1        0.109426   301161.199365
        15        16     1        0.151177   187543.918359
        15        36     1        0.109391   299627.031982
        15        37     1        0.109391   299627.031982
        16        17     1        0.129060   506319.058008
        16        19     1        0.147650   202629.378369
        17        18     1        0.141271   206818.945459
        18        38     1        0.097167   471574.697070
        19        21     1        0.141260   256477.412402
        19        26     1        0.142245   240602.728027
        20        21     1        0.150785   197447.847803
        20        39     1        0.109478   297916.939453
        20        40     1        0.109478   297916.939453
        21        22     1        0.133669   327033.355615
        22        23     1        0.134567   269085.313135
        23        24     1        0.136754   331182.854980
        23        25     1        0.134651   266011.283594
        24        41     1        0.101080   429504.045898
        24        42     1        0.101080   429504.045898
        25        26     1        0.133707   330704.008643
        26        27     1        0.150638   202499.534937
        27        43     1        0.109243   307403.183936
        27        44     1        0.109243   307403.183936
        27        45     1        0.109243   307403.183936

[ angles ]
;       ai        aj        ak funct           theta             cth
         1         2         3     1      118.870033      564.549898
         1         2        11     1      119.264648      559.054951
         2         3         4     1      119.787491      690.921625
         2         3        28     1      119.337036      446.988187
         2        11        12     1      117.907700      679.559654
         2        11        33     1      120.196167      433.208970
         3         2        11     1      121.828323      599.583620
         3         4         5     1      117.185440      533.039340
         3         4        13     1      119.929260      689.954981
         4         3        28     1      120.633606      409.236838
         4         5         6     1      121.045372      512.808395
         4         5        10     1      121.626060      480.305018
         4        13        12     1      117.992920      703.156262
         4        13        14     1      122.460342      456.841107
         5         4        13     1      122.879639      393.666831
         5         6         7     1      124.295265      738.792149
         5         6        29     1      119.807396      384.456521
         5        10         9     1      119.222580      769.014616
         5        10        32     1      120.031265      396.589585
         6         5        10     1      117.100624      748.723723
         6         7         8     1      117.497452      725.304470
         7         6        29     1      116.042404      337.206868
         7         8         9     1      123.149353      698.436302
         7         8        30     1      116.197464      351.729279
         8         9        10     1      118.679703      782.994651
         8         9        31     1      120.286804      450.813998
         9         8        30     1      120.680199      412.468432
         9        10        32     1      120.671181      418.551531
        10         9        31     1      120.981613      431.037358
        11        12        13     1      122.467552      690.373982
        11        12        34     1      118.372520      432.504305
        12        11        33     1      121.914223      426.380219
        12        13        14     1      119.323257      544.236086
        13        12        34     1      119.305542      404.502992
        13        14        15     1      112.742416      587.763003
        13        14        20     1      112.949692      589.649366
        13        14        35     1      107.430130      496.163467
        14        15        16     1      111.227646      654.928921
        14        15        36     1      109.974037      473.402848
        14        15        37     1      109.974037      473.402848
        14        20        21     1      112.053543      610.461216
        14        20        39     1      110.438126      467.752315
        14        20        40     1      110.438126      467.752315
        15        14        20     1      109.029373      566.652305
        15        14        35     1      106.915565      477.222848
        15        16        17     1      120.780602      440.233399
        15        16        19     1      117.722778      488.619485
        16        15        36     1      109.073753      498.526256
        16        15        37     1      109.073753      498.526256
        16        17        18     1      112.810524      812.580159
        16        19        21     1      118.612839      598.884797
        16        19        26     1      125.020386      525.449966
        17        16        19     1      120.662064      402.309578
        17        18        38     1      102.078308      633.371834
        19        21        20     1      120.758751      475.315577
        19        21        22     1      122.698654      721.367541
        19        26        25     1      121.228188      743.307813
        19        26        27     1      123.606651      456.126802
        20        14        35     1      107.124107      477.539189
        20        21        22     1      116.127136      462.293184
        21        19        26     1      115.999184      815.529503
        21        20        39     1      108.435226      513.281789
        21        20        40     1      108.435226      513.281789
        21        22        23     1      116.060204      870.243526
        22        23        24     1      116.984520      584.312174
        22        23        25     1      126.302536      666.537963
        23        24        41     1      116.789536      467.143798
        23        24        42     1      116.789536      467.143798
        23        25        26     1      117.405640      936.974100
        24        23        25     1      116.582581      610.643998
        25        26        27     1      115.223915      514.212425
        26        27        43     1      110.244286      508.144297
        26        27        44     1      110.244286      508.144297
        26        27        45     1      110.244286      508.144297
        36        15        37     1      107.161148      354.713833
        39        20        40     1      106.649391      364.142006
        41        24        42     1      117.566406      320.237682
        43        27        44     1      108.657333      349.777190
        43        27        45     1      108.657333      349.777190
        44        27        45     1      108.657333      349.777190

[ dihedrals ] ; propers for gromacs 4.5 or higher, use funct 9
;       ai        aj        ak        al funct           phase               k        pn
         1         2         3         4     9        0.000000        0.308803         1
         1         2         3         4     9      180.000000       22.129092         2
         1         2         3         4     9        0.000000        0.565558         3
         1         2         3         4     9      180.000000       -0.740677         4
         1         2         3        28     9        0.000000        0.325879         1
         1         2         3        28     9      180.000000       16.045403         2
         1         2         3        28     9        0.000000        0.308967         3
         1         2         3        28     9      180.000000        0.082618         4
         1         2        11        12     9        0.000000        0.534661         1
         1         2        11        12     9      180.000000       23.449361         2
         1         2        11        12     9        0.000000        0.493778         3
         1         2        11        12     9      180.000000       -0.719339         4
         1         2        11        33     9        0.000000        0.276158         1
         1         2        11        33     9      180.000000       15.566175         2
         1         2        11        33     9        0.000000        0.304074         3
         1         2        11        33     9      180.000000        0.147220         4
         2         3         4         5     9        0.000000        0.395144         1
         2         3         4         5     9      180.000000       17.931123         2
         2         3         4         5     9        0.000000       -0.006903         3
         2         3         4         5     9      180.000000       -0.429571         4
         2         3         4        13     9        0.000000       -0.207529         1
         2         3         4        13     9      180.000000       19.163436         2
         2         3         4        13     9        0.000000       -1.594223         3
         2         3         4        13     9      180.000000       -0.415619         4
         2        11        12        13     9        0.000000       -0.131302         1
         2        11        12        13     9      180.000000       18.981867         2
         2        11        12        13     9        0.000000       -1.692616         3
         2        11        12        13     9      180.000000       -0.478627         4
         2        11        12        34     9        0.000000        0.136603         1
         2        11        12        34     9      180.000000       15.056797         2
         2        11        12        34     9        0.000000       -0.574663         3
         2        11        12        34     9      180.000000        0.086380         4
         3         2        11        12     9        0.000000       -0.078362         1
         3         2        11        12     9      180.000000       17.052461         2
         3         2        11        12     9        0.000000       -1.218091         3
         3         2        11        12     9      180.000000       -0.307197         4
         3         2        11        33     9        0.000000        0.076310         1
         3         2        11        33     9      180.000000       12.560327         2
         3         2        11        33     9        0.000000       -0.548042         3
         3         2        11        33     9      180.000000        0.112359         4
         3         4         5         6     9        0.000000       -0.406337         1
         3         4         5         6     9      180.000000        3.420107         2
         3         4         5         6     9        0.000000        0.059025         3
         3         4         5         6     9      180.000000        0.214099         4
         3         4         5        10     9        0.000000       -0.079147         1
         3         4         5        10     9      180.000000        3.846898         2
         3         4         5        10     9        0.000000        0.031361         3
         3         4         5        10     9      180.000000        0.272035         4
         3         4        13        12     9        0.000000       -0.135977         1
         3         4        13        12     9      180.000000       18.053874         2
         3         4        13        12     9        0.000000       -1.371304         3
         3         4        13        12     9      180.000000       -0.478540         4
         3         4        13        14     9        0.000000        0.057057         1
         3         4        13        14     9      180.000000       13.570154         2
         3         4        13        14     9        0.000000        0.035534         3
         3         4        13        14     9      180.000000       -0.462310         4
         4         3         2        11     9        0.000000       -0.108502         1
         4         3         2        11     9      180.000000       17.499436         2
         4         3         2        11     9        0.000000       -1.177275         3
         4         3         2        11     9      180.000000       -0.362539         4
         4         5         6         7     9        0.000000       -0.023080         1
         4         5         6         7     9      180.000000       15.312631         2
         4         5         6         7     9        0.000000       -0.008006         3
         4         5         6         7     9      180.000000       -0.505724         4
         4         5         6        29     9        0.000000        0.080800         1
         4         5         6        29     9      180.000000       12.732944         2
         4         5         6        29     9        0.000000       -0.097428         3
         4         5         6        29     9      180.000000        0.182873         4
         4         5        10         9     9        0.000000        0.326533         1
         4         5        10         9     9      180.000000       16.507009         2
         4         5        10         9     9        0.000000       -0.019948         3
         4         5        10         9     9      180.000000       -0.335101         4
         4         5        10        32     9        0.000000        0.015405         1
         4         5        10        32     9      180.000000       12.956387         2
         4         5        10        32     9        0.000000       -0.133065         3
         4         5        10        32     9      180.000000        0.206340         4
         4        13        12        11     9        0.000000        0.012764         1
         4        13        12        11     9      180.000000       19.723391         2
         4        13        12        11     9        0.000000       -1.410317         3
         4        13        12        11     9      180.000000       -0.491988         4
         4        13        12        34     9        0.000000        0.038523         1
         4        13        12        34     9      180.000000       14.863281         2
         4        13        12        34     9        0.000000       -0.481984         3
         4        13        12        34     9      180.000000        0.050855         4
         4        13        14        15     9        0.000000        1.052452         1
         4        13        14        15     9      180.000000       -0.457258         2
         4        13        14        15     9        0.000000        0.559875         3
         4        13        14        15     9      180.000000        0.110867         4
         4        13        14        20     9        0.000000        0.595600         1
         4        13        14        20     9      180.000000       -0.157636         2
         4        13        14        20     9        0.000000        0.544464         3
         4        13        14        20     9      180.000000        0.077666         4
         4        13        14        35     9        0.000000       -0.766808         1
         4        13        14        35     9      180.000000        0.191394         2
         4        13        14        35     9        0.000000        0.250557         3
         4        13        14        35     9      180.000000        0.019618         4
         5         4         3        28     9        0.000000        0.001444         1
         5         4         3        28     9      180.000000       13.727220         2
         5         4         3        28     9        0.000000       -0.192369         3
         5         4         3        28     9      180.000000        0.230286         4
         5         4        13        12     9        0.000000        0.147107         1
         5         4        13        12     9      180.000000       15.566762         2
         5         4        13        12     9        0.000000       -0.122751         3
         5         4        13        12     9      180.000000       -0.537040         4
         5         4        13        14     9        0.000000       -0.064690         1
         5         4        13        14     9      180.000000       14.907934         2
         5         4        13        14     9        0.000000        0.256768         3
         5         4        13        14     9      180.000000       -0.464907         4
         5         6         7         8     9        0.000000        0.150704         1
         5         6         7         8     9      180.000000       23.622022         2
         5         6         7         8     9        0.000000       -0.665043         3
         5         6         7         8     9      180.000000       -0.205567         4
         5        10         9         8     9        0.000000       -0.003370         1
         5        10         9         8     9      180.000000       18.574660         2
         5        10         9         8     9        0.000000       -1.616525         3
         5        10         9         8     9      180.000000       -0.447352         4
         5        10         9        31     9        0.000000       -0.105818         1
         5        10         9        31     9      180.000000       14.894005         2
         5        10         9        31     9        0.000000       -0.577284         3
         5        10         9        31     9      180.000000        0.022763         4
         6         5         4        13     9        0.000000        0.097497         1
         6         5         4        13     9      180.000000        2.910480         2
         6         5         4        13     9        0.000000        0.042057         3
         6         5         4        13     9      180.000000        0.109151         4
         6         5        10         9     9        0.000000       -0.167076         1
         6         5        10         9     9      180.000000       18.084379         2
         6         5        10         9     9        0.000000       -1.579085         3
         6         5        10         9     9      180.000000       -0.460685         4
         6         5        10        32     9        0.000000        0.009642         1
         6         5        10        32     9      180.000000       13.665540         2
         6         5        10        32     9        0.000000       -0.608733         3
         6         5        10        32     9      180.000000        0.069125         4
         6         7         8         9     9        0.000000        0.298945         1
         6         7         8         9     9      180.000000       22.294673         2
         6         7         8         9     9        0.000000       -0.786306         3
         6         7         8         9     9      180.000000       -0.188441         4
         6         7         8        30     9        0.000000        1.174633         1
         6         7         8        30     9      180.000000       20.228158         2
         6         7         8        30     9        0.000000        0.180199         3
         6         7         8        30     9      180.000000       -0.381469         4
         7         6         5        10     9        0.000000       -0.029125         1
         7         6         5        10     9      180.000000       17.449006         2
         7         6         5        10     9        0.000000       -0.578162         3
         7         6         5        10     9      180.000000       -0.439107         4
         7         8         9        10     9        0.000000       -0.106409         1
         7         8         9        10     9      180.000000       18.177821         2
         7         8         9        10     9        0.000000       -0.894445         3
         7         8         9        10     9      180.000000       -0.468386         4
         7         8         9        31     9        0.000000       -0.048068         1
         7         8         9        31     9      180.000000       13.610834         2
         7         8         9        31     9        0.000000       -0.353285         3
         7         8         9        31     9      180.000000       -0.011482         4
         8         7         6        29     9        0.000000        0.886783         1
         8         7         6        29     9      180.000000       21.246149         2
         8         7         6        29     9        0.000000        0.214289         3
         8         7         6        29     9      180.000000       -0.254800         4
         8         9        10        32     9        0.000000        0.078875         1
         8         9        10        32     9      180.000000       14.289765         2
         8         9        10        32     9        0.000000       -0.642108         3
         8         9        10        32     9      180.000000        0.122470         4
        10         5         4        13     9        0.000000        0.133133         1
        10         5         4        13     9      180.000000        3.483878         2
        10         5         4        13     9        0.000000        0.072043         3
        10         5         4        13     9      180.000000        0.150146         4
        10         5         6        29     9        0.000000       -0.123240         1
        10         5         6        29     9      180.000000       13.310165         2
        10         5         6        29     9        0.000000       -0.323437         3
        10         5         6        29     9      180.000000        0.122142         4
        10         9         8        30     9        0.000000        0.127045         1
        10         9         8        30     9      180.000000       13.676841         2
        10         9         8        30     9        0.000000       -0.497626         3
        10         9         8        30     9      180.000000        0.117306         4
        11         2         3        28     9        0.000000        0.098497         1
        11         2         3        28     9      180.000000       12.835189         2
        11         2         3        28     9        0.000000       -0.617842         3
        11         2         3        28     9      180.000000        0.180023         4
        11        12        13        14     9        0.000000        0.158017         1
        11        12        13        14     9      180.000000       16.678152         2
        11        12        13        14     9        0.000000       -0.039590         3
        11        12        13        14     9      180.000000       -0.392788         4
        12        13        14        15     9        0.000000       -0.769243         1
        12        13        14        15     9      180.000000        0.456526         2
        12        13        14        15     9        0.000000       -0.278805         3
        12        13        14        15     9      180.000000        0.187940         4
        12        13        14        20     9        0.000000       -0.539304         1
        12        13        14        20     9      180.000000        0.591324         2
        12        13        14        20     9        0.000000       -0.267047         3
        12        13        14        20     9      180.000000        0.187859         4
        12        13        14        35     9        0.000000        0.803361         1
        12        13        14        35     9      180.000000        0.117990         2
        12        13        14        35     9        0.000000       -0.243323         3
        12        13        14        35     9      180.000000       -0.082479         4
        13         4         3        28     9        0.000000        0.066182         1
        13         4         3        28     9      180.000000       14.672600         2
        13         4         3        28     9        0.000000       -0.455329         3
        13         4         3        28     9      180.000000        0.022553         4
        13        12        11        33     9        0.000000        0.075130         1
        13        12        11        33     9      180.000000       13.943568         2
        13        12        11        33     9        0.000000       -0.639830         3
        13        12        11        33     9      180.000000        0.061518         4
        13        14        15        16     9        0.000000       -1.326919         1
        13        14        15        16     9      180.000000       -0.282036         2
        13        14        15        16     9        0.000000        0.254298         3
        13        14        15        16     9      180.000000        0.021908         4
        13        14        15        36     9        0.000000        0.042212         1
        13        14        15        36     9      180.000000        0.013486         2
        13        14        15        36     9        0.000000        0.460393         3
        13        14        15        36     9      180.000000       -0.058470         4
        13        14        15        37     9        0.000000        0.042212         1
        13        14        15        37     9      180.000000        0.013486         2
        13        14        15        37     9        0.000000        0.460393         3
        13        14        15        37     9      180.000000       -0.058470         4
        13        14        20        21     9        0.000000       -1.500525         1
        13        14        20        21     9      180.000000       -0.038895         2
        13        14        20        21     9        0.000000        0.333207         3
        13        14        20        21     9      180.000000        0.010131         4
        13        14        20        39     9        0.000000        0.060659         1
        13        14        20        39     9      180.000000       -0.018548         2
        13        14        20        39     9        0.000000        0.492743         3
        13        14        20        39     9      180.000000       -0.042068         4
        13        14        20        40     9        0.000000        0.060659         1
        13        14        20        40     9      180.000000       -0.018548         2
        13        14        20        40     9        0.000000        0.492743         3
        13        14        20        40     9      180.000000       -0.042068         4
        14        13        12        34     9        0.000000        0.019748         1
        14        13        12        34     9      180.000000       13.248243         2
        14        13        12        34     9        0.000000       -0.326546         3
        14        13        12        34     9      180.000000        0.180341         4
        14        15        16        17     9        0.000000        0.509026         1
        14        15        16        17     9      180.000000       -0.987330         2
        14        15        16        17     9        0.000000       -0.487897         3
        14        15        16        17     9      180.000000        0.211307         4
        14        15        16        19     9        0.000000       -0.371254         1
        14        15        16        19     9      180.000000       -0.412905         2
        14        15        16        19     9        0.000000        0.032705         3
        14        15        16        19     9      180.000000        0.160869         4
        14        20        21        19     9        0.000000        1.213571         1
        14        20        21        19     9      180.000000       -0.749710         2
        14        20        21        19     9        0.000000       -0.236537         3
        14        20        21        19     9      180.000000        0.360548         4
        14        20        21        22     9        0.000000       -0.318114         1
        14        20        21        22     9      180.000000       -0.467500         2
        14        20        21        22     9        0.000000        0.258116         3
        14        20        21        22     9      180.000000        0.268366         4
        15        14        20        21     9        0.000000        1.890197         1
        15        14        20        21     9      180.000000       -1.932319         2
        15        14        20        21     9        0.000000        0.067296         3
        15        14        20        21     9      180.000000        0.186608         4
        15        14        20        39     9        0.000000       -0.001244         1
        15        14        20        39     9      180.000000        0.040611         2
        15        14        20        39     9        0.000000        0.234590         3
        15        14        20        39     9      180.000000        0.043342         4
        15        14        20        40     9        0.000000       -0.001244         1
        15        14        20        40     9      180.000000        0.040611         2
        15        14        20        40     9        0.000000        0.234590         3
        15        14        20        40     9      180.000000        0.043342         4
        15        16        17        18     9        0.000000        4.225547         1
        15        16        17        18     9      180.000000       51.189295         2
        15        16        17        18     9        0.000000        1.990612         3
        15        16        17        18     9      180.000000       -3.202666         4
        15        16        19        21     9        0.000000       -0.217385         1
        15        16        19        21     9      180.000000        3.061032         2
        15        16        19        21     9        0.000000       -0.811748         3
        15        16        19        21     9      180.000000        0.133120         4
        15        16        19        26     9        0.000000       -1.310389         1
        15        16        19        26     9      180.000000        2.614690         2
        15        16        19        26     9        0.000000       -0.170646         3
        15        16        19        26     9      180.000000        0.033001         4
        16        15        14        20     9        0.000000       -0.248677         1
        16        15        14        20     9      180.000000       -0.478484         2
        16        15        14        20     9        0.000000        0.027428         3
        16        15        14        20     9      180.000000       -0.122464         4
        16        15        14        35     9        0.000000       -0.368427         1
        16        15        14        35     9      180.000000       -0.005057         2
        16        15        14        35     9        0.000000        0.138286         3
        16        15        14        35     9      180.000000        0.122313         4
        16        17        18        38     9        0.000000        2.198069         1
        16        17        18        38     9      180.000000       12.283681         2
        16        17        18        38     9        0.000000       -0.372773         3
        16        17        18        38     9      180.000000        0.273089         4
        16        19        21        20     9        0.000000       -0.022853         1
        16        19        21        20     9      180.000000       13.036931         2
        16        19        21        20     9        0.000000        0.201050         3
        16        19        21        20     9      180.000000       -0.592324         4
        16        19        21        22     9        0.000000       -0.014305         1
        16        19        21        22     9      180.000000       13.171290         2
        16        19        21        22     9        0.000000        0.095227         3
        16        19        21        22     9      180.000000       -0.457752         4
        16        19        26        25     9        0.000000        0.205978         1
        16        19        26        25     9      180.000000       12.740901         2
        16        19        26        25     9        0.000000        0.144999         3
        16        19        26        25     9      180.000000       -0.611686         4
        16        19        26        27     9        0.000000       -0.082682         1
        16        19        26        27     9      180.000000       12.643957         2
        16        19        26        27     9        0.000000        0.009628         3
        16        19        26        27     9      180.000000       -0.543150         4
        17        16        15        36     9        0.000000       -0.022972         1
        17        16        15        36     9      180.000000       -0.159370         2
        17        16        15        36     9        0.000000       -0.593155         3
        17        16        15        36     9      180.000000        0.021380         4
        17        16        15        37     9        0.000000       -0.022972         1
        17        16        15        37     9      180.000000       -0.159370         2
        17        16        15        37     9        0.000000       -0.593155         3
        17        16        15        37     9      180.000000        0.021380         4
        17        16        19        21     9        0.000000        3.293583         1
        17        16        19        21     9      180.000000        3.739881         2
        17        16        19        21     9        0.000000        0.376543         3
        17        16        19        21     9      180.000000       -0.168725         4
        17        16        19        26     9        0.000000       -0.009804         1
        17        16        19        26     9      180.000000        3.455469         2
        17        16        19        26     9        0.000000        0.063352         3
        17        16        19        26     9      180.000000       -0.130541         4
        18        17        16        19     9        0.000000       -2.699043         1
        18        17        16        19     9      180.000000       38.687819         2
        18        17        16        19     9        0.000000        4.601281         3
        18        17        16        19     9      180.000000       -1.294552         4
        19        16        15        36     9        0.000000        0.077282         1
        19        16        15        36     9      180.000000       -0.084628         2
        19        16        15        36     9        0.000000       -0.075808         3
        19        16        15        36     9      180.000000        0.143049         4
        19        16        15        37     9        0.000000        0.077282         1
        19        16        15        37     9      180.000000       -0.084628         2
        19        16        15        37     9        0.000000       -0.075808         3
        19        16        15        37     9      180.000000        0.143049         4
        19        21        20        39     9        0.000000       -0.043907         1
        19        21        20        39     9      180.000000       -0.003905         2
        19        21        20        39     9        0.000000       -0.224690         3
        19        21        20        39     9      180.000000        0.041805         4
        19        21        20        40     9        0.000000       -0.043907         1
        19        21        20        40     9      180.000000       -0.003905         2
        19        21        20        40     9        0.000000       -0.224690         3
        19        21        20        40     9      180.000000        0.041805         4
        19        21        22        23     9        0.000000       -0.820047         1
        19        21        22        23     9      180.000000       19.251178         2
        19        21        22        23     9        0.000000       -0.800118         3
        19        21        22        23     9      180.000000       -0.237508         4
        19        26        25        23     9        0.000000       -0.419784         1
        19        26        25        23     9      180.000000       19.701046         2
        19        26        25        23     9        0.000000       -0.673837         3
        19        26        25        23     9      180.000000       -0.382273         4
        19        26        27        43     9        0.000000       -0.053022         1
        19        26        27        43     9      180.000000        0.024168         2
        19        26        27        43     9        0.000000       -0.072947         3
        19        26        27        43     9      180.000000        0.026040         4
        19        26        27        44     9        0.000000       -0.053022         1
        19        26        27        44     9      180.000000        0.024168         2
        19        26        27        44     9        0.000000       -0.072947         3
        19        26        27        44     9      180.000000        0.026040         4
        19        26        27        45     9        0.000000       -0.053022         1
        19        26        27        45     9      180.000000        0.024168         2
        19        26        27        45     9        0.000000       -0.072947         3
        19        26        27        45     9      180.000000        0.026040         4
        20        14        15        36     9        0.000000       -0.033746         1
        20        14        15        36     9      180.000000        0.039372         2
        20        14        15        36     9        0.000000        0.214278         3
        20        14        15        36     9      180.000000        0.046356         4
        20        14        15        37     9        0.000000       -0.033746         1
        20        14        15        37     9      180.000000        0.039372         2
        20        14        15        37     9        0.000000        0.214278         3
        20        14        15        37     9      180.000000        0.046356         4
        20        21        19        26     9        0.000000        0.056874         1
        20        21        19        26     9      180.000000       12.089376         2
        20        21        19        26     9        0.000000       -0.052085         3
        20        21        19        26     9      180.000000       -0.430799         4
        20        21        22        23     9        0.000000        0.355451         1
        20        21        22        23     9      180.000000       21.192553         2
        20        21        22        23     9        0.000000        0.608534         3
        20        21        22        23     9      180.000000       -0.962953         4
        21        19        26        25     9        0.000000        0.056891         1
        21        19        26        25     9      180.000000       12.472255         2
        21        19        26        25     9        0.000000        0.070846         3
        21        19        26        25     9      180.000000       -0.560172         4
        21        19        26        27     9        0.000000        0.336974         1
        21        19        26        27     9      180.000000       12.345535         2
        21        19        26        27     9        0.000000        0.133026         3
        21        19        26        27     9      180.000000       -0.613308         4
        21        20        14        35     9        0.000000       -0.337130         1
        21        20        14        35     9      180.000000       -0.012394         2
        21        20        14        35     9        0.000000        0.217271         3
        21        20        14        35     9      180.000000        0.125867         4
        21        22        23        24     9        0.000000        1.328924         1
        21        22        23        24     9      180.000000       19.298655         2
        21        22        23        24     9        0.000000        0.513296         3
        21        22        23        24     9      180.000000       -1.382907         4
        21        22        23        25     9        0.000000        0.332521         1
        21        22        23        25     9      180.000000       10.966068         2
        21        22        23        25     9        0.000000        0.873333         3
        21        22        23        25     9      180.000000       -0.600360         4
        22        21        19        26     9        0.000000        0.241143         1
        22        21        19        26     9      180.000000       12.977944         2
        22        21        19        26     9        0.000000       -0.132314         3
        22        21        19        26     9      180.000000       -0.391115         4
        22        21        20        39     9        0.000000        0.124915         1
        22        21        20        39     9      180.000000        0.056356         2
        22        21        20        39     9        0.000000        0.033774         3
        22        21        20        39     9      180.000000        0.007734         4
        22        21        20        40     9        0.000000        0.124915         1
        22        21        20        40     9      180.000000        0.056356         2
        22        21        20        40     9        0.000000        0.033774         3
        22        21        20        40     9      180.000000        0.007734         4
        22        23        24        41     9        0.000000        2.150164         1
        22        23        24        41     9      180.000000        8.456023         2
        22        23        24        41     9        0.000000       -0.226335         3
        22        23        24        41     9      180.000000       -0.706929         4
        22        23        24        42     9        0.000000        2.150164         1
        22        23        24        42     9      180.000000        8.456023         2
        22        23        24        42     9        0.000000       -0.226335         3
        22        23        24        42     9      180.000000       -0.706929         4
        22        23        25        26     9        0.000000        0.451493         1
        22        23        25        26     9      180.000000       10.466505         2
        22        23        25        26     9        0.000000        0.528119         3
        22        23        25        26     9      180.000000       -0.424154         4
        23        25        26        27     9        0.000000        0.005731         1
        23        25        26        27     9      180.000000       19.763845         2
        23        25        26        27     9        0.000000        0.655866         3
        23        25        26        27     9      180.000000       -0.556165         4
        24        23        25        26     9        0.000000        1.168168         1
        24        23        25        26     9      180.000000       18.736900         2
        24        23        25        26     9        0.000000        0.275942         3
        24        23        25        26     9      180.000000       -1.220428         4
        25        23        24        41     9        0.000000        2.115854         1
        25        23        24        41     9      180.000000        8.542262         2
        25        23        24        41     9        0.000000       -0.196071         3
        25        23        24        41     9      180.000000       -0.809972         4
        25        23        24        42     9        0.000000        2.115854         1
        25        23        24        42     9      180.000000        8.542262         2
        25        23        24        42     9        0.000000       -0.196071         3
        25        23        24        42     9      180.000000       -0.809972         4
        25        26        27        43     9        0.000000       -0.044806         1
        25        26        27        43     9      180.000000       -0.015070         2
        25        26        27        43     9        0.000000        0.146304         3
        25        26        27        43     9      180.000000       -0.008751         4
        25        26        27        44     9        0.000000       -0.044806         1
        25        26        27        44     9      180.000000       -0.015070         2
        25        26        27        44     9        0.000000        0.146304         3
        25        26        27        44     9      180.000000       -0.008751         4
        25        26        27        45     9        0.000000       -0.044806         1
        25        26        27        45     9      180.000000       -0.015070         2
        25        26        27        45     9        0.000000        0.146304         3
        25        26        27        45     9      180.000000       -0.008751         4
        30         8         9        31     9        0.000000       -0.013624         1
        30         8         9        31     9      180.000000       11.247322         2
        30         8         9        31     9        0.000000       -0.654121         3
        30         8         9        31     9      180.000000        0.292997         4
        31         9        10        32     9        0.000000       -0.287662         1
        31         9        10        32     9      180.000000       12.249904         2
        31         9        10        32     9        0.000000       -0.649921         3
        31         9        10        32     9      180.000000        0.288333         4
        33        11        12        34     9        0.000000       -0.276364         1
        33        11        12        34     9      180.000000       11.387958         2
        33        11        12        34     9        0.000000       -0.745577         3
        33        11        12        34     9      180.000000        0.276239         4
        35        14        15        36     9        0.000000        0.033122         1
        35        14        15        36     9      180.000000        0.047137         2
        35        14        15        36     9        0.000000        0.413673         3
        35        14        15        36     9      180.000000       -0.054014         4
        35        14        15        37     9        0.000000        0.033122         1
        35        14        15        37     9      180.000000        0.047137         2
        35        14        15        37     9        0.000000        0.413673         3
        35        14        15        37     9      180.000000       -0.054014         4
        35        14        20        39     9        0.000000        0.047214         1
        35        14        20        39     9      180.000000        0.018087         2
        35        14        20        39     9        0.000000        0.437927         3
        35        14        20        39     9      180.000000       -0.041640         4
        35        14        20        40     9        0.000000        0.047214         1
        35        14        20        40     9      180.000000        0.018087         2
        35        14        20        40     9        0.000000        0.437927         3
        35        14        20        40     9      180.000000       -0.041640         4

[ dihedrals ] ; impropers
;       ai        aj        ak        al funct           phase               k        pn
         6         5         7        29     4      180.000000        8.128719         2
         6         7        29         5     4      180.000000        8.128719         2
         6        29         5         7     4      180.000000        8.128719         2
         8         7         9        30     4      180.000000        5.419038         2
         8         9        30         7     4      180.000000        5.419038         2
         8        30         7         9     4      180.000000        5.419038         2
         9         8        10        31     4      180.000000        0.282321         2
         9        10        31         8     4      180.000000        0.282321         2
         9        31         8        10     4      180.000000        0.282321         2
        10         5         9        32     4      180.000000        3.285189         2
        10         9        32         5     4      180.000000        3.285189         2
        10        32         5         9     4      180.000000        3.285189         2
        16        15        17        19     4      180.000000        1.982062         2
        16        17        19        15     4      180.000000        1.982062         2
        16        19        15        17     4      180.000000        1.982062         2
        21        19        20        22     4      180.000000       11.663190         2
        21        20        22        19     4      180.000000       11.663190         2
        21        22        19        20     4      180.000000       11.663190         2
        23        22        24        25     4      180.000000        3.794662         2
        23        24        25        22     4      180.000000        3.794662         2
        23        25        22        24     4      180.000000        3.794662         2
        26        19        25        27     4      180.000000       14.252838         2
        26        25        27        19     4      180.000000       14.252838         2
        26        27        19        25     4      180.000000       14.252838         2

[ pairs ]
;       ai        aj funct
         1         4     1
         1        12     1
         1        28     1
         1        33     1
         2         5     1
         2        13     1
         2        34     1
         3         6     1
         3        10     1
         3        12     1
         3        14     1
         3        33     1
         4         7     1
         4         9     1
         4        11     1
         4        15     1
         4        20     1
         4        29     1
         4        32     1
         4        34     1
         4        35     1
         5         8     1
         5        12     1
         5        14     1
         5        28     1
         5        31     1
         6         9     1
         6        13     1
         6        30     1
         6        32     1
         7        10     1
         7        31     1
         8        29     1
         8        32     1
        10        13     1
        10        29     1
        10        30     1
        11        14     1
        11        28     1
        12        15     1
        12        20     1
        12        35     1
        13        16     1
        13        21     1
        13        28     1
        13        33     1
        13        36     1
        13        37     1
        13        39     1
        13        40     1
        14        17     1
        14        19     1
        14        22     1
        14        34     1
        15        18     1
        15        21     1
        15        26     1
        15        39     1
        15        40     1
        16        20     1
        16        22     1
        16        25     1
        16        27     1
        16        35     1
        16        38     1
        17        21     1
        17        26     1
        17        36     1
        17        37     1
        18        19     1
        19        23     1
        19        36     1
        19        37     1
        19        39     1
        19        40     1
        19        43     1
        19        44     1
        19        45     1
        20        23     1
        20        26     1
        20        36     1
        20        37     1
        21        24     1
        21        25     1
        21        27     1
        21        35     1
        22        26     1
        22        39     1
        22        40     1
        22        41     1
        22        42     1
        23        27     1
        24        26     1
        25        41     1
        25        42     1
        25        43     1
        25        44     1
        25        45     1
        30        31     1
        31        32     1
        33        34     1
        35        36     1
        35        37     1
        35        39     1
        35        40     1
