; ITP file created by ByteFF-ML, 2025-12-06 06:38:42.847095

[ atomtypes ]
;name           bonded.type        at.num        mass        charge   ptype           sigma         epsilon
 c0bf                                   6      0.0000       0.00000       A     3.31436e-01     4.10546e-01
 c1bf                                   6      0.0000       0.00000       A     3.31520e-01     4.12831e-01
 c2bf                                   6      0.0000       0.00000       A     3.31440e-01     4.12677e-01
 c3bf                                   6      0.0000       0.00000       A     3.31383e-01     4.12764e-01
 o4bf                                   8      0.0000       0.00000       A     3.16072e-01     3.06757e-01
 c5bf                                   6      0.0000       0.00000       A     3.39640e-01     4.47145e-01
 c6bf                                   6      0.0000       0.00000       A     3.39985e-01     4.52984e-01
 n7bf                                   7      0.0000       0.00000       A     3.26999e-01     6.37995e-01
 c8bf                                   6      0.0000       0.00000       A     3.31390e-01     4.13625e-01
 n9bf                                   7      0.0000       0.00000       A     3.36329e-01     4.75823e-01
 c10bf                                  6      0.0000       0.00000       A     3.39746e-01     4.51190e-01
 c11bf                                  6      0.0000       0.00000       A     3.40170e-01     4.45634e-01
 c12bf                                  6      0.0000       0.00000       A     3.40006e-01     4.51525e-01
 f13bf                                  9      0.0000       0.00000       A     3.03319e-01     3.49137e-01
 f14bf                                  9      0.0000       0.00000       A     3.03319e-01     3.49137e-01
 f15bf                                  9      0.0000       0.00000       A     3.03319e-01     3.49137e-01
 c16bf                                  6      0.0000       0.00000       A     3.31925e-01     4.16263e-01
 c17bf                                  6      0.0000       0.00000       A     3.31415e-01     4.12742e-01
 h18bf                                  1      0.0000       0.00000       A     2.62460e-01     6.72999e-02
 h19bf                                  1      0.0000       0.00000       A     2.62436e-01     6.74164e-02
 h20bf                                  1      0.0000       0.00000       A     2.42406e-01     8.61287e-02
 h21bf                                  1      0.0000       0.00000       A     2.42406e-01     8.61287e-02
 h22bf                                  1      0.0000       0.00000       A     1.10640e-01     4.03710e-02
 h23bf                                  1      0.0000       0.00000       A     1.10640e-01     4.03710e-02
 h24bf                                  1      0.0000       0.00000       A     2.60273e-01     8.76306e-02
 h25bf                                  1      0.0000       0.00000       A     2.60273e-01     8.76306e-02
 h26bf                                  1      0.0000       0.00000       A     2.60041e-01     8.71502e-02
 h27bf                                  1      0.0000       0.00000       A     2.62638e-01     6.79942e-02
 c28bf                                  6      0.0000       0.00000       A     3.31387e-01     4.12589e-01
 c29bf                                  6      0.0000       0.00000       A     3.31617e-01     4.14333e-01
 c30bf                                  6      0.0000       0.00000       A     3.31448e-01     4.13637e-01
 c31bf                                  6      0.0000       0.00000       A     3.31358e-01     4.10946e-01
 c32bf                                  6      0.0000       0.00000       A     3.31555e-01     4.13285e-01
 c33bf                                  6      0.0000       0.00000       A     3.31548e-01     4.14929e-01
 h34bf                                  1      0.0000       0.00000       A     2.62486e-01     6.73557e-02
 h35bf                                  1      0.0000       0.00000       A     2.62604e-01     6.74483e-02
 h36bf                                  1      0.0000       0.00000       A     2.62345e-01     6.74962e-02
 c37bf                                  6      0.0000       0.00000       A     3.39876e-01     4.48400e-01
 f38bf                                  9      0.0000       0.00000       A     3.03451e-01     3.47961e-01
 f39bf                                  9      0.0000       0.00000       A     3.03451e-01     3.47961e-01
 f40bf                                  9      0.0000       0.00000       A     3.03451e-01     3.47961e-01
 c41bf                                  6      0.0000       0.00000       A     3.48225e-01     6.70499e-01
 n42bf                                  7      0.0000       0.00000       A     3.27424e-01     4.58546e-01
 h43bf                                  1      0.0000       0.00000       A     1.10258e-01     4.11004e-02

[ moleculetype ]
;name             nrexcl
 spiro16               3

[ atoms ]
;       nr            type      resi   res      atom      cgnr      charge          mass ; qtot
         1            c0bf         1   UNL        c0         1    -0.07215       12.0110 ; qtot   -0.072
         2            c1bf         1   UNL        c1         2    -0.06062       12.0110 ; qtot   -0.133
         3            c2bf         1   UNL        c2         3    -0.12505       12.0110 ; qtot   -0.258
         4            c3bf         1   UNL        c3         4     0.13767       12.0110 ; qtot   -0.120
         5            o4bf         1   UNL        o4         5    -0.31888       15.9990 ; qtot   -0.439
         6            c5bf         1   UNL        c5         6     0.15683       12.0110 ; qtot   -0.282
         7            c6bf         1   UNL        c6         7     0.11908       12.0110 ; qtot   -0.163
         8            n7bf         1   UNL        n7         8    -0.40116       14.0070 ; qtot   -0.564
         9            c8bf         1   UNL        c8         9     0.46291       12.0110 ; qtot   -0.101
        10            n9bf         1   UNL        n9        10    -0.55175       14.0070 ; qtot   -0.653
        11           c10bf         1   UNL       c10        11    -0.14155       12.0110 ; qtot   -0.795
        12           c11bf         1   UNL       c11        12    -0.10032       12.0110 ; qtot   -0.895
        13           c12bf         1   UNL       c12        13     0.29071       12.0110 ; qtot   -0.604
        14           f13bf         1   UNL       f13        14    -0.09063       18.9980 ; qtot   -0.695
        15           f14bf         1   UNL       f14        15    -0.09063       18.9980 ; qtot   -0.786
        16           f15bf         1   UNL       f15        16    -0.09063       18.9980 ; qtot   -0.876
        17           c16bf         1   UNL       c16        17    -0.19463       12.0110 ; qtot   -1.071
        18           c17bf         1   UNL       c17        18    -0.02211       12.0110 ; qtot   -1.093
        19           h18bf         1   UNL       h18        19     0.11888        1.0080 ; qtot   -0.974
        20           h19bf         1   UNL       h19        20     0.13455        1.0080 ; qtot   -0.839
        21           h20bf         1   UNL       h20        21     0.08368        1.0080 ; qtot   -0.756
        22           h21bf         1   UNL       h21        22     0.08368        1.0080 ; qtot   -0.672
        23           h22bf         1   UNL       h22        23     0.38091        1.0080 ; qtot   -0.291
        24           h23bf         1   UNL       h23        24     0.38091        1.0080 ; qtot    0.090
        25           h24bf         1   UNL       h24        25     0.12457        1.0080 ; qtot    0.214
        26           h25bf         1   UNL       h25        26     0.12457        1.0080 ; qtot    0.339
        27           h26bf         1   UNL       h26        27     0.12007        1.0080 ; qtot    0.459
        28           h27bf         1   UNL       h27        28     0.13001        1.0080 ; qtot    0.589
        29           c28bf         1   UNL       c28        29    -0.01384       12.0110 ; qtot    0.575
        30           c29bf         1   UNL       c29        30    -0.18048       12.0110 ; qtot    0.395
        31           c30bf         1   UNL       c30        31    -0.03785       12.0110 ; qtot    0.357
        32           c31bf         1   UNL       c31        32    -0.01738       12.0110 ; qtot    0.339
        33           c32bf         1   UNL       c32        33    -0.06060       12.0110 ; qtot    0.279
        34           c33bf         1   UNL       c33        34    -0.00308       12.0110 ; qtot    0.276
        35           h34bf         1   UNL       h34        35     0.14631        1.0080 ; qtot    0.422
        36           h35bf         1   UNL       h35        36     0.13688        1.0080 ; qtot    0.559
        37           h36bf         1   UNL       h36        37     0.13254        1.0080 ; qtot    0.691
        38           c37bf         1   UNL       c37        38     0.34310       12.0110 ; qtot    1.035
        39           f38bf         1   UNL       f38        39    -0.10198       18.9980 ; qtot    0.933
        40           f39bf         1   UNL       f39        40    -0.10198       18.9980 ; qtot    0.831
        41           f40bf         1   UNL       f40        41    -0.10198       18.9980 ; qtot    0.729
        42           c41bf         1   UNL       c41        42     0.31282       12.0110 ; qtot    1.041
        43           n42bf         1   UNL       n42        43    -0.44522       14.0070 ; qtot    0.596
        44           h43bf         1   UNL       h43        44     0.40382        1.0080 ; qtot    1.000

[ bonds ]
;       ai        aj funct               r               k
         1         2     1        0.140656   283687.891943
         1        18     1        0.140877   275210.107910
         1        32     1        0.148105   214329.026270
         2         3     1        0.140032   313287.061621
         2        19     1        0.108570   319051.221338
         3         4     1        0.139065   312504.476904
         3        20     1        0.108503   323387.882178
         4         5     1        0.137195   250718.615479
         4        17     1        0.139566   280554.616309
         5         6     1        0.144797   164521.575830
         6         7     1        0.155335   137830.278491
         6        21     1        0.109148   308396.117822
         6        22     1        0.109148   308396.117822
         7         8     1        0.148921   137360.970264
         7        12     1        0.156141   126774.880786
         7        17     1        0.150891   178529.050610
         8         9     1        0.131825   430665.065039
         8        44     1        0.101599   416991.041064
         9        10     1        0.132856   428213.528076
         9        11     1        0.150760   181078.088257
        10        23     1        0.101449   421168.478027
        10        24     1        0.101449   421168.478027
        11        12     1        0.154423   163973.089795
        11        25     1        0.109305   307647.191016
        11        26     1        0.109305   307647.165479
        12        13     1        0.152121   187779.140674
        12        27     1        0.109143   311751.540771
        13        14     1        0.135341   234865.356738
        13        15     1        0.135341   234865.356738
        13        16     1        0.135341   234865.356738
        17        18     1        0.139009   321129.865430
        18        28     1        0.108545   319949.667920
        29        30     1        0.139484   306704.616309
        29        34     1        0.140486   293211.573828
        29        35     1        0.108450   326582.497949
        30        31     1        0.139667   305107.244580
        30        38     1        0.150828   193028.101978
        31        32     1        0.140636   281854.046582
        31        36     1        0.108469   322962.970215
        32        33     1        0.140321   286975.616016
        33        34     1        0.140357   297027.252100
        33        37     1        0.108460   324059.457080
        34        42     1        0.143716   270142.243018
        38        39     1        0.135699   225061.328467
        38        40     1        0.135699   225061.354004
        38        41     1        0.135699   225061.354004
        42        43     1        0.116535  1105956.127539

[ angles ]
;       ai        aj        ak funct           theta             cth
         1         2         3     1      122.085487      658.566490
         1         2        19     1      119.311707      425.531429
         1        18        17     1      119.232468      686.514750
         1        18        28     1      119.936203      414.607739
         1        32        31     1      121.124657      442.306980
         1        32        33     1      120.870300      468.053749
         2         1        18     1      118.581093      612.388565
         2         1        32     1      120.841896      542.765531
         2         3         4     1      117.246986      797.820475
         2         3        20     1      121.660606      431.945649
         3         2        19     1      118.615761      424.149265
         3         4         5     1      124.760948      591.434154
         3         4        17     1      121.853539      567.706221
         4         3        20     1      120.999832      434.137595
         4         5         6     1      106.600662      579.963651
         4        17         7     1      107.909348      568.757520
         4        17        18     1      120.515823      692.105717
         5         4        17     1      113.244522      360.787100
         5         6         7     1      105.895126      407.535684
         5         6        21     1      108.385498      471.222298
         5         6        22     1      108.385498      471.222298
         6         7         8     1      107.934708      515.687608
         6         7        12     1      115.019226      503.961574
         6         7        17     1      100.622574      452.508544
         7         6        21     1      111.709167      417.924563
         7         6        22     1      111.709167      417.924563
         7         8         9     1      113.675858      531.971250
         7         8        44     1      122.070656      360.117996
         7        12        11     1      104.325180      472.244580
         7        12        13     1      115.291786      639.451389
         7        12        27     1      107.985512      455.858694
         7        17        18     1      131.264130      435.035958
         8         7        12     1      104.273819      492.808816
         8         7        17     1      111.458229      517.308034
         8         9        10     1      125.548691      668.686974
         8         9        11     1      111.147240      413.225671
         9         8        44     1      124.327965      423.488461
         9        10        23     1      121.412430      443.344648
         9        10        24     1      121.412430      443.344648
         9        11        12     1      103.513260      586.441458
         9        11        25     1      109.872314      535.789112
         9        11        26     1      109.872314      535.789112
        10         9        11     1      123.096191      487.385628
        11        12        13     1      112.706863      565.355083
        11        12        27     1      110.164261      448.542887
        12         7        17     1      116.178734      473.945256
        12        11        25     1      112.739357      437.475806
        12        11        26     1      112.739357      437.475806
        12        13        14     1      111.438194      556.852248
        12        13        15     1      111.438194      556.852248
        12        13        16     1      111.438194      556.852248
        13        12        27     1      105.463112      535.490775
        14        13        15     1      107.224831      708.874724
        14        13        16     1      107.224831      708.874724
        15        13        16     1      107.224831      708.874724
        17        18        28     1      120.876450      419.822481
        18         1        32     1      120.606873      450.584483
        21         6        22     1      109.992294      335.966019
        23        10        24     1      117.421799      314.703407
        25        11        26     1      107.516434      359.991523
        29        30        31     1      120.710800      693.161804
        29        30        38     1      119.611710      517.278858
        29        34        33     1      120.521957      709.940706
        29        34        42     1      119.746216      470.956584
        30        29        34     1      118.891647      642.079413
        30        29        35     1      120.828148      405.777518
        30        31        32     1      120.838585      707.966305
        30        31        36     1      119.407776      416.152671
        30        38        39     1      111.789024      592.114527
        30        38        40     1      111.789024      592.114527
        30        38        41     1      111.789024      592.114527
        31        30        38     1      119.638428      496.774729
        31        32        33     1      118.120956      678.692605
        32        31        36     1      119.713074      419.638709
        32        33        34     1      120.645119      674.622884
        32        33        37     1      120.322769      415.193912
        33        34        42     1      119.599998      466.613137
        34        29        35     1      120.170166      413.450142
        34        33        37     1      119.188560      420.393554
        34        42        43     1      179.614044      167.360000
        39        38        40     1      106.858780      700.758519
        39        38        41     1      106.858780      700.758519
        40        38        41     1      106.858780      700.758519

[ dihedrals ] ; propers for gromacs 4.5 or higher, use funct 9
;       ai        aj        ak        al funct           phase               k        pn
         1         2         3         4     9        0.000000       -0.010605         1
         1         2         3         4     9      180.000000       19.304199         2
         1         2         3         4     9        0.000000       -1.432066         3
         1         2         3         4     9      180.000000       -0.464522         4
         1         2         3        20     9        0.000000       -0.006576         1
         1         2         3        20     9      180.000000       13.933787         2
         1         2         3        20     9        0.000000       -0.533057         3
         1         2         3        20     9      180.000000        0.132178         4
         1        18        17         4     9        0.000000       -0.256466         1
         1        18        17         4     9      180.000000       20.632326         2
         1        18        17         4     9        0.000000       -2.418483         3
         1        18        17         4     9      180.000000       -0.427968         4
         1        18        17         7     9        0.000000        0.176861         1
         1        18        17         7     9      180.000000       13.373576         2
         1        18        17         7     9        0.000000       -0.215996         3
         1        18        17         7     9      180.000000       -0.421290         4
         1        32        31        30     9        0.000000        0.362932         1
         1        32        31        30     9      180.000000       17.218536         2
         1        32        31        30     9        0.000000       -0.081867         3
         1        32        31        30     9      180.000000       -0.537726         4
         1        32        31        36     9        0.000000       -0.070181         1
         1        32        31        36     9      180.000000       13.364364         2
         1        32        31        36     9        0.000000       -0.200276         3
         1        32        31        36     9      180.000000        0.140154         4
         1        32        33        34     9        0.000000        0.173774         1
         1        32        33        34     9      180.000000       16.714631         2
         1        32        33        34     9        0.000000       -0.121400         3
         1        32        33        34     9      180.000000       -0.373210         4
         1        32        33        37     9        0.000000       -0.107195         1
         1        32        33        37     9      180.000000       13.323624         2
         1        32        33        37     9        0.000000       -0.239494         3
         1        32        33        37     9      180.000000        0.227992         4
         2         1        18        17     9        0.000000       -0.123883         1
         2         1        18        17     9      180.000000       18.401808         2
         2         1        18        17     9        0.000000       -1.730793         3
         2         1        18        17     9      180.000000       -0.340742         4
         2         1        18        28     9        0.000000       -0.020013         1
         2         1        18        28     9      180.000000       13.600252         2
         2         1        18        28     9        0.000000       -0.647299         3
         2         1        18        28     9      180.000000        0.050588         4
         2         1        32        31     9        0.000000        0.002144         1
         2         1        32        31     9      180.000000        3.599664         2
         2         1        32        31     9        0.000000        0.123097         3
         2         1        32        31     9      180.000000       -0.014742         4
         2         1        32        33     9        0.000000        0.020693         1
         2         1        32        33     9      180.000000        3.594011         2
         2         1        32        33     9        0.000000        0.100734         3
         2         1        32        33     9      180.000000       -0.000451         4
         2         3         4         5     9        0.000000        0.568164         1
         2         3         4         5     9      180.000000       19.304211         2
         2         3         4         5     9        0.000000        0.381135         3
         2         3         4         5     9      180.000000       -0.556234         4
         2         3         4        17     9        0.000000       -0.259380         1
         2         3         4        17     9      180.000000       17.687421         2
         2         3         4        17     9        0.000000       -1.834002         3
         2         3         4        17     9      180.000000       -0.385454         4
         3         2         1        18     9        0.000000       -0.197471         1
         3         2         1        18     9      180.000000       18.598266         2
         3         2         1        18     9        0.000000       -1.592595         3
         3         2         1        18     9      180.000000       -0.348249         4
         3         2         1        32     9        0.000000        0.177450         1
         3         2         1        32     9      180.000000       16.400246         2
         3         2         1        32     9        0.000000       -0.351922         3
         3         2         1        32     9      180.000000       -0.281175         4
         3         4         5         6     9        0.000000        1.226306         1
         3         4         5         6     9      180.000000        6.426788         2
         3         4         5         6     9        0.000000        1.121218         3
         3         4         5         6     9      180.000000        0.044005         4
         3         4        17         7     9        0.000000       -0.014316         1
         3         4        17         7     9      180.000000       13.207643         2
         3         4        17         7     9        0.000000       -2.111817         3
         3         4        17         7     9      180.000000       -0.163257         4
         3         4        17        18     9        0.000000       -0.254058         1
         3         4        17        18     9      180.000000       12.015356         2
         3         4        17        18     9        0.000000       -1.438464         3
         3         4        17        18     9      180.000000       -0.044232         4
         4         3         2        19     9        0.000000        0.131844         1
         4         3         2        19     9      180.000000       15.170012         2
         4         3         2        19     9        0.000000       -0.525275         3
         4         3         2        19     9      180.000000        0.117892         4
         4         5         6         7     9        0.000000       -0.082357         1
         4         5         6         7     9      180.000000       13.104434         2
         4         5         6         7     9        0.000000       -0.467725         3
         4         5         6         7     9      180.000000       -4.647146         4
         4         5         6        21     9        0.000000       -0.101677         1
         4         5         6        21     9      180.000000       -0.193856         2
         4         5         6        21     9        0.000000       -0.090305         3
         4         5         6        21     9      180.000000        0.262780         4
         4         5         6        22     9        0.000000       -0.101677         1
         4         5         6        22     9      180.000000       -0.193856         2
         4         5         6        22     9        0.000000       -0.090305         3
         4         5         6        22     9      180.000000        0.262780         4
         4        17         7         6     9        0.000000       -3.096349         1
         4        17         7         6     9      180.000000        7.950977         2
         4        17         7         6     9        0.000000       -2.084071         3
         4        17         7         6     9      180.000000        1.926190         4
         4        17         7         8     9        0.000000        1.584606         1
         4        17         7         8     9      180.000000        6.313244         2
         4        17         7         8     9        0.000000       -1.458797         3
         4        17         7         8     9      180.000000        0.836105         4
         4        17         7        12     9        0.000000       -2.237315         1
         4        17         7        12     9      180.000000        5.870553         2
         4        17         7        12     9        0.000000       -1.608600         3
         4        17         7        12     9      180.000000        1.771592         4
         4        17        18        28     9        0.000000        0.218358         1
         4        17        18        28     9      180.000000       15.173643         2
         4        17        18        28     9        0.000000       -0.647717         3
         4        17        18        28     9      180.000000       -0.110215         4
         5         4         3        20     9        0.000000        0.155512         1
         5         4         3        20     9      180.000000       12.771996         2
         5         4         3        20     9        0.000000       -0.042331         3
         5         4         3        20     9      180.000000        0.201327         4
         5         4        17         7     9        0.000000       -0.004860         1
         5         4        17         7     9      180.000000       22.652537         2
         5         4        17         7     9        0.000000       -5.804710         3
         5         4        17         7     9      180.000000       -0.509280         4
         5         4        17        18     9        0.000000       -0.023614         1
         5         4        17        18     9      180.000000       12.994157         2
         5         4        17        18     9        0.000000       -2.296842         3
         5         4        17        18     9      180.000000        0.167111         4
         5         6         7         8     9        0.000000        6.257194         1
         5         6         7         8     9      180.000000       -1.945073         2
         5         6         7         8     9        0.000000        0.493056         3
         5         6         7         8     9      180.000000        0.596272         4
         5         6         7        12     9        0.000000        0.301213         1
         5         6         7        12     9      180.000000        0.373359         2
         5         6         7        12     9        0.000000        0.272459         3
         5         6         7        12     9      180.000000        0.135853         4
         5         6         7        17     9        0.000000       -1.456873         1
         5         6         7        17     9      180.000000        0.350260         2
         5         6         7        17     9        0.000000        0.654045         3
         5         6         7        17     9      180.000000        0.149977         4
         6         5         4        17     9        0.000000       -1.795161         1
         6         5         4        17     9      180.000000       14.918733         2
         6         5         4        17     9        0.000000       -1.728189         3
         6         5         4        17     9      180.000000       -0.883815         4
         6         7         8         9     9        0.000000       -3.342868         1
         6         7         8         9     9      180.000000        2.316523         2
         6         7         8         9     9        0.000000       -0.644469         3
         6         7         8         9     9      180.000000        0.464383         4
         6         7         8        44     9        0.000000        0.172736         1
         6         7         8        44     9      180.000000       -0.047551         2
         6         7         8        44     9        0.000000        0.019844         3
         6         7         8        44     9      180.000000        0.085942         4
         6         7        12        11     9        0.000000       -0.970320         1
         6         7        12        11     9      180.000000        1.271671         2
         6         7        12        11     9        0.000000        0.047683         3
         6         7        12        11     9      180.000000        0.427870         4
         6         7        12        13     9        0.000000        0.733906         1
         6         7        12        13     9      180.000000        0.111258         2
         6         7        12        13     9        0.000000        0.192667         3
         6         7        12        13     9      180.000000        0.013030         4
         6         7        12        27     9        0.000000       -0.458484         1
         6         7        12        27     9      180.000000        0.178001         2
         6         7        12        27     9        0.000000        0.163414         3
         6         7        12        27     9      180.000000       -0.014005         4
         6         7        17        18     9        0.000000        0.877588         1
         6         7        17        18     9      180.000000        1.411185         2
         6         7        17        18     9        0.000000       -0.340629         3
         6         7        17        18     9      180.000000        0.866904         4
         7         8         9        10     9        0.000000        0.524279         1
         7         8         9        10     9      180.000000       20.910348         2
         7         8         9        10     9        0.000000       -0.584057         3
         7         8         9        10     9      180.000000       -1.922970         4
         7         8         9        11     9        0.000000       -0.699272         1
         7         8         9        11     9      180.000000       21.641371         2
         7         8         9        11     9        0.000000       -1.651736         3
         7         8         9        11     9      180.000000       -1.533196         4
         7        12        11         9     9        0.000000       -0.640197         1
         7        12        11         9     9      180.000000        6.904968         2
         7        12        11         9     9        0.000000       -0.367827         3
         7        12        11         9     9      180.000000       -2.112208         4
         7        12        11        25     9        0.000000        0.125550         1
         7        12        11        25     9      180.000000       -0.275217         2
         7        12        11        25     9        0.000000       -0.103402         3
         7        12        11        25     9      180.000000        0.160352         4
         7        12        11        26     9        0.000000        0.125550         1
         7        12        11        26     9      180.000000       -0.275217         2
         7        12        11        26     9        0.000000       -0.103402         3
         7        12        11        26     9      180.000000        0.160352         4
         7        12        13        14     9        0.000000       -0.090254         1
         7        12        13        14     9      180.000000       -0.065475         2
         7        12        13        14     9        0.000000        0.145783         3
         7        12        13        14     9      180.000000        0.047790         4
         7        12        13        15     9        0.000000       -0.090254         1
         7        12        13        15     9      180.000000       -0.065475         2
         7        12        13        15     9        0.000000        0.145783         3
         7        12        13        15     9      180.000000        0.047790         4
         7        12        13        16     9        0.000000       -0.090254         1
         7        12        13        16     9      180.000000       -0.065475         2
         7        12        13        16     9        0.000000        0.145783         3
         7        12        13        16     9      180.000000        0.047790         4
         7        17        18        28     9        0.000000       -0.453822         1
         7        17        18        28     9      180.000000        9.533501         2
         7        17        18        28     9        0.000000       -0.102669         3
         7        17        18        28     9      180.000000        0.048725         4
         8         7         6        21     9        0.000000       -0.428573         1
         8         7         6        21     9      180.000000        0.053458         2
         8         7         6        21     9        0.000000        0.471697         3
         8         7         6        21     9      180.000000       -0.066408         4
         8         7         6        22     9        0.000000       -0.428573         1
         8         7         6        22     9      180.000000        0.053458         2
         8         7         6        22     9        0.000000        0.471697         3
         8         7         6        22     9      180.000000       -0.066408         4
         8         7        12        11     9        0.000000        0.836364         1
         8         7        12        11     9      180.000000        0.817321         2
         8         7        12        11     9        0.000000        0.330545         3
         8         7        12        11     9      180.000000        0.353179         4
         8         7        12        13     9        0.000000       -0.662926         1
         8         7        12        13     9      180.000000       -1.006182         2
         8         7        12        13     9        0.000000        0.262500         3
         8         7        12        13     9      180.000000        0.131585         4
         8         7        12        27     9        0.000000       -0.752253         1
         8         7        12        27     9      180.000000       -0.074670         2
         8         7        12        27     9        0.000000        0.408015         3
         8         7        12        27     9      180.000000       -0.064236         4
         8         7        17        18     9        0.000000        0.809642         1
         8         7        17        18     9      180.000000        1.558244         2
         8         7        17        18     9        0.000000       -0.136840         3
         8         7        17        18     9      180.000000        0.574587         4
         8         9        10        23     9        0.000000       -1.403027         1
         8         9        10        23     9      180.000000        8.630070         2
         8         9        10        23     9        0.000000       -0.077801         3
         8         9        10        23     9      180.000000       -0.551749         4
         8         9        10        24     9        0.000000       -1.403027         1
         8         9        10        24     9      180.000000        8.630070         2
         8         9        10        24     9        0.000000       -0.077801         3
         8         9        10        24     9      180.000000       -0.551749         4
         8         9        11        12     9        0.000000       -1.219214         1
         8         9        11        12     9      180.000000       10.167472         2
         8         9        11        12     9        0.000000       -0.834742         3
         8         9        11        12     9      180.000000       -1.146198         4
         8         9        11        25     9        0.000000       -0.135687         1
         8         9        11        25     9      180.000000       -0.134721         2
         8         9        11        25     9        0.000000       -0.336311         3
         8         9        11        25     9      180.000000        0.343367         4
         8         9        11        26     9        0.000000       -0.135687         1
         8         9        11        26     9      180.000000       -0.134721         2
         8         9        11        26     9        0.000000       -0.336311         3
         8         9        11        26     9      180.000000        0.343367         4
         9         8         7        12     9        0.000000       -3.160222         1
         9         8         7        12     9      180.000000        1.840790         2
         9         8         7        12     9        0.000000       -0.343905         3
         9         8         7        12     9      180.000000        0.320122         4
         9         8         7        17     9        0.000000       -1.578400         1
         9         8         7        17     9      180.000000        1.251926         2
         9         8         7        17     9        0.000000       -0.118952         3
         9         8         7        17     9      180.000000        0.455005         4
         9        11        12        13     9        0.000000       -0.056905         1
         9        11        12        13     9      180.000000       -0.227156         2
         9        11        12        13     9        0.000000        0.034180         3
         9        11        12        13     9      180.000000        0.004801         4
         9        11        12        27     9        0.000000       -0.288415         1
         9        11        12        27     9      180.000000       -0.122488         2
         9        11        12        27     9        0.000000        0.206652         3
         9        11        12        27     9      180.000000        0.081871         4
        10         9         8        44     9        0.000000       -0.378416         1
        10         9         8        44     9      180.000000       11.224522         2
        10         9         8        44     9        0.000000        0.172182         3
        10         9         8        44     9      180.000000       -0.508055         4
        10         9        11        12     9        0.000000        0.987736         1
        10         9        11        12     9      180.000000        3.071488         2
        10         9        11        12     9        0.000000        0.172900         3
        10         9        11        12     9      180.000000        0.270934         4
        10         9        11        25     9        0.000000       -0.119965         1
        10         9        11        25     9      180.000000        0.002389         2
        10         9        11        25     9        0.000000       -0.048111         3
        10         9        11        25     9      180.000000        0.097269         4
        10         9        11        26     9        0.000000       -0.119965         1
        10         9        11        26     9      180.000000        0.002389         2
        10         9        11        26     9        0.000000       -0.048111         3
        10         9        11        26     9      180.000000        0.097269         4
        11         9         8        44     9        0.000000       -0.895995         1
        11         9         8        44     9      180.000000       10.677343         2
        11         9         8        44     9        0.000000        0.247212         3
        11         9         8        44     9      180.000000       -0.356967         4
        11         9        10        23     9        0.000000       -0.122109         1
        11         9        10        23     9      180.000000        8.099740         2
        11         9        10        23     9        0.000000        0.752081         3
        11         9        10        23     9      180.000000       -0.593511         4
        11         9        10        24     9        0.000000       -0.122109         1
        11         9        10        24     9      180.000000        8.099740         2
        11         9        10        24     9        0.000000        0.752081         3
        11         9        10        24     9      180.000000       -0.593511         4
        11        12         7        17     9        0.000000        0.934491         1
        11        12         7        17     9      180.000000        0.685717         2
        11        12         7        17     9        0.000000        0.369860         3
        11        12         7        17     9      180.000000        0.333193         4
        11        12        13        14     9        0.000000       -0.170871         1
        11        12        13        14     9      180.000000        0.160059         2
        11        12        13        14     9        0.000000        0.432499         3
        11        12        13        14     9      180.000000       -0.008100         4
        11        12        13        15     9        0.000000       -0.170871         1
        11        12        13        15     9      180.000000        0.160059         2
        11        12        13        15     9        0.000000        0.432499         3
        11        12        13        15     9      180.000000       -0.008100         4
        11        12        13        16     9        0.000000       -0.170871         1
        11        12        13        16     9      180.000000        0.160059         2
        11        12        13        16     9        0.000000        0.432499         3
        11        12        13        16     9      180.000000       -0.008100         4
        12         7         6        21     9        0.000000       -0.136953         1
        12         7         6        21     9      180.000000       -0.064280         2
        12         7         6        21     9        0.000000        0.251797         3
        12         7         6        21     9      180.000000        0.006043         4
        12         7         6        22     9        0.000000       -0.136953         1
        12         7         6        22     9      180.000000       -0.064280         2
        12         7         6        22     9        0.000000        0.251797         3
        12         7         6        22     9      180.000000        0.006043         4
        12         7         8        44     9        0.000000        0.014956         1
        12         7         8        44     9      180.000000        0.279809         2
        12         7         8        44     9        0.000000       -0.000502         3
        12         7         8        44     9      180.000000       -0.006464         4
        12         7        17        18     9        0.000000        0.647260         1
        12         7        17        18     9      180.000000        1.472558         2
        12         7        17        18     9        0.000000       -0.254723         3
        12         7        17        18     9      180.000000        0.775195         4
        13        12         7        17     9        0.000000        3.229886         1
        13        12         7        17     9      180.000000       -0.577232         2
        13        12         7        17     9        0.000000        0.477314         3
        13        12         7        17     9      180.000000        0.274479         4
        13        12        11        25     9        0.000000        0.000103         1
        13        12        11        25     9      180.000000       -0.063732         2
        13        12        11        25     9        0.000000        0.183956         3
        13        12        11        25     9      180.000000        0.000258         4
        13        12        11        26     9        0.000000        0.000103         1
        13        12        11        26     9      180.000000       -0.063732         2
        13        12        11        26     9        0.000000        0.183956         3
        13        12        11        26     9      180.000000        0.000258         4
        14        13        12        27     9        0.000000        0.065432         1
        14        13        12        27     9      180.000000        0.006006         2
        14        13        12        27     9        0.000000        0.465363         3
        14        13        12        27     9      180.000000       -0.035008         4
        15        13        12        27     9        0.000000        0.065432         1
        15        13        12        27     9      180.000000        0.006006         2
        15        13        12        27     9        0.000000        0.465363         3
        15        13        12        27     9      180.000000       -0.035008         4
        16        13        12        27     9        0.000000        0.065432         1
        16        13        12        27     9      180.000000        0.006006         2
        16        13        12        27     9        0.000000        0.465363         3
        16        13        12        27     9      180.000000       -0.035008         4
        17         4         3        20     9        0.000000        0.082417         1
        17         4         3        20     9      180.000000       12.746122         2
        17         4         3        20     9        0.000000       -0.727458         3
        17         4         3        20     9      180.000000       -0.073265         4
        17         7         6        21     9        0.000000       -0.159519         1
        17         7         6        21     9      180.000000        0.072757         2
        17         7         6        21     9        0.000000        0.600081         3
        17         7         6        21     9      180.000000       -0.052846         4
        17         7         6        22     9        0.000000       -0.159519         1
        17         7         6        22     9      180.000000        0.072757         2
        17         7         6        22     9        0.000000        0.600081         3
        17         7         6        22     9      180.000000       -0.052846         4
        17         7         8        44     9        0.000000        1.206814         1
        17         7         8        44     9      180.000000        0.773821         2
        17         7         8        44     9        0.000000       -0.019330         3
        17         7         8        44     9      180.000000        0.097022         4
        17         7        12        27     9        0.000000        0.189860         1
        17         7        12        27     9      180.000000        0.162409         2
        17         7        12        27     9        0.000000        0.457336         3
        17         7        12        27     9      180.000000       -0.039192         4
        17        18         1        32     9        0.000000        0.032007         1
        17        18         1        32     9      180.000000       17.174907         2
        17        18         1        32     9        0.000000       -0.133153         3
        17        18         1        32     9      180.000000       -0.570187         4
        18         1         2        19     9        0.000000       -0.110027         1
        18         1         2        19     9      180.000000       14.466188         2
        18         1         2        19     9        0.000000       -0.779273         3
        18         1         2        19     9      180.000000        0.061378         4
        18         1        32        31     9        0.000000       -0.051614         1
        18         1        32        31     9      180.000000        3.702160         2
        18         1        32        31     9        0.000000        0.130918         3
        18         1        32        31     9      180.000000       -0.031229         4
        18         1        32        33     9        0.000000       -0.015862         1
        18         1        32        33     9      180.000000        3.685866         2
        18         1        32        33     9        0.000000        0.109548         3
        18         1        32        33     9      180.000000       -0.012416         4
        19         2         1        32     9        0.000000       -0.126251         1
        19         2         1        32     9      180.000000       13.326843         2
        19         2         1        32     9        0.000000       -0.310318         3
        19         2         1        32     9      180.000000        0.162700         4
        19         2         3        20     9        0.000000       -0.151625         1
        19         2         3        20     9      180.000000       12.042206         2
        19         2         3        20     9        0.000000       -0.750822         3
        19         2         3        20     9      180.000000        0.314283         4
        25        11        12        27     9        0.000000        0.095245         1
        25        11        12        27     9      180.000000        0.098351         2
        25        11        12        27     9        0.000000        0.419638         3
        25        11        12        27     9      180.000000       -0.067379         4
        26        11        12        27     9        0.000000        0.095245         1
        26        11        12        27     9      180.000000        0.098351         2
        26        11        12        27     9        0.000000        0.419638         3
        26        11        12        27     9      180.000000       -0.067379         4
        28        18         1        32     9        0.000000       -0.121786         1
        28        18         1        32     9      180.000000       12.791289         2
        28        18         1        32     9        0.000000       -0.222137         3
        28        18         1        32     9      180.000000        0.101045         4
        29        30        31        32     9        0.000000       -0.056728         1
        29        30        31        32     9      180.000000       18.621299         2
        29        30        31        32     9        0.000000       -1.429021         3
        29        30        31        32     9      180.000000       -0.413579         4
        29        30        31        36     9        0.000000        0.027776         1
        29        30        31        36     9      180.000000       14.186002         2
        29        30        31        36     9        0.000000       -0.611741         3
        29        30        31        36     9      180.000000        0.026153         4
        29        30        38        39     9        0.000000       -0.002868         1
        29        30        38        39     9      180.000000        0.097757         2
        29        30        38        39     9        0.000000        0.059908         3
        29        30        38        39     9      180.000000        0.007087         4
        29        30        38        40     9        0.000000       -0.002868         1
        29        30        38        40     9      180.000000        0.097757         2
        29        30        38        40     9        0.000000        0.059908         3
        29        30        38        40     9      180.000000        0.007087         4
        29        30        38        41     9        0.000000       -0.002868         1
        29        30        38        41     9      180.000000        0.097757         2
        29        30        38        41     9        0.000000        0.059908         3
        29        30        38        41     9      180.000000        0.007087         4
        29        34        33        32     9        0.000000       -0.114850         1
        29        34        33        32     9      180.000000       18.400377         2
        29        34        33        32     9        0.000000       -1.519950         3
        29        34        33        32     9      180.000000       -0.390043         4
        29        34        33        37     9        0.000000       -0.049384         1
        29        34        33        37     9      180.000000       14.335682         2
        29        34        33        37     9        0.000000       -0.706619         3
        29        34        33        37     9      180.000000        0.058535         4
        29        34        42        43     9        0.000000        0.000000         1
        29        34        42        43     9      180.000000        0.000000         2
        29        34        42        43     9        0.000000        0.000000         3
        29        34        42        43     9      180.000000        0.000000         4
        30        29        34        33     9        0.000000        0.032144         1
        30        29        34        33     9      180.000000       18.509664         2
        30        29        34        33     9        0.000000       -1.544708         3
        30        29        34        33     9      180.000000       -0.495744         4
        30        29        34        42     9        0.000000        0.017584         1
        30        29        34        42     9      180.000000       16.708896         2
        30        29        34        42     9        0.000000       -0.091432         3
        30        29        34        42     9      180.000000       -0.397080         4
        30        31        32        33     9        0.000000        0.027989         1
        30        31        32        33     9      180.000000       18.117376         2
        30        31        32        33     9        0.000000       -1.335675         3
        30        31        32        33     9      180.000000       -0.380685         4
        31        30        29        34     9        0.000000       -0.265800         1
        31        30        29        34     9      180.000000       18.812754         2
        31        30        29        34     9        0.000000       -1.342498         3
        31        30        29        34     9      180.000000       -0.470379         4
        31        30        29        35     9        0.000000       -0.047669         1
        31        30        29        35     9      180.000000       14.374129         2
        31        30        29        35     9        0.000000       -0.642832         3
        31        30        29        35     9      180.000000        0.001626         4
        31        30        38        39     9        0.000000       -0.063884         1
        31        30        38        39     9      180.000000        0.146011         2
        31        30        38        39     9        0.000000        0.104801         3
        31        30        38        39     9      180.000000        0.021291         4
        31        30        38        40     9        0.000000       -0.063884         1
        31        30        38        40     9      180.000000        0.146011         2
        31        30        38        40     9        0.000000        0.104801         3
        31        30        38        40     9      180.000000        0.021291         4
        31        30        38        41     9        0.000000       -0.063884         1
        31        30        38        41     9      180.000000        0.146011         2
        31        30        38        41     9        0.000000        0.104801         3
        31        30        38        41     9      180.000000        0.021291         4
        31        32        33        34     9        0.000000       -0.243770         1
        31        32        33        34     9      180.000000       18.440863         2
        31        32        33        34     9        0.000000       -1.312557         3
        31        32        33        34     9      180.000000       -0.375900         4
        31        32        33        37     9        0.000000       -0.141675         1
        31        32        33        37     9      180.000000       14.375499         2
        31        32        33        37     9        0.000000       -0.567736         3
        31        32        33        37     9      180.000000        0.021961         4
        32        31        30        38     9        0.000000        0.157201         1
        32        31        30        38     9      180.000000       15.321726         2
        32        31        30        38     9        0.000000        0.075518         3
        32        31        30        38     9      180.000000       -0.301910         4
        32        33        34        42     9        0.000000       -0.025853         1
        32        33        34        42     9      180.000000       16.367585         2
        32        33        34        42     9        0.000000       -0.024673         3
        32        33        34        42     9      180.000000       -0.295100         4
        33        32        31        36     9        0.000000       -0.142829         1
        33        32        31        36     9      180.000000       13.918767         2
        33        32        31        36     9        0.000000       -0.561060         3
        33        32        31        36     9      180.000000       -0.020948         4
        33        34        29        35     9        0.000000       -0.080612         1
        33        34        29        35     9      180.000000       14.059307         2
        33        34        29        35     9        0.000000       -0.665116         3
        33        34        29        35     9      180.000000        0.000617         4
        33        34        42        43     9        0.000000        0.000000         1
        33        34        42        43     9      180.000000        0.000000         2
        33        34        42        43     9        0.000000        0.000000         3
        33        34        42        43     9      180.000000        0.000000         4
        34        29        30        38     9        0.000000        0.143095         1
        34        29        30        38     9      180.000000       15.352420         2
        34        29        30        38     9        0.000000        0.169823         3
        34        29        30        38     9      180.000000       -0.348767         4
        35        29        30        38     9        0.000000       -0.019596         1
        35        29        30        38     9      180.000000       12.398583         2
        35        29        30        38     9        0.000000       -0.298863         3
        35        29        30        38     9      180.000000        0.167086         4
        35        29        34        42     9        0.000000        0.005128         1
        35        29        34        42     9      180.000000       12.693659         2
        35        29        34        42     9        0.000000       -0.307991         3
        35        29        34        42     9      180.000000        0.168228         4
        36        31        30        38     9        0.000000       -0.022425         1
        36        31        30        38     9      180.000000       12.348461         2
        36        31        30        38     9        0.000000       -0.296265         3
        36        31        30        38     9      180.000000        0.128603         4
        37        33        34        42     9        0.000000       -0.002112         1
        37        33        34        42     9      180.000000       12.970283         2
        37        33        34        42     9        0.000000       -0.265320         3
        37        33        34        42     9      180.000000        0.190498         4

[ dihedrals ] ; impropers
;       ai        aj        ak        al funct           phase               k        pn
         9         8        10        11     4      180.000000       16.040925         2
         9        10        11         8     4      180.000000       16.040925         2
         9        11         8        10     4      180.000000       16.040925         2

[ pairs ]
;       ai        aj funct
         1         4     1
         1         7     1
         1        20     1
         1        30     1
         1        34     1
         1        36     1
         1        37     1
         2         5     1
         2        17     1
         2        28     1
         2        31     1
         2        33     1
         3         6     1
         3         7     1
         3        18     1
         3        32     1
         4         8     1
         4        12     1
         4        19     1
         4        21     1
         4        22     1
         4        28     1
         5         8     1
         5        12     1
         5        18     1
         5        20     1
         6         9     1
         6        11     1
         6        13     1
         6        18     1
         6        27     1
         6        44     1
         7        10     1
         7        14     1
         7        15     1
         7        16     1
         7        25     1
         7        26     1
         7        28     1
         8        13     1
         8        18     1
         8        21     1
         8        22     1
         8        23     1
         8        24     1
         8        25     1
         8        26     1
         8        27     1
         9        13     1
         9        17     1
         9        27     1
        10        12     1
        10        25     1
        10        26     1
        10        44     1
        11        14     1
        11        15     1
        11        16     1
        11        17     1
        11        23     1
        11        24     1
        11        44     1
        12        18     1
        12        21     1
        12        22     1
        12        44     1
        13        17     1
        13        25     1
        13        26     1
        14        27     1
        15        27     1
        16        27     1
        17        20     1
        17        21     1
        17        22     1
        17        27     1
        17        32     1
        17        44     1
        18        19     1
        18        31     1
        18        33     1
        19        20     1
        19        32     1
        25        27     1
        26        27     1
        28        32     1
        29        32     1
        29        36     1
        29        37     1
        29        39     1
        29        40     1
        29        41     1
        29        43     1
        30        33     1
        30        42     1
        31        34     1
        31        35     1
        31        37     1
        31        39     1
        31        40     1
        31        41     1
        32        38     1
        32        42     1
        33        35     1
        33        36     1
        33        43     1
        34        38     1
        35        38     1
        35        42     1
        36        38     1
        37        42     1
