; ITP file created by ByteFF-ML, 2025-12-06 06:37:44.647644

[ atomtypes ]
;name           bonded.type        at.num        mass        charge   ptype           sigma         epsilon
 c0bf                                   6      0.0000       0.00000       A     3.31437e-01     4.10819e-01
 c1bf                                   6      0.0000       0.00000       A     3.31520e-01     4.12831e-01
 c2bf                                   6      0.0000       0.00000       A     3.31440e-01     4.12677e-01
 c3bf                                   6      0.0000       0.00000       A     3.31383e-01     4.12764e-01
 o4bf                                   8      0.0000       0.00000       A     3.16072e-01     3.06757e-01
 c5bf                                   6      0.0000       0.00000       A     3.39640e-01     4.47145e-01
 c6bf                                   6      0.0000       0.00000       A     3.39985e-01     4.52984e-01
 n7bf                                   7      0.0000       0.00000       A     3.26999e-01     6.37995e-01
 c8bf                                   6      0.0000       0.00000       A     3.31390e-01     4.13625e-01
 n9bf                                   7      0.0000       0.00000       A     3.36329e-01     4.75823e-01
 c10bf                                  6      0.0000       0.00000       A     3.39746e-01     4.51190e-01
 c11bf                                  6      0.0000       0.00000       A     3.40170e-01     4.45634e-01
 c12bf                                  6      0.0000       0.00000       A     3.40006e-01     4.51525e-01
 f13bf                                  9      0.0000       0.00000       A     3.03319e-01     3.49137e-01
 f14bf                                  9      0.0000       0.00000       A     3.03319e-01     3.49137e-01
 f15bf                                  9      0.0000       0.00000       A     3.03319e-01     3.49137e-01
 c16bf                                  6      0.0000       0.00000       A     3.31925e-01     4.16263e-01
 c17bf                                  6      0.0000       0.00000       A     3.31415e-01     4.12742e-01
 h18bf                                  1      0.0000       0.00000       A     2.62460e-01     6.72999e-02
 h19bf                                  1      0.0000       0.00000       A     2.62436e-01     6.74164e-02
 h20bf                                  1      0.0000       0.00000       A     2.42406e-01     8.61287e-02
 h21bf                                  1      0.0000       0.00000       A     2.42406e-01     8.61287e-02
 h22bf                                  1      0.0000       0.00000       A     1.10640e-01     4.03710e-02
 h23bf                                  1      0.0000       0.00000       A     1.10640e-01     4.03710e-02
 h24bf                                  1      0.0000       0.00000       A     2.60273e-01     8.76306e-02
 h25bf                                  1      0.0000       0.00000       A     2.60273e-01     8.76306e-02
 h26bf                                  1      0.0000       0.00000       A     2.60041e-01     8.71502e-02
 h27bf                                  1      0.0000       0.00000       A     2.62638e-01     6.79942e-02
 c28bf                                  6      0.0000       0.00000       A     3.31576e-01     4.11824e-01
 c29bf                                  6      0.0000       0.00000       A     3.31338e-01     4.13203e-01
 c30bf                                  6      0.0000       0.00000       A     3.31627e-01     4.12056e-01
 c31bf                                  6      0.0000       0.00000       A     3.31327e-01     4.12408e-01
 c32bf                                  6      0.0000       0.00000       A     3.31489e-01     4.12265e-01
 c33bf                                  6      0.0000       0.00000       A     3.31509e-01     4.13604e-01
 h34bf                                  1      0.0000       0.00000       A     2.62446e-01     6.69008e-02
 h35bf                                  1      0.0000       0.00000       A     2.62507e-01     6.73398e-02
 h36bf                                  1      0.0000       0.00000       A     2.62472e-01     6.74738e-02
 o37bf                                  8      0.0000       0.00000       A     3.15894e-01     3.03981e-01
 h38bf                                  1      0.0000       0.00000       A     2.62543e-01     6.73813e-02
 c39bf                                  6      0.0000       0.00000       A     3.39778e-01     4.49916e-01
 h40bf                                  1      0.0000       0.00000       A     2.42080e-01     8.75859e-02
 h41bf                                  1      0.0000       0.00000       A     2.42080e-01     8.75859e-02
 h42bf                                  1      0.0000       0.00000       A     2.42080e-01     8.75859e-02
 h43bf                                  1      0.0000       0.00000       A     1.10258e-01     4.11004e-02

[ moleculetype ]
;name             nrexcl
 spiro4                3

[ atoms ]
;       nr            type      resi   res      atom      cgnr      charge          mass ; qtot
         1            c0bf         1   UNL        c0         1    -0.06151       12.0110 ; qtot   -0.062
         2            c1bf         1   UNL        c1         2    -0.06241       12.0110 ; qtot   -0.124
         3            c2bf         1   UNL        c2         3    -0.12505       12.0110 ; qtot   -0.249
         4            c3bf         1   UNL        c3         4     0.13767       12.0110 ; qtot   -0.111
         5            o4bf         1   UNL        o4         5    -0.31888       15.9990 ; qtot   -0.430
         6            c5bf         1   UNL        c5         6     0.15683       12.0110 ; qtot   -0.273
         7            c6bf         1   UNL        c6         7     0.11908       12.0110 ; qtot   -0.154
         8            n7bf         1   UNL        n7         8    -0.40116       14.0070 ; qtot   -0.555
         9            c8bf         1   UNL        c8         9     0.46291       12.0110 ; qtot   -0.093
        10            n9bf         1   UNL        n9        10    -0.55175       14.0070 ; qtot   -0.644
        11           c10bf         1   UNL       c10        11    -0.14155       12.0110 ; qtot   -0.786
        12           c11bf         1   UNL       c11        12    -0.10032       12.0110 ; qtot   -0.886
        13           c12bf         1   UNL       c12        13     0.29071       12.0110 ; qtot   -0.595
        14           f13bf         1   UNL       f13        14    -0.09063       18.9980 ; qtot   -0.686
        15           f14bf         1   UNL       f14        15    -0.09063       18.9980 ; qtot   -0.777
        16           f15bf         1   UNL       f15        16    -0.09063       18.9980 ; qtot   -0.867
        17           c16bf         1   UNL       c16        17    -0.19463       12.0110 ; qtot   -1.062
        18           c17bf         1   UNL       c17        18    -0.02456       12.0110 ; qtot   -1.087
        19           h18bf         1   UNL       h18        19     0.11888        1.0080 ; qtot   -0.968
        20           h19bf         1   UNL       h19        20     0.13455        1.0080 ; qtot   -0.833
        21           h20bf         1   UNL       h20        21     0.08368        1.0080 ; qtot   -0.749
        22           h21bf         1   UNL       h21        22     0.08368        1.0080 ; qtot   -0.666
        23           h22bf         1   UNL       h22        23     0.38091        1.0080 ; qtot   -0.285
        24           h23bf         1   UNL       h23        24     0.38091        1.0080 ; qtot    0.096
        25           h24bf         1   UNL       h24        25     0.12457        1.0080 ; qtot    0.221
        26           h25bf         1   UNL       h25        26     0.12457        1.0080 ; qtot    0.345
        27           h26bf         1   UNL       h26        27     0.12007        1.0080 ; qtot    0.465
        28           h27bf         1   UNL       h27        28     0.13001        1.0080 ; qtot    0.595
        29           c28bf         1   UNL       c28        29    -0.16777       12.0110 ; qtot    0.428
        30           c29bf         1   UNL       c29        30     0.13223       12.0110 ; qtot    0.560
        31           c30bf         1   UNL       c30        31    -0.16067       12.0110 ; qtot    0.399
        32           c31bf         1   UNL       c31        32    -0.00268       12.0110 ; qtot    0.396
        33           c32bf         1   UNL       c32        33    -0.13114       12.0110 ; qtot    0.265
        34           c33bf         1   UNL       c33        34    -0.07547       12.0110 ; qtot    0.190
        35           h34bf         1   UNL       h34        35     0.12436        1.0080 ; qtot    0.314
        36           h35bf         1   UNL       h35        36     0.12357        1.0080 ; qtot    0.438
        37           h36bf         1   UNL       h36        37     0.11785        1.0080 ; qtot    0.556
        38           o37bf         1   UNL       o37        38    -0.34714       15.9990 ; qtot    0.208
        39           h38bf         1   UNL       h38        39     0.11612        1.0080 ; qtot    0.325
        40           c39bf         1   UNL       c39        40     0.14327       12.0110 ; qtot    0.468
        41           h40bf         1   UNL       h40        41     0.04277        1.0080 ; qtot    0.511
        42           h41bf         1   UNL       h41        42     0.04277        1.0080 ; qtot    0.553
        43           h42bf         1   UNL       h42        43     0.04277        1.0080 ; qtot    0.596
        44           h43bf         1   UNL       h43        44     0.40384        1.0080 ; qtot    1.000

[ bonds ]
;       ai        aj funct               r               k
         1         2     1        0.140691   282490.763330
         1        18     1        0.140919   273757.506055
         1        32     1        0.148261   212919.671509
         2         3     1        0.140032   313287.061621
         2        19     1        0.108570   319051.221338
         3         4     1        0.139065   312504.476904
         3        20     1        0.108503   323387.882178
         4         5     1        0.137195   250718.615479
         4        17     1        0.139566   280554.616309
         5         6     1        0.144797   164521.575830
         6         7     1        0.155335   137830.278491
         6        21     1        0.109148   308396.117822
         6        22     1        0.109148   308396.117822
         7         8     1        0.148921   137360.970264
         7        12     1        0.156141   126774.880786
         7        17     1        0.150891   178529.050610
         8         9     1        0.131825   430665.065039
         8        44     1        0.101599   416991.041064
         9        10     1        0.132856   428213.528076
         9        11     1        0.150760   181078.088257
        10        23     1        0.101449   421168.478027
        10        24     1        0.101449   421168.478027
        11        12     1        0.154423   163973.089795
        11        25     1        0.109305   307647.191016
        11        26     1        0.109305   307647.165479
        12        13     1        0.152121   187779.140674
        12        27     1        0.109143   311751.540771
        13        14     1        0.135341   234865.356738
        13        15     1        0.135341   234865.356738
        13        16     1        0.135341   234865.356738
        17        18     1        0.139009   321129.865430
        18        28     1        0.108545   319949.667920
        29        30     1        0.140354   286399.243457
        29        34     1        0.139739   314522.470361
        29        35     1        0.108414   323656.455957
        30        31     1        0.140201   288367.133105
        30        38     1        0.136853   268641.554785
        31        32     1        0.140395   288756.982617
        31        36     1        0.108391   322409.146924
        32        33     1        0.140624   284667.520996
        33        34     1        0.139637   315185.030664
        33        37     1        0.108553   319404.016504
        34        39     1        0.108652   318420.684570
        38        40     1        0.142493   208267.423071
        40        41     1        0.109438   297412.683691
        40        42     1        0.109438   297412.683691
        40        43     1        0.109438   297412.683691

[ angles ]
;       ai        aj        ak funct           theta             cth
         1         2         3     1      122.165634      662.774751
         1         2        19     1      119.215210      425.895812
         1        18        17     1      119.297607      691.612787
         1        18        28     1      119.844803      414.535916
         1        32        31     1      120.451881      441.120175
         1        32        33     1      120.890793      520.587701
         2         1        18     1      118.487343      612.618846
         2         1        32     1      120.930870      549.011780
         2         3         4     1      117.246986      797.820475
         2         3        20     1      121.660606      431.945649
         3         2        19     1      118.615761      424.149265
         3         4         5     1      124.760948      591.434154
         3         4        17     1      121.853539      567.706221
         4         3        20     1      120.999832      434.137595
         4         5         6     1      106.600662      579.963651
         4        17         7     1      107.909348      568.757520
         4        17        18     1      120.515823      692.105717
         5         4        17     1      113.244522      360.787100
         5         6         7     1      105.895126      407.535684
         5         6        21     1      108.385498      471.222298
         5         6        22     1      108.385498      471.222298
         6         7         8     1      107.934708      515.687608
         6         7        12     1      115.019226      503.961574
         6         7        17     1      100.622574      452.508544
         7         6        21     1      111.709167      417.924563
         7         6        22     1      111.709167      417.924563
         7         8         9     1      113.675858      531.971250
         7         8        44     1      122.070656      360.117996
         7        12        11     1      104.325180      472.244580
         7        12        13     1      115.291786      639.451389
         7        12        27     1      107.985512      455.858694
         7        17        18     1      131.264130      435.035958
         8         7        12     1      104.273819      492.808816
         8         7        17     1      111.458229      517.308034
         8         9        10     1      125.548691      668.686974
         8         9        11     1      111.147240      413.225671
         9         8        44     1      124.327965      423.488461
         9        10        23     1      121.412430      443.344648
         9        10        24     1      121.412430      443.344648
         9        11        12     1      103.513260      586.441458
         9        11        25     1      109.872314      535.789112
         9        11        26     1      109.872314      535.789112
        10         9        11     1      123.096191      487.385628
        11        12        13     1      112.706863      565.355083
        11        12        27     1      110.164261      448.542887
        12         7        17     1      116.178734      473.945256
        12        11        25     1      112.739357      437.475806
        12        11        26     1      112.739357      437.475806
        12        13        14     1      111.438194      556.852248
        12        13        15     1      111.438194      556.852248
        12        13        16     1      111.438194      556.852248
        13        12        27     1      105.463112      535.490775
        14        13        15     1      107.224831      708.874724
        14        13        16     1      107.224831      708.874724
        15        13        16     1      107.224831      708.874724
        17        18        28     1      120.876450      419.822481
        18         1        32     1      120.618912      452.130372
        21         6        22     1      109.992294      335.966019
        23        10        24     1      117.421799      314.703407
        25        11        26     1      107.516434      359.991523
        29        30        31     1      119.897095      601.298629
        29        30        38     1      120.925308      563.139612
        29        34        33     1      121.034348      686.024437
        29        34        39     1      119.262573      439.217788
        30        29        34     1      119.215759      732.727277
        30        29        35     1      120.289001      439.689586
        30        31        32     1      120.763634      730.580373
        30        31        36     1      119.328857      440.804983
        30        38        40     1      118.044357      562.376307
        31        30        38     1      118.597778      517.344616
        31        32        33     1      118.755089      606.948650
        32        31        36     1      119.927414      422.321957
        32        33        34     1      120.170944      685.105484
        32        33        37     1      119.864365      432.821731
        33        34        39     1      119.689011      439.989838
        34        29        35     1      120.385155      432.697110
        34        33        37     1      119.956665      437.643329
        38        40        41     1      109.524864      448.897884
        38        40        42     1      109.524864      448.897884
        38        40        43     1      109.524864      448.897884
        41        40        42     1      109.477646      342.882139
        41        40        43     1      109.477646      342.882139
        42        40        43     1      109.477646      342.882107

[ dihedrals ] ; propers for gromacs 4.5 or higher, use funct 9
;       ai        aj        ak        al funct           phase               k        pn
         1         2         3         4     9        0.000000       -0.012633         1
         1         2         3         4     9      180.000000       19.302517         2
         1         2         3         4     9        0.000000       -1.406205         3
         1         2         3         4     9      180.000000       -0.460667         4
         1         2         3        20     9        0.000000       -0.005835         1
         1         2         3        20     9      180.000000       13.908066         2
         1         2         3        20     9        0.000000       -0.517737         3
         1         2         3        20     9      180.000000        0.143878         4
         1        18        17         4     9        0.000000       -0.253308         1
         1        18        17         4     9      180.000000       20.609413         2
         1        18        17         4     9        0.000000       -2.412489         3
         1        18        17         4     9      180.000000       -0.441867         4
         1        18        17         7     9        0.000000        0.197046         1
         1        18        17         7     9      180.000000       13.402779         2
         1        18        17         7     9        0.000000       -0.213745         3
         1        18        17         7     9      180.000000       -0.414279         4
         1        32        31        30     9        0.000000        0.260957         1
         1        32        31        30     9      180.000000       16.459502         2
         1        32        31        30     9        0.000000       -0.151289         3
         1        32        31        30     9      180.000000       -0.444592         4
         1        32        31        36     9        0.000000       -0.050300         1
         1        32        31        36     9      180.000000       13.067425         2
         1        32        31        36     9        0.000000       -0.205176         3
         1        32        31        36     9      180.000000        0.223998         4
         1        32        33        34     9        0.000000        0.284804         1
         1        32        33        34     9      180.000000       16.292829         2
         1        32        33        34     9        0.000000       -0.118102         3
         1        32        33        34     9      180.000000       -0.303457         4
         1        32        33        37     9        0.000000       -0.053837         1
         1        32        33        37     9      180.000000       13.254029         2
         1        32        33        37     9        0.000000       -0.222717         3
         1        32        33        37     9      180.000000        0.191929         4
         2         1        18        17     9        0.000000       -0.112841         1
         2         1        18        17     9      180.000000       18.434583         2
         2         1        18        17     9        0.000000       -1.699335         3
         2         1        18        17     9      180.000000       -0.350599         4
         2         1        18        28     9        0.000000       -0.029355         1
         2         1        18        28     9      180.000000       13.521681         2
         2         1        18        28     9        0.000000       -0.628230         3
         2         1        18        28     9      180.000000        0.053558         4
         2         1        32        31     9        0.000000        0.004189         1
         2         1        32        31     9      180.000000        3.507897         2
         2         1        32        31     9        0.000000       -0.009662         3
         2         1        32        31     9      180.000000        0.002566         4
         2         1        32        33     9        0.000000        0.027799         1
         2         1        32        33     9      180.000000        3.472656         2
         2         1        32        33     9        0.000000        0.054007         3
         2         1        32        33     9      180.000000        0.002578         4
         2         3         4         5     9        0.000000        0.568164         1
         2         3         4         5     9      180.000000       19.304211         2
         2         3         4         5     9        0.000000        0.381135         3
         2         3         4         5     9      180.000000       -0.556234         4
         2         3         4        17     9        0.000000       -0.259380         1
         2         3         4        17     9      180.000000       17.687421         2
         2         3         4        17     9        0.000000       -1.834002         3
         2         3         4        17     9      180.000000       -0.385454         4
         3         2         1        18     9        0.000000       -0.193598         1
         3         2         1        18     9      180.000000       18.586876         2
         3         2         1        18     9        0.000000       -1.576478         3
         3         2         1        18     9      180.000000       -0.352360         4
         3         2         1        32     9        0.000000        0.153658         1
         3         2         1        32     9      180.000000       16.554961         2
         3         2         1        32     9        0.000000       -0.334498         3
         3         2         1        32     9      180.000000       -0.285229         4
         3         4         5         6     9        0.000000        1.226306         1
         3         4         5         6     9      180.000000        6.426788         2
         3         4         5         6     9        0.000000        1.121218         3
         3         4         5         6     9      180.000000        0.044005         4
         3         4        17         7     9        0.000000       -0.014316         1
         3         4        17         7     9      180.000000       13.207643         2
         3         4        17         7     9        0.000000       -2.111817         3
         3         4        17         7     9      180.000000       -0.163257         4
         3         4        17        18     9        0.000000       -0.254058         1
         3         4        17        18     9      180.000000       12.015356         2
         3         4        17        18     9        0.000000       -1.438464         3
         3         4        17        18     9      180.000000       -0.044232         4
         4         3         2        19     9        0.000000        0.131844         1
         4         3         2        19     9      180.000000       15.170012         2
         4         3         2        19     9        0.000000       -0.525275         3
         4         3         2        19     9      180.000000        0.117892         4
         4         5         6         7     9        0.000000       -0.082357         1
         4         5         6         7     9      180.000000       13.104434         2
         4         5         6         7     9        0.000000       -0.467725         3
         4         5         6         7     9      180.000000       -4.647146         4
         4         5         6        21     9        0.000000       -0.101677         1
         4         5         6        21     9      180.000000       -0.193856         2
         4         5         6        21     9        0.000000       -0.090305         3
         4         5         6        21     9      180.000000        0.262780         4
         4         5         6        22     9        0.000000       -0.101677         1
         4         5         6        22     9      180.000000       -0.193856         2
         4         5         6        22     9        0.000000       -0.090305         3
         4         5         6        22     9      180.000000        0.262780         4
         4        17         7         6     9        0.000000       -3.096349         1
         4        17         7         6     9      180.000000        7.950977         2
         4        17         7         6     9        0.000000       -2.084071         3
         4        17         7         6     9      180.000000        1.926190         4
         4        17         7         8     9        0.000000        1.584606         1
         4        17         7         8     9      180.000000        6.313244         2
         4        17         7         8     9        0.000000       -1.458797         3
         4        17         7         8     9      180.000000        0.836105         4
         4        17         7        12     9        0.000000       -2.237315         1
         4        17         7        12     9      180.000000        5.870553         2
         4        17         7        12     9        0.000000       -1.608600         3
         4        17         7        12     9      180.000000        1.771592         4
         4        17        18        28     9        0.000000        0.218358         1
         4        17        18        28     9      180.000000       15.173643         2
         4        17        18        28     9        0.000000       -0.647717         3
         4        17        18        28     9      180.000000       -0.110215         4
         5         4         3        20     9        0.000000        0.155512         1
         5         4         3        20     9      180.000000       12.771996         2
         5         4         3        20     9        0.000000       -0.042331         3
         5         4         3        20     9      180.000000        0.201327         4
         5         4        17         7     9        0.000000       -0.004860         1
         5         4        17         7     9      180.000000       22.652537         2
         5         4        17         7     9        0.000000       -5.804710         3
         5         4        17         7     9      180.000000       -0.509280         4
         5         4        17        18     9        0.000000       -0.023614         1
         5         4        17        18     9      180.000000       12.994157         2
         5         4        17        18     9        0.000000       -2.296842         3
         5         4        17        18     9      180.000000        0.167111         4
         5         6         7         8     9        0.000000        6.257194         1
         5         6         7         8     9      180.000000       -1.945073         2
         5         6         7         8     9        0.000000        0.493056         3
         5         6         7         8     9      180.000000        0.596272         4
         5         6         7        12     9        0.000000        0.301213         1
         5         6         7        12     9      180.000000        0.373359         2
         5         6         7        12     9        0.000000        0.272459         3
         5         6         7        12     9      180.000000        0.135853         4
         5         6         7        17     9        0.000000       -1.456873         1
         5         6         7        17     9      180.000000        0.350260         2
         5         6         7        17     9        0.000000        0.654045         3
         5         6         7        17     9      180.000000        0.149977         4
         6         5         4        17     9        0.000000       -1.795161         1
         6         5         4        17     9      180.000000       14.918733         2
         6         5         4        17     9        0.000000       -1.728189         3
         6         5         4        17     9      180.000000       -0.883815         4
         6         7         8         9     9        0.000000       -3.342868         1
         6         7         8         9     9      180.000000        2.316523         2
         6         7         8         9     9        0.000000       -0.644469         3
         6         7         8         9     9      180.000000        0.464383         4
         6         7         8        44     9        0.000000        0.172736         1
         6         7         8        44     9      180.000000       -0.047551         2
         6         7         8        44     9        0.000000        0.019844         3
         6         7         8        44     9      180.000000        0.085942         4
         6         7        12        11     9        0.000000       -0.970320         1
         6         7        12        11     9      180.000000        1.271671         2
         6         7        12        11     9        0.000000        0.047683         3
         6         7        12        11     9      180.000000        0.427870         4
         6         7        12        13     9        0.000000        0.733906         1
         6         7        12        13     9      180.000000        0.111258         2
         6         7        12        13     9        0.000000        0.192667         3
         6         7        12        13     9      180.000000        0.013030         4
         6         7        12        27     9        0.000000       -0.458484         1
         6         7        12        27     9      180.000000        0.178001         2
         6         7        12        27     9        0.000000        0.163414         3
         6         7        12        27     9      180.000000       -0.014005         4
         6         7        17        18     9        0.000000        0.877588         1
         6         7        17        18     9      180.000000        1.411185         2
         6         7        17        18     9        0.000000       -0.340629         3
         6         7        17        18     9      180.000000        0.866904         4
         7         8         9        10     9        0.000000        0.524279         1
         7         8         9        10     9      180.000000       20.910348         2
         7         8         9        10     9        0.000000       -0.584057         3
         7         8         9        10     9      180.000000       -1.922970         4
         7         8         9        11     9        0.000000       -0.699272         1
         7         8         9        11     9      180.000000       21.641371         2
         7         8         9        11     9        0.000000       -1.651736         3
         7         8         9        11     9      180.000000       -1.533196         4
         7        12        11         9     9        0.000000       -0.640197         1
         7        12        11         9     9      180.000000        6.904968         2
         7        12        11         9     9        0.000000       -0.367827         3
         7        12        11         9     9      180.000000       -2.112208         4
         7        12        11        25     9        0.000000        0.125550         1
         7        12        11        25     9      180.000000       -0.275217         2
         7        12        11        25     9        0.000000       -0.103402         3
         7        12        11        25     9      180.000000        0.160352         4
         7        12        11        26     9        0.000000        0.125550         1
         7        12        11        26     9      180.000000       -0.275217         2
         7        12        11        26     9        0.000000       -0.103402         3
         7        12        11        26     9      180.000000        0.160352         4
         7        12        13        14     9        0.000000       -0.090254         1
         7        12        13        14     9      180.000000       -0.065475         2
         7        12        13        14     9        0.000000        0.145783         3
         7        12        13        14     9      180.000000        0.047790         4
         7        12        13        15     9        0.000000       -0.090254         1
         7        12        13        15     9      180.000000       -0.065475         2
         7        12        13        15     9        0.000000        0.145783         3
         7        12        13        15     9      180.000000        0.047790         4
         7        12        13        16     9        0.000000       -0.090254         1
         7        12        13        16     9      180.000000       -0.065475         2
         7        12        13        16     9        0.000000        0.145783         3
         7        12        13        16     9      180.000000        0.047790         4
         7        17        18        28     9        0.000000       -0.453822         1
         7        17        18        28     9      180.000000        9.533501         2
         7        17        18        28     9        0.000000       -0.102669         3
         7        17        18        28     9      180.000000        0.048725         4
         8         7         6        21     9        0.000000       -0.428573         1
         8         7         6        21     9      180.000000        0.053458         2
         8         7         6        21     9        0.000000        0.471697         3
         8         7         6        21     9      180.000000       -0.066408         4
         8         7         6        22     9        0.000000       -0.428573         1
         8         7         6        22     9      180.000000        0.053458         2
         8         7         6        22     9        0.000000        0.471697         3
         8         7         6        22     9      180.000000       -0.066408         4
         8         7        12        11     9        0.000000        0.836364         1
         8         7        12        11     9      180.000000        0.817321         2
         8         7        12        11     9        0.000000        0.330545         3
         8         7        12        11     9      180.000000        0.353179         4
         8         7        12        13     9        0.000000       -0.662926         1
         8         7        12        13     9      180.000000       -1.006182         2
         8         7        12        13     9        0.000000        0.262500         3
         8         7        12        13     9      180.000000        0.131585         4
         8         7        12        27     9        0.000000       -0.752253         1
         8         7        12        27     9      180.000000       -0.074670         2
         8         7        12        27     9        0.000000        0.408015         3
         8         7        12        27     9      180.000000       -0.064236         4
         8         7        17        18     9        0.000000        0.809642         1
         8         7        17        18     9      180.000000        1.558244         2
         8         7        17        18     9        0.000000       -0.136840         3
         8         7        17        18     9      180.000000        0.574587         4
         8         9        10        23     9        0.000000       -1.403027         1
         8         9        10        23     9      180.000000        8.630070         2
         8         9        10        23     9        0.000000       -0.077801         3
         8         9        10        23     9      180.000000       -0.551749         4
         8         9        10        24     9        0.000000       -1.403027         1
         8         9        10        24     9      180.000000        8.630070         2
         8         9        10        24     9        0.000000       -0.077801         3
         8         9        10        24     9      180.000000       -0.551749         4
         8         9        11        12     9        0.000000       -1.219214         1
         8         9        11        12     9      180.000000       10.167472         2
         8         9        11        12     9        0.000000       -0.834742         3
         8         9        11        12     9      180.000000       -1.146198         4
         8         9        11        25     9        0.000000       -0.135687         1
         8         9        11        25     9      180.000000       -0.134721         2
         8         9        11        25     9        0.000000       -0.336311         3
         8         9        11        25     9      180.000000        0.343367         4
         8         9        11        26     9        0.000000       -0.135687         1
         8         9        11        26     9      180.000000       -0.134721         2
         8         9        11        26     9        0.000000       -0.336311         3
         8         9        11        26     9      180.000000        0.343367         4
         9         8         7        12     9        0.000000       -3.160222         1
         9         8         7        12     9      180.000000        1.840790         2
         9         8         7        12     9        0.000000       -0.343905         3
         9         8         7        12     9      180.000000        0.320122         4
         9         8         7        17     9        0.000000       -1.578400         1
         9         8         7        17     9      180.000000        1.251926         2
         9         8         7        17     9        0.000000       -0.118952         3
         9         8         7        17     9      180.000000        0.455005         4
         9        11        12        13     9        0.000000       -0.056905         1
         9        11        12        13     9      180.000000       -0.227156         2
         9        11        12        13     9        0.000000        0.034180         3
         9        11        12        13     9      180.000000        0.004801         4
         9        11        12        27     9        0.000000       -0.288415         1
         9        11        12        27     9      180.000000       -0.122488         2
         9        11        12        27     9        0.000000        0.206652         3
         9        11        12        27     9      180.000000        0.081871         4
        10         9         8        44     9        0.000000       -0.378416         1
        10         9         8        44     9      180.000000       11.224522         2
        10         9         8        44     9        0.000000        0.172182         3
        10         9         8        44     9      180.000000       -0.508055         4
        10         9        11        12     9        0.000000        0.987736         1
        10         9        11        12     9      180.000000        3.071488         2
        10         9        11        12     9        0.000000        0.172900         3
        10         9        11        12     9      180.000000        0.270934         4
        10         9        11        25     9        0.000000       -0.119965         1
        10         9        11        25     9      180.000000        0.002389         2
        10         9        11        25     9        0.000000       -0.048111         3
        10         9        11        25     9      180.000000        0.097269         4
        10         9        11        26     9        0.000000       -0.119965         1
        10         9        11        26     9      180.000000        0.002389         2
        10         9        11        26     9        0.000000       -0.048111         3
        10         9        11        26     9      180.000000        0.097269         4
        11         9         8        44     9        0.000000       -0.895995         1
        11         9         8        44     9      180.000000       10.677343         2
        11         9         8        44     9        0.000000        0.247212         3
        11         9         8        44     9      180.000000       -0.356967         4
        11         9        10        23     9        0.000000       -0.122109         1
        11         9        10        23     9      180.000000        8.099740         2
        11         9        10        23     9        0.000000        0.752081         3
        11         9        10        23     9      180.000000       -0.593511         4
        11         9        10        24     9        0.000000       -0.122109         1
        11         9        10        24     9      180.000000        8.099740         2
        11         9        10        24     9        0.000000        0.752081         3
        11         9        10        24     9      180.000000       -0.593511         4
        11        12         7        17     9        0.000000        0.934491         1
        11        12         7        17     9      180.000000        0.685717         2
        11        12         7        17     9        0.000000        0.369860         3
        11        12         7        17     9      180.000000        0.333193         4
        11        12        13        14     9        0.000000       -0.170871         1
        11        12        13        14     9      180.000000        0.160059         2
        11        12        13        14     9        0.000000        0.432499         3
        11        12        13        14     9      180.000000       -0.008100         4
        11        12        13        15     9        0.000000       -0.170871         1
        11        12        13        15     9      180.000000        0.160059         2
        11        12        13        15     9        0.000000        0.432499         3
        11        12        13        15     9      180.000000       -0.008100         4
        11        12        13        16     9        0.000000       -0.170871         1
        11        12        13        16     9      180.000000        0.160059         2
        11        12        13        16     9        0.000000        0.432499         3
        11        12        13        16     9      180.000000       -0.008100         4
        12         7         6        21     9        0.000000       -0.136953         1
        12         7         6        21     9      180.000000       -0.064280         2
        12         7         6        21     9        0.000000        0.251797         3
        12         7         6        21     9      180.000000        0.006043         4
        12         7         6        22     9        0.000000       -0.136953         1
        12         7         6        22     9      180.000000       -0.064280         2
        12         7         6        22     9        0.000000        0.251797         3
        12         7         6        22     9      180.000000        0.006043         4
        12         7         8        44     9        0.000000        0.014956         1
        12         7         8        44     9      180.000000        0.279809         2
        12         7         8        44     9        0.000000       -0.000502         3
        12         7         8        44     9      180.000000       -0.006464         4
        12         7        17        18     9        0.000000        0.647260         1
        12         7        17        18     9      180.000000        1.472558         2
        12         7        17        18     9        0.000000       -0.254723         3
        12         7        17        18     9      180.000000        0.775195         4
        13        12         7        17     9        0.000000        3.229886         1
        13        12         7        17     9      180.000000       -0.577232         2
        13        12         7        17     9        0.000000        0.477314         3
        13        12         7        17     9      180.000000        0.274479         4
        13        12        11        25     9        0.000000        0.000103         1
        13        12        11        25     9      180.000000       -0.063732         2
        13        12        11        25     9        0.000000        0.183956         3
        13        12        11        25     9      180.000000        0.000258         4
        13        12        11        26     9        0.000000        0.000103         1
        13        12        11        26     9      180.000000       -0.063732         2
        13        12        11        26     9        0.000000        0.183956         3
        13        12        11        26     9      180.000000        0.000258         4
        14        13        12        27     9        0.000000        0.065432         1
        14        13        12        27     9      180.000000        0.006006         2
        14        13        12        27     9        0.000000        0.465363         3
        14        13        12        27     9      180.000000       -0.035008         4
        15        13        12        27     9        0.000000        0.065432         1
        15        13        12        27     9      180.000000        0.006006         2
        15        13        12        27     9        0.000000        0.465363         3
        15        13        12        27     9      180.000000       -0.035008         4
        16        13        12        27     9        0.000000        0.065432         1
        16        13        12        27     9      180.000000        0.006006         2
        16        13        12        27     9        0.000000        0.465363         3
        16        13        12        27     9      180.000000       -0.035008         4
        17         4         3        20     9        0.000000        0.082417         1
        17         4         3        20     9      180.000000       12.746122         2
        17         4         3        20     9        0.000000       -0.727458         3
        17         4         3        20     9      180.000000       -0.073265         4
        17         7         6        21     9        0.000000       -0.159519         1
        17         7         6        21     9      180.000000        0.072757         2
        17         7         6        21     9        0.000000        0.600081         3
        17         7         6        21     9      180.000000       -0.052846         4
        17         7         6        22     9        0.000000       -0.159519         1
        17         7         6        22     9      180.000000        0.072757         2
        17         7         6        22     9        0.000000        0.600081         3
        17         7         6        22     9      180.000000       -0.052846         4
        17         7         8        44     9        0.000000        1.206814         1
        17         7         8        44     9      180.000000        0.773821         2
        17         7         8        44     9        0.000000       -0.019330         3
        17         7         8        44     9      180.000000        0.097022         4
        17         7        12        27     9        0.000000        0.189860         1
        17         7        12        27     9      180.000000        0.162409         2
        17         7        12        27     9        0.000000        0.457336         3
        17         7        12        27     9      180.000000       -0.039192         4
        17        18         1        32     9        0.000000        0.015852         1
        17        18         1        32     9      180.000000       17.348470         2
        17        18         1        32     9        0.000000       -0.126662         3
        17        18         1        32     9      180.000000       -0.592342         4
        18         1         2        19     9        0.000000       -0.101629         1
        18         1         2        19     9      180.000000       14.456656         2
        18         1         2        19     9        0.000000       -0.751674         3
        18         1         2        19     9      180.000000        0.065258         4
        18         1        32        31     9        0.000000        0.004569         1
        18         1        32        31     9      180.000000        3.621472         2
        18         1        32        31     9        0.000000        0.024832         3
        18         1        32        31     9      180.000000       -0.007418         4
        18         1        32        33     9        0.000000        0.008151         1
        18         1        32        33     9      180.000000        3.570890         2
        18         1        32        33     9        0.000000        0.063020         3
        18         1        32        33     9      180.000000       -0.013498         4
        19         2         1        32     9        0.000000       -0.084765         1
        19         2         1        32     9      180.000000       13.441521         2
        19         2         1        32     9        0.000000       -0.249769         3
        19         2         1        32     9      180.000000        0.162541         4
        19         2         3        20     9        0.000000       -0.151625         1
        19         2         3        20     9      180.000000       12.042206         2
        19         2         3        20     9        0.000000       -0.750822         3
        19         2         3        20     9      180.000000        0.314283         4
        25        11        12        27     9        0.000000        0.095245         1
        25        11        12        27     9      180.000000        0.098351         2
        25        11        12        27     9        0.000000        0.419638         3
        25        11        12        27     9      180.000000       -0.067379         4
        26        11        12        27     9        0.000000        0.095245         1
        26        11        12        27     9      180.000000        0.098351         2
        26        11        12        27     9        0.000000        0.419638         3
        26        11        12        27     9      180.000000       -0.067379         4
        28        18         1        32     9        0.000000       -0.104081         1
        28        18         1        32     9      180.000000       12.884806         2
        28        18         1        32     9        0.000000       -0.171420         3
        28        18         1        32     9      180.000000        0.102313         4
        29        30        31        32     9        0.000000       -0.096800         1
        29        30        31        32     9      180.000000       15.716609         2
        29        30        31        32     9        0.000000       -0.849424         3
        29        30        31        32     9      180.000000       -0.238264         4
        29        30        31        36     9        0.000000        0.121932         1
        29        30        31        36     9      180.000000       12.361421         2
        29        30        31        36     9        0.000000       -0.488840         3
        29        30        31        36     9      180.000000        0.256173         4
        29        30        38        40     9        0.000000        0.337332         1
        29        30        38        40     9      180.000000        5.644251         2
        29        30        38        40     9        0.000000       -0.052857         3
        29        30        38        40     9      180.000000        0.674217         4
        29        34        33        32     9        0.000000       -0.024117         1
        29        34        33        32     9      180.000000       18.720209         2
        29        34        33        32     9        0.000000       -1.486305         3
        29        34        33        32     9      180.000000       -0.340228         4
        29        34        33        37     9        0.000000        0.038662         1
        29        34        33        37     9      180.000000       14.711245         2
        29        34        33        37     9        0.000000       -0.756183         3
        29        34        33        37     9      180.000000        0.143684         4
        30        29        34        33     9        0.000000       -0.004034         1
        30        29        34        33     9      180.000000       18.448523         2
        30        29        34        33     9        0.000000       -1.565919         3
        30        29        34        33     9      180.000000       -0.472104         4
        30        29        34        39     9        0.000000        0.030486         1
        30        29        34        39     9      180.000000       14.667148         2
        30        29        34        39     9        0.000000       -0.505840         3
        30        29        34        39     9      180.000000        0.067968         4
        30        31        32        33     9        0.000000       -0.231052         1
        30        31        32        33     9      180.000000       18.211259         2
        30        31        32        33     9        0.000000       -1.626060         3
        30        31        32        33     9      180.000000       -0.379279         4
        30        38        40        41     9        0.000000       -0.094314         1
        30        38        40        41     9      180.000000        0.036386         2
        30        38        40        41     9        0.000000        0.682791         3
        30        38        40        41     9      180.000000       -0.027783         4
        30        38        40        42     9        0.000000       -0.094314         1
        30        38        40        42     9      180.000000        0.036386         2
        30        38        40        42     9        0.000000        0.682791         3
        30        38        40        42     9      180.000000       -0.027783         4
        30        38        40        43     9        0.000000       -0.094314         1
        30        38        40        43     9      180.000000        0.036386         2
        30        38        40        43     9        0.000000        0.682791         3
        30        38        40        43     9      180.000000       -0.027783         4
        31        30        29        34     9        0.000000       -0.037626         1
        31        30        29        34     9      180.000000       15.694073         2
        31        30        29        34     9        0.000000       -0.912605         3
        31        30        29        34     9      180.000000       -0.199316         4
        31        30        29        35     9        0.000000        0.058822         1
        31        30        29        35     9      180.000000       12.435014         2
        31        30        29        35     9        0.000000       -0.457573         3
        31        30        29        35     9      180.000000        0.151525         4
        31        30        38        40     9        0.000000       -0.161622         1
        31        30        38        40     9      180.000000        5.610265         2
        31        30        38        40     9        0.000000       -0.125488         3
        31        30        38        40     9      180.000000        0.707210         4
        31        32        33        34     9        0.000000       -0.132969         1
        31        32        33        34     9      180.000000       18.204895         2
        31        32        33        34     9        0.000000       -1.448578         3
        31        32        33        34     9      180.000000       -0.298691         4
        31        32        33        37     9        0.000000       -0.112143         1
        31        32        33        37     9      180.000000       14.351369         2
        31        32        33        37     9        0.000000       -0.658338         3
        31        32        33        37     9      180.000000        0.020810         4
        32        31        30        38     9        0.000000        0.339296         1
        32        31        30        38     9      180.000000       16.716749         2
        32        31        30        38     9        0.000000        0.351322         3
        32        31        30        38     9      180.000000       -0.259815         4
        32        33        34        39     9        0.000000       -0.056504         1
        32        33        34        39     9      180.000000       14.565359         2
        32        33        34        39     9        0.000000       -0.625439         3
        32        33        34        39     9      180.000000        0.108547         4
        33        32        31        36     9        0.000000       -0.042575         1
        33        32        31        36     9      180.000000       13.937082         2
        33        32        31        36     9        0.000000       -0.559996         3
        33        32        31        36     9      180.000000        0.086769         4
        33        34        29        35     9        0.000000        0.062967         1
        33        34        29        35     9      180.000000       13.769876         2
        33        34        29        35     9        0.000000       -0.615364         3
        33        34        29        35     9      180.000000        0.188481         4
        34        29        30        38     9        0.000000        0.580713         1
        34        29        30        38     9      180.000000       17.305557         2
        34        29        30        38     9        0.000000        0.465219         3
        34        29        30        38     9      180.000000       -0.233713         4
        35        29        30        38     9        0.000000        0.065996         1
        35        29        30        38     9      180.000000       12.817387         2
        35        29        30        38     9        0.000000       -0.131087         3
        35        29        30        38     9      180.000000        0.264913         4
        35        29        34        39     9        0.000000       -0.184139         1
        35        29        34        39     9      180.000000       11.504633         2
        35        29        34        39     9        0.000000       -0.585540         3
        35        29        34        39     9      180.000000        0.256740         4
        36        31        30        38     9        0.000000        0.072861         1
        36        31        30        38     9      180.000000       12.748867         2
        36        31        30        38     9        0.000000       -0.109221         3
        36        31        30        38     9      180.000000        0.297388         4
        37        33        34        39     9        0.000000       -0.200205         1
        37        33        34        39     9      180.000000       11.808788         2
        37        33        34        39     9        0.000000       -0.727930         3
        37        33        34        39     9      180.000000        0.322757         4

[ dihedrals ] ; impropers
;       ai        aj        ak        al funct           phase               k        pn
         9         8        10        11     4      180.000000       16.040925         2
         9        10        11         8     4      180.000000       16.040925         2
         9        11         8        10     4      180.000000       16.040925         2
        30        29        31        38     4      180.000000        0.477087         2
        30        31        38        29     4      180.000000        0.477087         2
        30        38        29        31     4      180.000000        0.477087         2

[ pairs ]
;       ai        aj funct
         1         4     1
         1         7     1
         1        20     1
         1        30     1
         1        34     1
         1        36     1
         1        37     1
         2         5     1
         2        17     1
         2        28     1
         2        31     1
         2        33     1
         3         6     1
         3         7     1
         3        18     1
         3        32     1
         4         8     1
         4        12     1
         4        19     1
         4        21     1
         4        22     1
         4        28     1
         5         8     1
         5        12     1
         5        18     1
         5        20     1
         6         9     1
         6        11     1
         6        13     1
         6        18     1
         6        27     1
         6        44     1
         7        10     1
         7        14     1
         7        15     1
         7        16     1
         7        25     1
         7        26     1
         7        28     1
         8        13     1
         8        18     1
         8        21     1
         8        22     1
         8        23     1
         8        24     1
         8        25     1
         8        26     1
         8        27     1
         9        13     1
         9        17     1
         9        27     1
        10        12     1
        10        25     1
        10        26     1
        10        44     1
        11        14     1
        11        15     1
        11        16     1
        11        17     1
        11        23     1
        11        24     1
        11        44     1
        12        18     1
        12        21     1
        12        22     1
        12        44     1
        13        17     1
        13        25     1
        13        26     1
        14        27     1
        15        27     1
        16        27     1
        17        20     1
        17        21     1
        17        22     1
        17        27     1
        17        32     1
        17        44     1
        18        19     1
        18        31     1
        18        33     1
        19        20     1
        19        32     1
        25        27     1
        26        27     1
        28        32     1
        29        32     1
        29        36     1
        29        37     1
        29        40     1
        30        33     1
        30        39     1
        30        41     1
        30        42     1
        30        43     1
        31        34     1
        31        35     1
        31        37     1
        31        40     1
        32        38     1
        32        39     1
        33        35     1
        33        36     1
        34        38     1
        35        38     1
        35        39     1
        36        38     1
        37        39     1
