; ITP file created by ByteFF-ML, 2025-12-06 06:38:10.647154

[ atomtypes ]
;name           bonded.type        at.num        mass        charge   ptype           sigma         epsilon
 c0bf                                   6      0.0000       0.00000       A     3.31418e-01     4.11005e-01
 c1bf                                   6      0.0000       0.00000       A     3.31516e-01     4.13130e-01
 c2bf                                   6      0.0000       0.00000       A     3.31440e-01     4.12677e-01
 c3bf                                   6      0.0000       0.00000       A     3.31383e-01     4.12764e-01
 o4bf                                   8      0.0000       0.00000       A     3.16072e-01     3.06757e-01
 c5bf                                   6      0.0000       0.00000       A     3.39640e-01     4.47145e-01
 c6bf                                   6      0.0000       0.00000       A     3.39985e-01     4.52984e-01
 n7bf                                   7      0.0000       0.00000       A     3.26999e-01     6.37995e-01
 c8bf                                   6      0.0000       0.00000       A     3.31390e-01     4.13625e-01
 n9bf                                   7      0.0000       0.00000       A     3.36329e-01     4.75823e-01
 c10bf                                  6      0.0000       0.00000       A     3.39746e-01     4.51190e-01
 c11bf                                  6      0.0000       0.00000       A     3.40170e-01     4.45634e-01
 c12bf                                  6      0.0000       0.00000       A     3.40006e-01     4.51525e-01
 f13bf                                  9      0.0000       0.00000       A     3.03319e-01     3.49137e-01
 f14bf                                  9      0.0000       0.00000       A     3.03319e-01     3.49137e-01
 f15bf                                  9      0.0000       0.00000       A     3.03319e-01     3.49137e-01
 c16bf                                  6      0.0000       0.00000       A     3.31925e-01     4.16263e-01
 c17bf                                  6      0.0000       0.00000       A     3.31417e-01     4.12683e-01
 h18bf                                  1      0.0000       0.00000       A     2.62460e-01     6.72999e-02
 h19bf                                  1      0.0000       0.00000       A     2.62436e-01     6.74164e-02
 h20bf                                  1      0.0000       0.00000       A     2.42406e-01     8.61287e-02
 h21bf                                  1      0.0000       0.00000       A     2.42406e-01     8.61287e-02
 h22bf                                  1      0.0000       0.00000       A     1.10640e-01     4.03710e-02
 h23bf                                  1      0.0000       0.00000       A     1.10640e-01     4.03710e-02
 h24bf                                  1      0.0000       0.00000       A     2.60273e-01     8.76306e-02
 h25bf                                  1      0.0000       0.00000       A     2.60273e-01     8.76306e-02
 h26bf                                  1      0.0000       0.00000       A     2.60041e-01     8.71502e-02
 h27bf                                  1      0.0000       0.00000       A     2.62638e-01     6.79942e-02
 c28bf                                  6      0.0000       0.00000       A     3.31492e-01     4.12949e-01
 n29bf                                  7      0.0000       0.00000       A     3.38267e-01     3.92488e-01
 c30bf                                  6      0.0000       0.00000       A     3.31498e-01     4.13411e-01
 c31bf                                  6      0.0000       0.00000       A     3.31224e-01     4.12892e-01
 c32bf                                  6      0.0000       0.00000       A     3.31445e-01     4.12576e-01
 c33bf                                  6      0.0000       0.00000       A     3.31447e-01     4.12348e-01
 h34bf                                  1      0.0000       0.00000       A     2.53693e-01     6.69120e-02
 h35bf                                  1      0.0000       0.00000       A     2.53647e-01     6.70142e-02
 h36bf                                  1      0.0000       0.00000       A     2.62352e-01     6.75632e-02
 c37bf                                  6      0.0000       0.00000       A     3.48077e-01     6.70560e-01
 c38bf                                  6      0.0000       0.00000       A     3.48494e-01     6.68886e-01
 c39bf                                  6      0.0000       0.00000       A     3.39785e-01     4.55062e-01
 h40bf                                  1      0.0000       0.00000       A     2.41109e-01     8.60553e-02
 h41bf                                  1      0.0000       0.00000       A     2.41109e-01     8.60553e-02
 o42bf                                  8      0.0000       0.00000       A     3.15525e-01     3.05777e-01
 c43bf                                  6      0.0000       0.00000       A     3.39711e-01     4.49380e-01
 h44bf                                  1      0.0000       0.00000       A     2.42071e-01     8.71071e-02
 h45bf                                  1      0.0000       0.00000       A     2.42071e-01     8.71071e-02
 h46bf                                  1      0.0000       0.00000       A     2.42071e-01     8.71071e-02
 h47bf                                  1      0.0000       0.00000       A     1.10258e-01     4.11004e-02

[ moleculetype ]
;name             nrexcl
 spiro10               3

[ atoms ]
;       nr            type      resi   res      atom      cgnr      charge          mass ; qtot
         1            c0bf         1   UNL        c0         1    -0.06341       12.0110 ; qtot   -0.063
         2            c1bf         1   UNL        c1         2    -0.05859       12.0110 ; qtot   -0.122
         3            c2bf         1   UNL        c2         3    -0.12380       12.0110 ; qtot   -0.246
         4            c3bf         1   UNL        c3         4     0.13767       12.0110 ; qtot   -0.108
         5            o4bf         1   UNL        o4         5    -0.31888       15.9990 ; qtot   -0.427
         6            c5bf         1   UNL        c5         6     0.15683       12.0110 ; qtot   -0.270
         7            c6bf         1   UNL        c6         7     0.11908       12.0110 ; qtot   -0.151
         8            n7bf         1   UNL        n7         8    -0.40116       14.0070 ; qtot   -0.552
         9            c8bf         1   UNL        c8         9     0.46291       12.0110 ; qtot   -0.089
        10            n9bf         1   UNL        n9        10    -0.55175       14.0070 ; qtot   -0.641
        11           c10bf         1   UNL       c10        11    -0.14155       12.0110 ; qtot   -0.783
        12           c11bf         1   UNL       c11        12    -0.10032       12.0110 ; qtot   -0.883
        13           c12bf         1   UNL       c12        13     0.29071       12.0110 ; qtot   -0.592
        14           f13bf         1   UNL       f13        14    -0.09063       18.9980 ; qtot   -0.683
        15           f14bf         1   UNL       f14        15    -0.09063       18.9980 ; qtot   -0.774
        16           f15bf         1   UNL       f15        16    -0.09063       18.9980 ; qtot   -0.864
        17           c16bf         1   UNL       c16        17    -0.19459       12.0110 ; qtot   -1.059
        18           c17bf         1   UNL       c17        18    -0.01823       12.0110 ; qtot   -1.077
        19           h18bf         1   UNL       h18        19     0.11963        1.0080 ; qtot   -0.957
        20           h19bf         1   UNL       h19        20     0.13455        1.0080 ; qtot   -0.823
        21           h20bf         1   UNL       h20        21     0.08368        1.0080 ; qtot   -0.739
        22           h21bf         1   UNL       h21        22     0.08368        1.0080 ; qtot   -0.655
        23           h22bf         1   UNL       h22        23     0.38091        1.0080 ; qtot   -0.275
        24           h23bf         1   UNL       h23        24     0.38091        1.0080 ; qtot    0.106
        25           h24bf         1   UNL       h24        25     0.12457        1.0080 ; qtot    0.231
        26           h25bf         1   UNL       h25        26     0.12457        1.0080 ; qtot    0.356
        27           h26bf         1   UNL       h26        27     0.12007        1.0080 ; qtot    0.476
        28           h27bf         1   UNL       h27        28     0.13050        1.0080 ; qtot    0.606
        29           c28bf         1   UNL       c28        29     0.35755       12.0110 ; qtot    0.964
        30           n29bf         1   UNL       n29        30    -0.65965       14.0070 ; qtot    0.304
        31           c30bf         1   UNL       c30        31     0.34201       12.0110 ; qtot    0.646
        32           c31bf         1   UNL       c31        32    -0.08039       12.0110 ; qtot    0.566
        33           c32bf         1   UNL       c32        33    -0.04828       12.0110 ; qtot    0.517
        34           c33bf         1   UNL       c33        34    -0.01907       12.0110 ; qtot    0.498
        35           h34bf         1   UNL       h34        35     0.03032        1.0080 ; qtot    0.529
        36           h35bf         1   UNL       h35        36     0.03023        1.0080 ; qtot    0.559
        37           h36bf         1   UNL       h36        37     0.13000        1.0080 ; qtot    0.689
        38           c37bf         1   UNL       c37        38    -0.10759       12.0110 ; qtot    0.581
        39           c38bf         1   UNL       c38        39    -0.12177       12.0110 ; qtot    0.459
        40           c39bf         1   UNL       c39        40     0.24005       12.0110 ; qtot    0.700
        41           h40bf         1   UNL       h40        41     0.05436        1.0080 ; qtot    0.754
        42           h41bf         1   UNL       h41        42     0.05436        1.0080 ; qtot    0.808
        43           o42bf         1   UNL       o42        43    -0.45563       15.9990 ; qtot    0.353
        44           c43bf         1   UNL       c43        44     0.13794       12.0110 ; qtot    0.491
        45           h44bf         1   UNL       h44        45     0.03521        1.0080 ; qtot    0.526
        46           h45bf         1   UNL       h45        46     0.03521        1.0080 ; qtot    0.561
        47           h46bf         1   UNL       h46        47     0.03521        1.0080 ; qtot    0.596
        48           h47bf         1   UNL       h47        48     0.40383        1.0080 ; qtot    1.000

[ bonds ]
;       ai        aj funct               r               k
         1         2     1        0.140673   283630.178076
         1        18     1        0.140890   275573.449902
         1        32     1        0.147998   215960.847559
         2         3     1        0.140023   313491.511719
         2        19     1        0.108575   319016.158887
         3         4     1        0.139065   312504.476904
         3        20     1        0.108503   323387.882178
         4         5     1        0.137195   250718.615479
         4        17     1        0.139566   280554.616309
         5         6     1        0.144797   164521.575830
         6         7     1        0.155335   137830.278491
         6        21     1        0.109148   308396.117822
         6        22     1        0.109148   308396.117822
         7         8     1        0.148921   137360.970264
         7        12     1        0.156141   126774.880786
         7        17     1        0.150891   178529.050610
         8         9     1        0.131825   430665.065039
         8        48     1        0.101599   416991.041064
         9        10     1        0.132856   428213.528076
         9        11     1        0.150760   181078.088257
        10        23     1        0.101449   421168.478027
        10        24     1        0.101449   421168.478027
        11        12     1        0.154423   163973.089795
        11        25     1        0.109305   307647.191016
        11        26     1        0.109305   307647.191016
        12        13     1        0.152121   187779.166211
        12        27     1        0.109143   311751.540771
        13        14     1        0.135341   234865.356738
        13        15     1        0.135341   234865.356738
        13        16     1        0.135341   234865.356738
        17        18     1        0.139004   321198.764551
        18        28     1        0.108555   319747.950293
        29        30     1        0.133520   326287.493262
        29        34     1        0.141080   268218.072900
        29        35     1        0.108743   318392.772510
        30        31     1        0.133774   324276.190527
        31        32     1        0.140874   269596.131934
        31        36     1        0.108775   316570.546533
        32        33     1        0.140038   294700.923584
        33        34     1        0.140425   296043.077441
        33        37     1        0.108522   321898.328125
        34        38     1        0.142804   287507.068799
        38        39     1        0.121550   955602.616602
        39        40     1        0.146851   250590.572412
        40        41     1        0.109903   284170.875293
        40        42     1        0.109903   284170.875293
        40        43     1        0.142183   202135.797119
        43        44     1        0.142270   214644.307422
        44        45     1        0.109621   292271.348535
        44        46     1        0.109621   292271.348535
        44        47     1        0.109621   292271.348535

[ angles ]
;       ai        aj        ak funct           theta             cth
         1         2         3     1      121.957626      653.812949
         1         2        19     1      119.439552      427.398447
         1        18        17     1      119.139725      679.451568
         1        18        28     1      120.072510      416.767508
         1        32        31     1      121.314697      541.864135
         1        32        33     1      121.722557      439.236430
         2         1        18     1      118.747803      608.030083
         2         1        32     1      120.801041      543.717108
         2         3         4     1      117.261963      799.923265
         2         3        20     1      121.668045      431.510688
         3         2        19     1      118.610703      424.559551
         3         4         5     1      124.760948      591.434154
         3         4        17     1      121.853539      567.706221
         4         3        20     1      120.999832      434.137595
         4         5         6     1      106.600662      579.963651
         4        17         7     1      107.909348      568.757520
         4        17        18     1      120.509499      692.811562
         5         4        17     1      113.244522      360.787100
         5         6         7     1      105.895126      407.535684
         5         6        21     1      108.385498      471.222298
         5         6        22     1      108.385498      471.222298
         6         7         8     1      107.934708      515.687608
         6         7        12     1      115.019226      503.961574
         6         7        17     1      100.622574      452.508544
         7         6        21     1      111.709167      417.924563
         7         6        22     1      111.709167      417.924563
         7         8         9     1      113.675858      531.971282
         7         8        48     1      122.070656      360.117996
         7        12        11     1      104.325180      472.244580
         7        12        13     1      115.291786      639.451389
         7        12        27     1      107.985512      455.858694
         7        17        18     1      131.258133      434.623374
         8         7        12     1      104.273819      492.808816
         8         7        17     1      111.458229      517.308034
         8         9        10     1      125.548691      668.686974
         8         9        11     1      111.147240      413.225671
         9         8        48     1      124.327965      423.488461
         9        10        23     1      121.412430      443.344648
         9        10        24     1      121.412430      443.344648
         9        11        12     1      103.513260      586.441458
         9        11        25     1      109.872314      535.789112
         9        11        26     1      109.872314      535.789112
        10         9        11     1      123.096191      487.385628
        11        12        13     1      112.706863      565.355083
        11        12        27     1      110.164261      448.542887
        12         7        17     1      116.178734      473.945256
        12        11        25     1      112.739357      437.475806
        12        11        26     1      112.739357      437.475806
        12        13        14     1      111.438194      556.852248
        12        13        15     1      111.438194      556.852248
        12        13        16     1      111.438194      556.852248
        13        12        27     1      105.463112      535.490775
        14        13        15     1      107.224831      708.874724
        14        13        16     1      107.224831      708.874724
        15        13        16     1      107.224831      708.874724
        17        18        28     1      120.875137      420.489638
        18         1        32     1      120.576553      447.984326
        21         6        22     1      109.992294      335.966019
        23        10        24     1      117.421799      314.703439
        25        11        26     1      107.516434      359.991523
        29        30        31     1      117.936111      685.470346
        29        34        33     1      117.609421      738.884977
        29        34        38     1      120.759933      474.127591
        30        29        34     1      123.460938      695.152485
        30        29        35     1      116.848068      335.809094
        30        31        32     1      124.310997      735.792688
        30        31        36     1      115.960167      330.068671
        31        32        33     1      116.800415      660.116401
        32        31        36     1      119.928322      407.542483
        32        33        34     1      120.161697      731.863612
        32        33        37     1      120.602737      419.360706
        33        34        38     1      121.390152      411.057953
        34        29        35     1      119.720192      412.427987
        34        33        37     1      119.523483      431.548643
        34        38        39     1      179.040985      167.360000
        38        39        40     1      178.419998      167.360000
        39        40        41     1      109.343643      449.675457
        39        40        42     1      109.343643      449.675457
        39        40        43     1      112.256058      583.108610
        40        43        44     1      112.682007      633.318653
        41        40        42     1      107.806168      337.923535
        41        40        43     1      109.126907      442.933756
        42        40        43     1      109.126907      442.933756
        43        44        45     1      109.851830      472.155615
        43        44        46     1      109.851830      472.155615
        43        44        47     1      109.851830      472.155615
        45        44        46     1      109.160728      340.508975
        45        44        47     1      109.160728      340.508975
        46        44        47     1      109.160728      340.508975

[ dihedrals ] ; propers for gromacs 4.5 or higher, use funct 9
;       ai        aj        ak        al funct           phase               k        pn
         1         2         3         4     9        0.000000       -0.005218         1
         1         2         3         4     9      180.000000       19.325595         2
         1         2         3         4     9        0.000000       -1.433600         3
         1         2         3         4     9      180.000000       -0.479694         4
         1         2         3        20     9        0.000000       -0.008726         1
         1         2         3        20     9      180.000000       14.109312         2
         1         2         3        20     9        0.000000       -0.534811         3
         1         2         3        20     9      180.000000        0.104991         4
         1        18        17         4     9        0.000000       -0.251949         1
         1        18        17         4     9      180.000000       20.759404         2
         1        18        17         4     9        0.000000       -2.437256         3
         1        18        17         4     9      180.000000       -0.445120         4
         1        18        17         7     9        0.000000        0.146411         1
         1        18        17         7     9      180.000000       13.406577         2
         1        18        17         7     9        0.000000       -0.163393         3
         1        18        17         7     9      180.000000       -0.436202         4
         1        32        31        30     9        0.000000        0.411615         1
         1        32        31        30     9      180.000000       14.963651         2
         1        32        31        30     9        0.000000        0.047058         3
         1        32        31        30     9      180.000000       -0.458278         4
         1        32        31        36     9        0.000000        0.102174         1
         1        32        31        36     9      180.000000       12.824116         2
         1        32        31        36     9        0.000000       -0.200226         3
         1        32        31        36     9      180.000000        0.148985         4
         1        32        33        34     9        0.000000        0.258139         1
         1        32        33        34     9      180.000000       16.565945         2
         1        32        33        34     9        0.000000       -0.045269         3
         1        32        33        34     9      180.000000       -0.424173         4
         1        32        33        37     9        0.000000       -0.066635         1
         1        32        33        37     9      180.000000       13.303097         2
         1        32        33        37     9        0.000000       -0.196264         3
         1        32        33        37     9      180.000000        0.207819         4
         2         1        18        17     9        0.000000       -0.136545         1
         2         1        18        17     9      180.000000       18.491086         2
         2         1        18        17     9        0.000000       -1.789418         3
         2         1        18        17     9      180.000000       -0.345708         4
         2         1        18        28     9        0.000000       -0.034273         1
         2         1        18        28     9      180.000000       13.822117         2
         2         1        18        28     9        0.000000       -0.671918         3
         2         1        18        28     9      180.000000        0.035341         4
         2         1        32        31     9        0.000000       -0.019181         1
         2         1        32        31     9      180.000000        2.680196         2
         2         1        32        31     9        0.000000        0.075995         3
         2         1        32        31     9      180.000000       -0.203330         4
         2         1        32        33     9        0.000000        0.036139         1
         2         1        32        33     9      180.000000        3.095711         2
         2         1        32        33     9        0.000000        0.027151         3
         2         1        32        33     9      180.000000       -0.143581         4
         2         3         4         5     9        0.000000        0.584805         1
         2         3         4         5     9      180.000000       19.258183         2
         2         3         4         5     9        0.000000        0.397572         3
         2         3         4         5     9      180.000000       -0.554167         4
         2         3         4        17     9        0.000000       -0.245769         1
         2         3         4        17     9      180.000000       17.707603         2
         2         3         4        17     9        0.000000       -1.842193         3
         2         3         4        17     9      180.000000       -0.382343         4
         3         2         1        18     9        0.000000       -0.210277         1
         3         2         1        18     9      180.000000       18.706916         2
         3         2         1        18     9        0.000000       -1.647042         3
         3         2         1        18     9      180.000000       -0.364335         4
         3         2         1        32     9        0.000000        0.211158         1
         3         2         1        32     9      180.000000       16.620338         2
         3         2         1        32     9        0.000000       -0.333292         3
         3         2         1        32     9      180.000000       -0.334254         4
         3         4         5         6     9        0.000000        1.226306         1
         3         4         5         6     9      180.000000        6.426788         2
         3         4         5         6     9        0.000000        1.121218         3
         3         4         5         6     9      180.000000        0.044005         4
         3         4        17         7     9        0.000000       -0.014316         1
         3         4        17         7     9      180.000000       13.207643         2
         3         4        17         7     9        0.000000       -2.111817         3
         3         4        17         7     9      180.000000       -0.163257         4
         3         4        17        18     9        0.000000       -0.236316         1
         3         4        17        18     9      180.000000       11.969449         2
         3         4        17        18     9        0.000000       -1.408493         3
         3         4        17        18     9      180.000000       -0.047268         4
         4         3         2        19     9        0.000000        0.123971         1
         4         3         2        19     9      180.000000       15.222709         2
         4         3         2        19     9        0.000000       -0.519585         3
         4         3         2        19     9      180.000000        0.110745         4
         4         5         6         7     9        0.000000       -0.082357         1
         4         5         6         7     9      180.000000       13.104434         2
         4         5         6         7     9        0.000000       -0.467725         3
         4         5         6         7     9      180.000000       -4.647146         4
         4         5         6        21     9        0.000000       -0.101677         1
         4         5         6        21     9      180.000000       -0.193856         2
         4         5         6        21     9        0.000000       -0.090305         3
         4         5         6        21     9      180.000000        0.262780         4
         4         5         6        22     9        0.000000       -0.101677         1
         4         5         6        22     9      180.000000       -0.193856         2
         4         5         6        22     9        0.000000       -0.090305         3
         4         5         6        22     9      180.000000        0.262780         4
         4        17         7         6     9        0.000000       -3.096349         1
         4        17         7         6     9      180.000000        7.950977         2
         4        17         7         6     9        0.000000       -2.084071         3
         4        17         7         6     9      180.000000        1.926190         4
         4        17         7         8     9        0.000000        1.584606         1
         4        17         7         8     9      180.000000        6.313244         2
         4        17         7         8     9        0.000000       -1.458797         3
         4        17         7         8     9      180.000000        0.836105         4
         4        17         7        12     9        0.000000       -2.237315         1
         4        17         7        12     9      180.000000        5.870553         2
         4        17         7        12     9        0.000000       -1.608600         3
         4        17         7        12     9      180.000000        1.771592         4
         4        17        18        28     9        0.000000        0.208395         1
         4        17        18        28     9      180.000000       15.226372         2
         4        17        18        28     9        0.000000       -0.652676         3
         4        17        18        28     9      180.000000       -0.111925         4
         5         4         3        20     9        0.000000        0.155512         1
         5         4         3        20     9      180.000000       12.771996         2
         5         4         3        20     9        0.000000       -0.042331         3
         5         4         3        20     9      180.000000        0.201327         4
         5         4        17         7     9        0.000000       -0.004860         1
         5         4        17         7     9      180.000000       22.652537         2
         5         4        17         7     9        0.000000       -5.804710         3
         5         4        17         7     9      180.000000       -0.509280         4
         5         4        17        18     9        0.000000       -0.003868         1
         5         4        17        18     9      180.000000       13.025929         2
         5         4        17        18     9        0.000000       -2.273473         3
         5         4        17        18     9      180.000000        0.157676         4
         5         6         7         8     9        0.000000        6.257194         1
         5         6         7         8     9      180.000000       -1.945073         2
         5         6         7         8     9        0.000000        0.493056         3
         5         6         7         8     9      180.000000        0.596272         4
         5         6         7        12     9        0.000000        0.301213         1
         5         6         7        12     9      180.000000        0.373359         2
         5         6         7        12     9        0.000000        0.272459         3
         5         6         7        12     9      180.000000        0.135853         4
         5         6         7        17     9        0.000000       -1.456873         1
         5         6         7        17     9      180.000000        0.350260         2
         5         6         7        17     9        0.000000        0.654045         3
         5         6         7        17     9      180.000000        0.149977         4
         6         5         4        17     9        0.000000       -1.795161         1
         6         5         4        17     9      180.000000       14.918733         2
         6         5         4        17     9        0.000000       -1.728189         3
         6         5         4        17     9      180.000000       -0.883815         4
         6         7         8         9     9        0.000000       -3.342868         1
         6         7         8         9     9      180.000000        2.316523         2
         6         7         8         9     9        0.000000       -0.644469         3
         6         7         8         9     9      180.000000        0.464383         4
         6         7         8        48     9        0.000000        0.172736         1
         6         7         8        48     9      180.000000       -0.047551         2
         6         7         8        48     9        0.000000        0.019844         3
         6         7         8        48     9      180.000000        0.085942         4
         6         7        12        11     9        0.000000       -0.970320         1
         6         7        12        11     9      180.000000        1.271671         2
         6         7        12        11     9        0.000000        0.047683         3
         6         7        12        11     9      180.000000        0.427870         4
         6         7        12        13     9        0.000000        0.733906         1
         6         7        12        13     9      180.000000        0.111258         2
         6         7        12        13     9        0.000000        0.192667         3
         6         7        12        13     9      180.000000        0.013030         4
         6         7        12        27     9        0.000000       -0.458484         1
         6         7        12        27     9      180.000000        0.178001         2
         6         7        12        27     9        0.000000        0.163414         3
         6         7        12        27     9      180.000000       -0.014005         4
         6         7        17        18     9        0.000000        0.847754         1
         6         7        17        18     9      180.000000        1.419353         2
         6         7        17        18     9        0.000000       -0.344702         3
         6         7        17        18     9      180.000000        0.863213         4
         7         8         9        10     9        0.000000        0.524279         1
         7         8         9        10     9      180.000000       20.910348         2
         7         8         9        10     9        0.000000       -0.584057         3
         7         8         9        10     9      180.000000       -1.922970         4
         7         8         9        11     9        0.000000       -0.699272         1
         7         8         9        11     9      180.000000       21.641371         2
         7         8         9        11     9        0.000000       -1.651736         3
         7         8         9        11     9      180.000000       -1.533196         4
         7        12        11         9     9        0.000000       -0.640197         1
         7        12        11         9     9      180.000000        6.904968         2
         7        12        11         9     9        0.000000       -0.367827         3
         7        12        11         9     9      180.000000       -2.112208         4
         7        12        11        25     9        0.000000        0.125550         1
         7        12        11        25     9      180.000000       -0.275217         2
         7        12        11        25     9        0.000000       -0.103402         3
         7        12        11        25     9      180.000000        0.160352         4
         7        12        11        26     9        0.000000        0.125550         1
         7        12        11        26     9      180.000000       -0.275217         2
         7        12        11        26     9        0.000000       -0.103402         3
         7        12        11        26     9      180.000000        0.160352         4
         7        12        13        14     9        0.000000       -0.090254         1
         7        12        13        14     9      180.000000       -0.065475         2
         7        12        13        14     9        0.000000        0.145783         3
         7        12        13        14     9      180.000000        0.047790         4
         7        12        13        15     9        0.000000       -0.090254         1
         7        12        13        15     9      180.000000       -0.065475         2
         7        12        13        15     9        0.000000        0.145783         3
         7        12        13        15     9      180.000000        0.047790         4
         7        12        13        16     9        0.000000       -0.090254         1
         7        12        13        16     9      180.000000       -0.065475         2
         7        12        13        16     9        0.000000        0.145783         3
         7        12        13        16     9      180.000000        0.047790         4
         7        17        18        28     9        0.000000       -0.457753         1
         7        17        18        28     9      180.000000        9.634257         2
         7        17        18        28     9        0.000000       -0.094185         3
         7        17        18        28     9      180.000000        0.049543         4
         8         7         6        21     9        0.000000       -0.428573         1
         8         7         6        21     9      180.000000        0.053458         2
         8         7         6        21     9        0.000000        0.471697         3
         8         7         6        21     9      180.000000       -0.066408         4
         8         7         6        22     9        0.000000       -0.428573         1
         8         7         6        22     9      180.000000        0.053458         2
         8         7         6        22     9        0.000000        0.471697         3
         8         7         6        22     9      180.000000       -0.066408         4
         8         7        12        11     9        0.000000        0.836364         1
         8         7        12        11     9      180.000000        0.817321         2
         8         7        12        11     9        0.000000        0.330545         3
         8         7        12        11     9      180.000000        0.353179         4
         8         7        12        13     9        0.000000       -0.662926         1
         8         7        12        13     9      180.000000       -1.006182         2
         8         7        12        13     9        0.000000        0.262500         3
         8         7        12        13     9      180.000000        0.131585         4
         8         7        12        27     9        0.000000       -0.752253         1
         8         7        12        27     9      180.000000       -0.074670         2
         8         7        12        27     9        0.000000        0.408015         3
         8         7        12        27     9      180.000000       -0.064236         4
         8         7        17        18     9        0.000000        0.730356         1
         8         7        17        18     9      180.000000        1.564060         2
         8         7        17        18     9        0.000000       -0.133833         3
         8         7        17        18     9      180.000000        0.574063         4
         8         9        10        23     9        0.000000       -1.403028         1
         8         9        10        23     9      180.000000        8.630070         2
         8         9        10        23     9        0.000000       -0.077801         3
         8         9        10        23     9      180.000000       -0.551749         4
         8         9        10        24     9        0.000000       -1.403028         1
         8         9        10        24     9      180.000000        8.630070         2
         8         9        10        24     9        0.000000       -0.077801         3
         8         9        10        24     9      180.000000       -0.551749         4
         8         9        11        12     9        0.000000       -1.219214         1
         8         9        11        12     9      180.000000       10.167472         2
         8         9        11        12     9        0.000000       -0.834742         3
         8         9        11        12     9      180.000000       -1.146198         4
         8         9        11        25     9        0.000000       -0.135687         1
         8         9        11        25     9      180.000000       -0.134721         2
         8         9        11        25     9        0.000000       -0.336311         3
         8         9        11        25     9      180.000000        0.343367         4
         8         9        11        26     9        0.000000       -0.135687         1
         8         9        11        26     9      180.000000       -0.134721         2
         8         9        11        26     9        0.000000       -0.336311         3
         8         9        11        26     9      180.000000        0.343367         4
         9         8         7        12     9        0.000000       -3.160222         1
         9         8         7        12     9      180.000000        1.840790         2
         9         8         7        12     9        0.000000       -0.343905         3
         9         8         7        12     9      180.000000        0.320122         4
         9         8         7        17     9        0.000000       -1.578400         1
         9         8         7        17     9      180.000000        1.251926         2
         9         8         7        17     9        0.000000       -0.118952         3
         9         8         7        17     9      180.000000        0.455005         4
         9        11        12        13     9        0.000000       -0.056905         1
         9        11        12        13     9      180.000000       -0.227156         2
         9        11        12        13     9        0.000000        0.034180         3
         9        11        12        13     9      180.000000        0.004801         4
         9        11        12        27     9        0.000000       -0.288415         1
         9        11        12        27     9      180.000000       -0.122488         2
         9        11        12        27     9        0.000000        0.206652         3
         9        11        12        27     9      180.000000        0.081871         4
        10         9         8        48     9        0.000000       -0.378416         1
        10         9         8        48     9      180.000000       11.224522         2
        10         9         8        48     9        0.000000        0.172182         3
        10         9         8        48     9      180.000000       -0.508055         4
        10         9        11        12     9        0.000000        0.987736         1
        10         9        11        12     9      180.000000        3.071488         2
        10         9        11        12     9        0.000000        0.172900         3
        10         9        11        12     9      180.000000        0.270934         4
        10         9        11        25     9        0.000000       -0.119965         1
        10         9        11        25     9      180.000000        0.002389         2
        10         9        11        25     9        0.000000       -0.048111         3
        10         9        11        25     9      180.000000        0.097269         4
        10         9        11        26     9        0.000000       -0.119965         1
        10         9        11        26     9      180.000000        0.002389         2
        10         9        11        26     9        0.000000       -0.048111         3
        10         9        11        26     9      180.000000        0.097269         4
        11         9         8        48     9        0.000000       -0.895995         1
        11         9         8        48     9      180.000000       10.677343         2
        11         9         8        48     9        0.000000        0.247212         3
        11         9         8        48     9      180.000000       -0.356967         4
        11         9        10        23     9        0.000000       -0.122108         1
        11         9        10        23     9      180.000000        8.099741         2
        11         9        10        23     9        0.000000        0.752080         3
        11         9        10        23     9      180.000000       -0.593511         4
        11         9        10        24     9        0.000000       -0.122108         1
        11         9        10        24     9      180.000000        8.099741         2
        11         9        10        24     9        0.000000        0.752080         3
        11         9        10        24     9      180.000000       -0.593511         4
        11        12         7        17     9        0.000000        0.934491         1
        11        12         7        17     9      180.000000        0.685717         2
        11        12         7        17     9        0.000000        0.369860         3
        11        12         7        17     9      180.000000        0.333193         4
        11        12        13        14     9        0.000000       -0.170871         1
        11        12        13        14     9      180.000000        0.160059         2
        11        12        13        14     9        0.000000        0.432499         3
        11        12        13        14     9      180.000000       -0.008100         4
        11        12        13        15     9        0.000000       -0.170871         1
        11        12        13        15     9      180.000000        0.160059         2
        11        12        13        15     9        0.000000        0.432499         3
        11        12        13        15     9      180.000000       -0.008100         4
        11        12        13        16     9        0.000000       -0.170871         1
        11        12        13        16     9      180.000000        0.160059         2
        11        12        13        16     9        0.000000        0.432499         3
        11        12        13        16     9      180.000000       -0.008100         4
        12         7         6        21     9        0.000000       -0.136953         1
        12         7         6        21     9      180.000000       -0.064280         2
        12         7         6        21     9        0.000000        0.251797         3
        12         7         6        21     9      180.000000        0.006043         4
        12         7         6        22     9        0.000000       -0.136953         1
        12         7         6        22     9      180.000000       -0.064280         2
        12         7         6        22     9        0.000000        0.251797         3
        12         7         6        22     9      180.000000        0.006043         4
        12         7         8        48     9        0.000000        0.014956         1
        12         7         8        48     9      180.000000        0.279809         2
        12         7         8        48     9        0.000000       -0.000502         3
        12         7         8        48     9      180.000000       -0.006464         4
        12         7        17        18     9        0.000000        0.631612         1
        12         7        17        18     9      180.000000        1.488987         2
        12         7        17        18     9        0.000000       -0.251346         3
        12         7        17        18     9      180.000000        0.768103         4
        13        12         7        17     9        0.000000        3.229886         1
        13        12         7        17     9      180.000000       -0.577232         2
        13        12         7        17     9        0.000000        0.477314         3
        13        12         7        17     9      180.000000        0.274479         4
        13        12        11        25     9        0.000000        0.000103         1
        13        12        11        25     9      180.000000       -0.063732         2
        13        12        11        25     9        0.000000        0.183956         3
        13        12        11        25     9      180.000000        0.000258         4
        13        12        11        26     9        0.000000        0.000103         1
        13        12        11        26     9      180.000000       -0.063732         2
        13        12        11        26     9        0.000000        0.183956         3
        13        12        11        26     9      180.000000        0.000258         4
        14        13        12        27     9        0.000000        0.065432         1
        14        13        12        27     9      180.000000        0.006006         2
        14        13        12        27     9        0.000000        0.465363         3
        14        13        12        27     9      180.000000       -0.035008         4
        15        13        12        27     9        0.000000        0.065432         1
        15        13        12        27     9      180.000000        0.006006         2
        15        13        12        27     9        0.000000        0.465363         3
        15        13        12        27     9      180.000000       -0.035008         4
        16        13        12        27     9        0.000000        0.065432         1
        16        13        12        27     9      180.000000        0.006006         2
        16        13        12        27     9        0.000000        0.465363         3
        16        13        12        27     9      180.000000       -0.035008         4
        17         4         3        20     9        0.000000        0.082417         1
        17         4         3        20     9      180.000000       12.746122         2
        17         4         3        20     9        0.000000       -0.727458         3
        17         4         3        20     9      180.000000       -0.073265         4
        17         7         6        21     9        0.000000       -0.159519         1
        17         7         6        21     9      180.000000        0.072757         2
        17         7         6        21     9        0.000000        0.600081         3
        17         7         6        21     9      180.000000       -0.052846         4
        17         7         6        22     9        0.000000       -0.159519         1
        17         7         6        22     9      180.000000        0.072757         2
        17         7         6        22     9        0.000000        0.600081         3
        17         7         6        22     9      180.000000       -0.052846         4
        17         7         8        48     9        0.000000        1.206814         1
        17         7         8        48     9      180.000000        0.773821         2
        17         7         8        48     9        0.000000       -0.019330         3
        17         7         8        48     9      180.000000        0.097022         4
        17         7        12        27     9        0.000000        0.189860         1
        17         7        12        27     9      180.000000        0.162409         2
        17         7        12        27     9        0.000000        0.457336         3
        17         7        12        27     9      180.000000       -0.039192         4
        17        18         1        32     9        0.000000        0.075105         1
        17        18         1        32     9      180.000000       17.620286         2
        17        18         1        32     9        0.000000       -0.180033         3
        17        18         1        32     9      180.000000       -0.638084         4
        18         1         2        19     9        0.000000       -0.139075         1
        18         1         2        19     9      180.000000       14.576044         2
        18         1         2        19     9        0.000000       -0.837476         3
        18         1         2        19     9      180.000000        0.052712         4
        18         1        32        31     9        0.000000       -0.087566         1
        18         1        32        31     9      180.000000        2.784071         2
        18         1        32        31     9        0.000000        0.072696         3
        18         1        32        31     9      180.000000       -0.219474         4
        18         1        32        33     9        0.000000       -0.017851         1
        18         1        32        33     9      180.000000        3.169686         2
        18         1        32        33     9        0.000000        0.031965         3
        18         1        32        33     9      180.000000       -0.159689         4
        19         2         1        32     9        0.000000       -0.107810         1
        19         2         1        32     9      180.000000       13.455836         2
        19         2         1        32     9        0.000000       -0.303594         3
        19         2         1        32     9      180.000000        0.125646         4
        19         2         3        20     9        0.000000       -0.153959         1
        19         2         3        20     9      180.000000       12.072661         2
        19         2         3        20     9        0.000000       -0.737742         3
        19         2         3        20     9      180.000000        0.302616         4
        25        11        12        27     9        0.000000        0.095245         1
        25        11        12        27     9      180.000000        0.098351         2
        25        11        12        27     9        0.000000        0.419638         3
        25        11        12        27     9      180.000000       -0.067379         4
        26        11        12        27     9        0.000000        0.095245         1
        26        11        12        27     9      180.000000        0.098351         2
        26        11        12        27     9        0.000000        0.419638         3
        26        11        12        27     9      180.000000       -0.067379         4
        28        18         1        32     9        0.000000       -0.132239         1
        28        18         1        32     9      180.000000       12.817463         2
        28        18         1        32     9        0.000000       -0.223820         3
        28        18         1        32     9      180.000000        0.084441         4
        29        30        31        32     9        0.000000        0.147846         1
        29        30        31        32     9      180.000000       22.109379         2
        29        30        31        32     9        0.000000       -0.673126         3
        29        30        31        32     9      180.000000       -0.156510         4
        29        30        31        36     9        0.000000        1.109065         1
        29        30        31        36     9      180.000000       20.418994         2
        29        30        31        36     9        0.000000        0.144737         3
        29        30        31        36     9      180.000000       -0.216077         4
        29        34        33        32     9        0.000000        0.063953         1
        29        34        33        32     9      180.000000       17.579930         2
        29        34        33        32     9        0.000000       -1.715249         3
        29        34        33        32     9      180.000000       -0.415780         4
        29        34        33        37     9        0.000000        0.036487         1
        29        34        33        37     9      180.000000       13.641212         2
        29        34        33        37     9        0.000000       -0.663224         3
        29        34        33        37     9      180.000000        0.160693         4
        29        34        38        39     9        0.000000        0.000000         1
        29        34        38        39     9      180.000000        0.000000         2
        29        34        38        39     9        0.000000        0.000000         3
        29        34        38        39     9      180.000000        0.000000         4
        30        29        34        33     9        0.000000       -0.062562         1
        30        29        34        33     9      180.000000       15.377005         2
        30        29        34        33     9        0.000000       -0.713332         3
        30        29        34        33     9      180.000000       -0.297839         4
        30        29        34        38     9        0.000000       -0.236949         1
        30        29        34        38     9      180.000000       16.302635         2
        30        29        34        38     9        0.000000       -0.084297         3
        30        29        34        38     9      180.000000       -0.566602         4
        30        31        32        33     9        0.000000       -0.031392         1
        30        31        32        33     9      180.000000       16.243317         2
        30        31        32        33     9        0.000000       -0.610973         3
        30        31        32        33     9      180.000000       -0.289938         4
        31        30        29        34     9        0.000000        0.031099         1
        31        30        29        34     9      180.000000       22.767646         2
        31        30        29        34     9        0.000000       -0.606207         3
        31        30        29        34     9      180.000000       -0.194331         4
        31        30        29        35     9        0.000000        0.935399         1
        31        30        29        35     9      180.000000       20.643880         2
        31        30        29        35     9        0.000000        0.242162         3
        31        30        29        35     9      180.000000       -0.341788         4
        31        32        33        34     9        0.000000       -0.292664         1
        31        32        33        34     9      180.000000       17.870101         2
        31        32        33        34     9        0.000000       -1.761968         3
        31        32        33        34     9      180.000000       -0.420089         4
        31        32        33        37     9        0.000000       -0.064051         1
        31        32        33        37     9      180.000000       13.567393         2
        31        32        33        37     9        0.000000       -0.662192         3
        31        32        33        37     9      180.000000        0.120131         4
        32        33        34        38     9        0.000000        0.105952         1
        32        33        34        38     9      180.000000       17.968584         2
        32        33        34        38     9        0.000000       -0.123761         3
        32        33        34        38     9      180.000000       -0.505157         4
        33        32        31        36     9        0.000000       -0.133480         1
        33        32        31        36     9      180.000000       13.046934         2
        33        32        31        36     9        0.000000       -0.390769         3
        33        32        31        36     9      180.000000        0.083513         4
        33        34        29        35     9        0.000000       -0.064670         1
        33        34        29        35     9      180.000000       12.686490         2
        33        34        29        35     9        0.000000       -0.367201         3
        33        34        29        35     9      180.000000        0.029073         4
        33        34        38        39     9        0.000000        0.000000         1
        33        34        38        39     9      180.000000        0.000000         2
        33        34        38        39     9        0.000000        0.000000         3
        33        34        38        39     9      180.000000        0.000000         4
        34        38        39        40     9        0.000000        0.000000         1
        34        38        39        40     9      180.000000        0.000000         2
        34        38        39        40     9        0.000000        0.000000         3
        34        38        39        40     9      180.000000        0.000000         4
        35        29        34        38     9        0.000000        0.040861         1
        35        29        34        38     9      180.000000       13.519657         2
        35        29        34        38     9        0.000000       -0.163809         3
        35        29        34        38     9      180.000000        0.138278         4
        37        33        34        38     9        0.000000        0.014019         1
        37        33        34        38     9      180.000000       13.866028         2
        37        33        34        38     9        0.000000       -0.281507         3
        37        33        34        38     9      180.000000        0.183450         4
        38        39        40        41     9        0.000000        0.000000         1
        38        39        40        41     9      180.000000        0.000000         2
        38        39        40        41     9        0.000000        0.000000         3
        38        39        40        41     9      180.000000        0.000000         4
        38        39        40        42     9        0.000000        0.000000         1
        38        39        40        42     9      180.000000        0.000000         2
        38        39        40        42     9        0.000000        0.000000         3
        38        39        40        42     9      180.000000        0.000000         4
        38        39        40        43     9        0.000000        0.000000         1
        38        39        40        43     9      180.000000        0.000000         2
        38        39        40        43     9        0.000000        0.000000         3
        38        39        40        43     9      180.000000        0.000000         4
        39        40        43        44     9        0.000000       -3.066517         1
        39        40        43        44     9      180.000000        0.338148         2
        39        40        43        44     9        0.000000        1.284591         3
        39        40        43        44     9      180.000000        0.015062         4
        40        43        44        45     9        0.000000        0.061681         1
        40        43        44        45     9      180.000000        0.053340         2
        40        43        44        45     9        0.000000        1.059448         3
        40        43        44        45     9      180.000000        0.025154         4
        40        43        44        46     9        0.000000        0.061681         1
        40        43        44        46     9      180.000000        0.053340         2
        40        43        44        46     9        0.000000        1.059448         3
        40        43        44        46     9      180.000000        0.025154         4
        40        43        44        47     9        0.000000        0.061681         1
        40        43        44        47     9      180.000000        0.053340         2
        40        43        44        47     9        0.000000        1.059448         3
        40        43        44        47     9      180.000000        0.025154         4
        41        40        43        44     9        0.000000        0.233888         1
        41        40        43        44     9      180.000000        0.288587         2
        41        40        43        44     9        0.000000        1.405734         3
        41        40        43        44     9      180.000000        0.105322         4
        42        40        43        44     9        0.000000        0.233888         1
        42        40        43        44     9      180.000000        0.288587         2
        42        40        43        44     9        0.000000        1.405734         3
        42        40        43        44     9      180.000000        0.105322         4

[ dihedrals ] ; impropers
;       ai        aj        ak        al funct           phase               k        pn
         9         8        10        11     4      180.000000       16.040925         2
         9        10        11         8     4      180.000000       16.040925         2
         9        11         8        10     4      180.000000       16.040925         2
        29        30        34        35     4      180.000000        6.084561         2
        29        34        35        30     4      180.000000        6.084561         2
        29        35        30        34     4      180.000000        6.084561         2
        31        30        32        36     4      180.000000        2.515704         2
        31        32        36        30     4      180.000000        2.515704         2
        31        36        30        32     4      180.000000        2.515704         2

[ pairs ]
;       ai        aj funct
         1         4     1
         1         7     1
         1        20     1
         1        30     1
         1        34     1
         1        36     1
         1        37     1
         2         5     1
         2        17     1
         2        28     1
         2        31     1
         2        33     1
         3         6     1
         3         7     1
         3        18     1
         3        32     1
         4         8     1
         4        12     1
         4        19     1
         4        21     1
         4        22     1
         4        28     1
         5         8     1
         5        12     1
         5        18     1
         5        20     1
         6         9     1
         6        11     1
         6        13     1
         6        18     1
         6        27     1
         6        48     1
         7        10     1
         7        14     1
         7        15     1
         7        16     1
         7        25     1
         7        26     1
         7        28     1
         8        13     1
         8        18     1
         8        21     1
         8        22     1
         8        23     1
         8        24     1
         8        25     1
         8        26     1
         8        27     1
         9        13     1
         9        17     1
         9        27     1
        10        12     1
        10        25     1
        10        26     1
        10        48     1
        11        14     1
        11        15     1
        11        16     1
        11        17     1
        11        23     1
        11        24     1
        11        48     1
        12        18     1
        12        21     1
        12        22     1
        12        48     1
        13        17     1
        13        25     1
        13        26     1
        14        27     1
        15        27     1
        16        27     1
        17        20     1
        17        21     1
        17        22     1
        17        27     1
        17        32     1
        17        48     1
        18        19     1
        18        31     1
        18        33     1
        19        20     1
        19        32     1
        25        27     1
        26        27     1
        28        32     1
        29        32     1
        29        36     1
        29        37     1
        29        39     1
        30        33     1
        30        38     1
        31        34     1
        31        35     1
        31        37     1
        32        38     1
        33        35     1
        33        36     1
        33        39     1
        34        40     1
        35        38     1
        37        38     1
        38        41     1
        38        42     1
        38        43     1
        39        44     1
        40        45     1
        40        46     1
        40        47     1
        41        44     1
        42        44     1
