; ITP file created by ByteFF-joint-25, 2025-07-14 11:36:39.237452

[ atomtypes ]
;name           bonded.type        at.num        mass        charge   ptype           sigma         epsilon
 c0bf                                   6      0.0000       0.00000       A     3.31526e-01     4.13310e-01    ;  uncertainty sigma = 0.000007, epsilon = 0.000873
 c1bf                                   6      0.0000       0.00000       A     3.31522e-01     4.13398e-01    ;  uncertainty sigma = 0.000005, epsilon = 0.000601
 c2bf                                   6      0.0000       0.00000       A     3.31522e-01     4.13398e-01    ;  uncertainty sigma = 0.000005, epsilon = 0.000601
 c3bf                                   6      0.0000       0.00000       A     3.31514e-01     4.13399e-01    ;  uncertainty sigma = 0.000002, epsilon = 0.000482
 c4bf                                   6      0.0000       0.00000       A     3.31514e-01     4.13399e-01    ;  uncertainty sigma = 0.000002, epsilon = 0.000482
 c5bf                                   6      0.0000       0.00000       A     3.31540e-01     4.13321e-01    ;  uncertainty sigma = 0.000005, epsilon = 0.001033
 c6bf                                   6      0.0000       0.00000       A     3.31522e-01     4.13377e-01    ;  uncertainty sigma = 0.000016, epsilon = 0.000626
 c7bf                                   6      0.0000       0.00000       A     3.31527e-01     4.13260e-01    ;  uncertainty sigma = 0.000014, epsilon = 0.001138
 c8bf                                   6      0.0000       0.00000       A     3.39762e-01     4.50673e-01    ;  uncertainty sigma = 0.000011, epsilon = 0.001255
 c9bf                                   6      0.0000       0.00000       A     3.39750e-01     4.50544e-01    ;  uncertainty sigma = 0.000007, epsilon = 0.000791
 c10bf                                  6      0.0000       0.00000       A     3.31517e-01     4.13350e-01    ;  uncertainty sigma = 0.000003, epsilon = 0.000541
 c11bf                                  6      0.0000       0.00000       A     3.31519e-01     4.13304e-01    ;  uncertainty sigma = 0.000003, epsilon = 0.000583
 c12bf                                  6      0.0000       0.00000       A     3.31519e-01     4.13304e-01    ;  uncertainty sigma = 0.000003, epsilon = 0.000583
 o13bf                                  8      0.0000       0.00000       A     3.24257e-01     3.88598e-01    ;  uncertainty sigma = 0.000013, epsilon = 0.001596
 c14bf                                  6      0.0000       0.00000       A     3.31516e-01     4.13349e-01    ;  uncertainty sigma = 0.000011, epsilon = 0.000874
 c15bf                                  6      0.0000       0.00000       A     3.31502e-01     4.13579e-01    ;  uncertainty sigma = 0.000011, epsilon = 0.000388
 c16bf                                  6      0.0000       0.00000       A     3.31519e-01     4.13331e-01    ;  uncertainty sigma = 0.000003, epsilon = 0.000569
 c17bf                                  6      0.0000       0.00000       A     3.31517e-01     4.13350e-01    ;  uncertainty sigma = 0.000003, epsilon = 0.000541
 c18bf                                  6      0.0000       0.00000       A     3.31542e-01     4.12960e-01    ;  uncertainty sigma = 0.000004, epsilon = 0.000669
 n19bf                                  7      0.0000       0.00000       A     3.38417e-01     3.93373e-01    ;  uncertainty sigma = 0.000016, epsilon = 0.001202
 n20bf                                  7      0.0000       0.00000       A     3.38417e-01     3.93426e-01    ;  uncertainty sigma = 0.000018, epsilon = 0.000868
 n21bf                                  7      0.0000       0.00000       A     3.27787e-01     6.48850e-01    ;  uncertainty sigma = 0.000034, epsilon = 0.002592
 h22bf                                  1      0.0000       0.00000       A     2.62565e-01     6.70447e-02    ;  uncertainty sigma = 0.000011, epsilon = 0.000506
 h23bf                                  1      0.0000       0.00000       A     2.62565e-01     6.70447e-02    ;  uncertainty sigma = 0.000011, epsilon = 0.000506
 h24bf                                  1      0.0000       0.00000       A     2.62563e-01     6.71232e-02    ;  uncertainty sigma = 0.000008, epsilon = 0.000477
 h25bf                                  1      0.0000       0.00000       A     2.62541e-01     6.69041e-02    ;  uncertainty sigma = 0.000018, epsilon = 0.000969
 h26bf                                  1      0.0000       0.00000       A     2.42232e-01     8.67796e-02    ;  uncertainty sigma = 0.000037, epsilon = 0.000692
 h27bf                                  1      0.0000       0.00000       A     2.42232e-01     8.67796e-02    ;  uncertainty sigma = 0.000037, epsilon = 0.000692
 h28bf                                  1      0.0000       0.00000       A     2.42260e-01     8.69504e-02    ;  uncertainty sigma = 0.000011, epsilon = 0.000481
 h29bf                                  1      0.0000       0.00000       A     2.62558e-01     6.70324e-02    ;  uncertainty sigma = 0.000010, epsilon = 0.000442
 h30bf                                  1      0.0000       0.00000       A     2.62562e-01     6.70739e-02    ;  uncertainty sigma = 0.000004, epsilon = 0.000538
 h31bf                                  1      0.0000       0.00000       A     2.62562e-01     6.70739e-02    ;  uncertainty sigma = 0.000004, epsilon = 0.000538
 h32bf                                  1      0.0000       0.00000       A     5.38011e-02     1.91837e-02    ;  uncertainty sigma = 0.000073, epsilon = 0.000888
 h33bf                                  1      0.0000       0.00000       A     2.44735e-01     6.71447e-02    ;  uncertainty sigma = 0.000026, epsilon = 0.000712
 h34bf                                  1      0.0000       0.00000       A     2.62552e-01     6.70645e-02    ;  uncertainty sigma = 0.000011, epsilon = 0.000453
 h35bf                                  1      0.0000       0.00000       A     2.62558e-01     6.70324e-02    ;  uncertainty sigma = 0.000010, epsilon = 0.000442
 h36bf                                  1      0.0000       0.00000       A     1.10591e-01     4.16159e-02    ;  uncertainty sigma = 0.000130, epsilon = 0.000719
 h37bf                                  1      0.0000       0.00000       A     2.62563e-01     6.71232e-02    ;  uncertainty sigma = 0.000008, epsilon = 0.000477
 c38bf                                  6      0.0000       0.00000       A     3.39794e-01     4.50763e-01    ;  uncertainty sigma = 0.000008, epsilon = 0.001831
 h39bf                                  1      0.0000       0.00000       A     2.59973e-01     8.74005e-02    ;  uncertainty sigma = 0.000053, epsilon = 0.001245
 h40bf                                  1      0.0000       0.00000       A     2.59973e-01     8.74006e-02    ;  uncertainty sigma = 0.000053, epsilon = 0.001245
 c41bf                                  6      0.0000       0.00000       A     3.47919e-01     6.69611e-01    ;  uncertainty sigma = 0.000026, epsilon = 0.002690
 n42bf                                  7      0.0000       0.00000       A     3.27269e-01     4.58073e-01    ;  uncertainty sigma = 0.000025, epsilon = 0.002164

[ moleculetype ]
;name             nrexcl
 MOL                   3

[ atoms ]
;       nr            type      resi   res      atom      cgnr      charge          mass ; qtot
         1            c0bf         1   UNL        c0         1    -0.16523       12.0110 ; qtot   -0.165
         2            c1bf         1   UNL        c1         2    -0.09236       12.0110 ; qtot   -0.258
         3            c2bf         1   UNL        c2         3    -0.09236       12.0110 ; qtot   -0.350
         4            c3bf         1   UNL        c3         4    -0.11528       12.0110 ; qtot   -0.465
         5            c4bf         1   UNL        c4         5    -0.11528       12.0110 ; qtot   -0.581
         6            c5bf         1   UNL        c5         6    -0.08574       12.0110 ; qtot   -0.666
         7            c6bf         1   UNL        c6         7     0.53317       12.0110 ; qtot   -0.133
         8            c7bf         1   UNL        c7         8    -0.42197       12.0110 ; qtot   -0.555
         9            c8bf         1   UNL        c8         9     0.20508       12.0110 ; qtot   -0.350
        10            c9bf         1   UNL        c9        10     0.17238       12.0110 ; qtot   -0.178
        11           c10bf         1   UNL       c10        11    -0.13212       12.0110 ; qtot   -0.310
        12           c11bf         1   UNL       c11        12    -0.11431       12.0110 ; qtot   -0.424
        13           c12bf         1   UNL       c12        13    -0.11431       12.0110 ; qtot   -0.538
        14           o13bf         1   UNL       o13        14    -0.60202       15.9990 ; qtot   -1.140
        15           c14bf         1   UNL       c14        15     0.69818       12.0110 ; qtot   -0.442
        16           c15bf         1   UNL       c15        16     0.68025       12.0110 ; qtot    0.238
        17           c16bf         1   UNL       c16        17    -0.12191       12.0110 ; qtot    0.116
        18           c17bf         1   UNL       c17        18    -0.13212       12.0110 ; qtot   -0.016
        19           c18bf         1   UNL       c18        19    -0.11806       12.0110 ; qtot   -0.134
        20           n19bf         1   UNL       n19        20    -0.77724       14.0070 ; qtot   -0.911
        21           n20bf         1   UNL       n20        21    -0.73455       14.0070 ; qtot   -1.646
        22           n21bf         1   UNL       n21        22    -0.87199       14.0070 ; qtot   -2.518
        23           h22bf         1   UNL       h22        23     0.14253        1.0080 ; qtot   -2.375
        24           h23bf         1   UNL       h23        24     0.14253        1.0080 ; qtot   -2.233
        25           h24bf         1   UNL       h24        25     0.14147        1.0080 ; qtot   -2.091
        26           h25bf         1   UNL       h25        26     0.15255        1.0080 ; qtot   -1.939
        27           h26bf         1   UNL       h26        27     0.06384        1.0080 ; qtot   -1.875
        28           h27bf         1   UNL       h27        28     0.06384        1.0080 ; qtot   -1.811
        29           h28bf         1   UNL       h28        29     0.05801        1.0080 ; qtot   -1.753
        30           h29bf         1   UNL       h29        30     0.13206        1.0080 ; qtot   -1.621
        31           h30bf         1   UNL       h30        31     0.13699        1.0080 ; qtot   -1.484
        32           h31bf         1   UNL       h31        32     0.13699        1.0080 ; qtot   -1.347
        33           h32bf         1   UNL       h32        33     0.41310        1.0080 ; qtot   -0.934
        34           h33bf         1   UNL       h33        34     0.05077        1.0080 ; qtot   -0.883
        35           h34bf         1   UNL       h34        35     0.13198        1.0080 ; qtot   -0.751
        36           h35bf         1   UNL       h35        36     0.13206        1.0080 ; qtot   -0.619
        37           h36bf         1   UNL       h36        37     0.44064        1.0080 ; qtot   -0.178
        38           h37bf         1   UNL       h37        38     0.14147        1.0080 ; qtot   -0.037
        39           c38bf         1   UNL       c38        39     0.03500       12.0110 ; qtot   -0.002
        40           h39bf         1   UNL       h39        40     0.08119        1.0080 ; qtot    0.079
        41           h40bf         1   UNL       h40        41     0.08119        1.0080 ; qtot    0.160
        42           c41bf         1   UNL       c41        42     0.20734       12.0110 ; qtot    0.368
        43           n42bf         1   UNL       n42        43    -0.36776       14.0070 ; qtot   -0.000

[ bonds ]
;       ai        aj funct               r               k
         1         2     1        0.139925   344595.710938    ;  uncertainty r = 0.000023, k = 1.725979
         1         3     1        0.139925   344595.710938    ;  uncertainty r = 0.000023, k = 1.725979
         1         7     1        0.147358   259046.113623    ;  uncertainty r = 0.000071, k = 4.895327
         2         4     1        0.139258   362638.266064    ;  uncertainty r = 0.000053, k = 2.986953
         2        23     1        0.108738   333760.775098    ;  uncertainty r = 0.000025, k = 0.858893
         3         5     1        0.139258   362638.266064    ;  uncertainty r = 0.000053, k = 2.986953
         3        24     1        0.108738   333760.775098    ;  uncertainty r = 0.000025, k = 0.858893
         4         6     1        0.139646   356361.167969    ;  uncertainty r = 0.000029, k = 3.349116
         4        38     1        0.108868   333514.035547    ;  uncertainty r = 0.000015, k = 0.741388
         5         6     1        0.139646   356361.167969    ;  uncertainty r = 0.000029, k = 3.349116
         5        25     1        0.108868   333514.035547    ;  uncertainty r = 0.000015, k = 0.741388
         6        39     1        0.151964   234840.841113    ;  uncertainty r = 0.000026, k = 8.978906
         7         8     1        0.140357   429023.948242    ;  uncertainty r = 0.000060, k = 9.933427
         7        21     1        0.135611   395589.028125    ;  uncertainty r = 0.000033, k = 7.990345
         8        15     1        0.142200   437085.145410    ;  uncertainty r = 0.000074, k = 7.312812
         8        26     1        0.108982   347697.397168    ;  uncertainty r = 0.000060, k = 3.509310
         9        10     1        0.153528   198932.485962    ;  uncertainty r = 0.000113, k = 4.485541
         9        22     1        0.144360   258703.533301    ;  uncertainty r = 0.000127, k = 5.188267
         9        27     1        0.109548   306948.010498    ;  uncertainty r = 0.000056, k = 1.476386
         9        28     1        0.109548   306948.010498    ;  uncertainty r = 0.000056, k = 1.476386
        10        14     1        0.143014   262792.254346    ;  uncertainty r = 0.000086, k = 14.622904
        10        19     1        0.151556   222180.461621    ;  uncertainty r = 0.000089, k = 7.017739
        10        29     1        0.109828   303256.263818    ;  uncertainty r = 0.000046, k = 1.650587
        11        12     1        0.139619   365954.387402    ;  uncertainty r = 0.000008, k = 1.292992
        11        17     1        0.139616   371124.732715    ;  uncertainty r = 0.000020, k = 1.036768
        11        30     1        0.108853   334096.639160    ;  uncertainty r = 0.000011, k = 0.985251
        12        19     1        0.139806   351916.766064    ;  uncertainty r = 0.000010, k = 1.187834
        12        31     1        0.108853   333813.534766    ;  uncertainty r = 0.000015, k = 0.555194
        13        18     1        0.139619   365954.387402    ;  uncertainty r = 0.000008, k = 1.292992
        13        19     1        0.139806   351916.766064    ;  uncertainty r = 0.000010, k = 1.187834
        13        32     1        0.108853   333813.534766    ;  uncertainty r = 0.000015, k = 0.555194
        14        33     1        0.097118   460583.525195    ;  uncertainty r = 0.000045, k = 3.102113
        15        20     1        0.135563   598530.699805    ;  uncertainty r = 0.000139, k = 9.101913
        15        22     1        0.139244   503022.932227    ;  uncertainty r = 0.000156, k = 11.982701
        16        20     1        0.134248   427021.200439    ;  uncertainty r = 0.000126, k = 12.560964
        16        21     1        0.133902   409960.291797    ;  uncertainty r = 0.000038, k = 12.892596
        16        34     1        0.108823   332455.624512    ;  uncertainty r = 0.000016, k = 3.398046
        17        18     1        0.139616   371124.758252    ;  uncertainty r = 0.000020, k = 1.036768
        17        35     1        0.108851   334582.457129    ;  uncertainty r = 0.000012, k = 0.680670
        18        36     1        0.108853   334096.639160    ;  uncertainty r = 0.000011, k = 0.985251
        22        37     1        0.101725   420522.644531    ;  uncertainty r = 0.000069, k = 3.098785
        39        40     1        0.109670   311518.565723    ;  uncertainty r = 0.000074, k = 1.728312
        39        41     1        0.109670   311518.565723    ;  uncertainty r = 0.000074, k = 1.728312
        39        42     1        0.147330   285278.802783    ;  uncertainty r = 0.000070, k = 7.911791
        42        43     1        0.116397  1136419.141016    ;  uncertainty r = 0.000026, k = 3.379006

[ angles ]
;       ai        aj        ak funct           theta             cth
         1         2         4     1      121.417313      517.053365    ;  uncertainty theta = 0.002615, k = 0.074483
         1         2        23     1      118.129318      268.641070    ;  uncertainty theta = 0.002600, k = 0.084821
         1         3         5     1      121.417313      517.053365    ;  uncertainty theta = 0.002615, k = 0.074483
         1         3        24     1      118.129318      268.641070    ;  uncertainty theta = 0.002600, k = 0.084821
         1         7         8     1      121.275345      400.183678    ;  uncertainty theta = 0.004835, k = 0.200612
         1         7        21     1      118.125450      474.639450    ;  uncertainty theta = 0.004380, k = 0.158069
         2         1         3     1      120.750572      434.561000    ;  uncertainty theta = 0.002896, k = 0.111825
         2         1         7     1      118.173607      398.289878    ;  uncertainty theta = 0.002618, k = 0.091395
         2         4         6     1      120.824951      515.011290    ;  uncertainty theta = 0.001847, k = 0.046588
         2         4        38     1      119.998253      286.935887    ;  uncertainty theta = 0.001689, k = 0.023260
         3         1         7     1      118.173607      398.289878    ;  uncertainty theta = 0.002618, k = 0.091395
         3         5         6     1      120.824951      515.011290    ;  uncertainty theta = 0.001847, k = 0.046588
         3         5        25     1      119.998253      286.935887    ;  uncertainty theta = 0.001689, k = 0.023260
         4         2        23     1      120.059227      288.257209    ;  uncertainty theta = 0.001749, k = 0.030764
         4         6         5     1      119.252846      464.316233    ;  uncertainty theta = 0.001061, k = 0.058660
         4         6        39     1      119.555130      431.288898    ;  uncertainty theta = 0.002693, k = 0.104563
         5         3        24     1      120.059227      288.257209    ;  uncertainty theta = 0.001749, k = 0.030764
         5         6        39     1      119.555130      431.288898    ;  uncertainty theta = 0.002693, k = 0.104563
         6         4        38     1      119.033951      276.746676    ;  uncertainty theta = 0.002031, k = 0.093643
         6         5        25     1      119.033951      276.746676    ;  uncertainty theta = 0.002031, k = 0.093643
         6        39        40     1      108.735680      396.029588    ;  uncertainty theta = 0.001783, k = 0.112437
         6        39        41     1      108.735680      396.029588    ;  uncertainty theta = 0.001783, k = 0.112437
         6        39        42     1      110.884499      525.133785    ;  uncertainty theta = 0.001860, k = 0.125873
         7         8        15     1      117.428635      475.948802    ;  uncertainty theta = 0.006126, k = 0.293116
         7         8        26     1      122.128296      274.759410    ;  uncertainty theta = 0.001743, k = 0.182090
         7        21        16     1      114.127541      411.796678    ;  uncertainty theta = 0.005142, k = 0.196568
         8         7        21     1      121.760033      596.370797    ;  uncertainty theta = 0.004085, k = 0.124608
         8        15        20     1      120.465775      559.577504    ;  uncertainty theta = 0.004274, k = 0.131688
         8        15        22     1      124.405197      635.166262    ;  uncertainty theta = 0.005407, k = 0.116906
         9        10        14     1      108.648598      745.773101    ;  uncertainty theta = 0.001850, k = 0.090465
         9        10        19     1      111.675133      529.233800    ;  uncertainty theta = 0.002433, k = 0.102801
         9        10        29     1      107.655739      397.413157    ;  uncertainty theta = 0.001835, k = 0.063660
         9        22        15     1      115.022720      415.197008    ;  uncertainty theta = 0.003932, k = 0.139541
         9        22        37     1      111.930687      338.512452    ;  uncertainty theta = 0.006639, k = 0.093922
        10         9        22     1      109.072731      588.135334    ;  uncertainty theta = 0.003588, k = 0.076167
        10         9        27     1      108.264954      386.766225    ;  uncertainty theta = 0.001128, k = 0.087129
        10         9        28     1      108.264954      386.766225    ;  uncertainty theta = 0.001128, k = 0.087129
        10        14        33     1      107.778908      462.824962    ;  uncertainty theta = 0.002314, k = 0.060682
        10        19        12     1      119.990318      398.450314    ;  uncertainty theta = 0.001704, k = 0.122614
        10        19        13     1      119.990318      398.450314    ;  uncertainty theta = 0.001704, k = 0.122614
        11        12        19     1      120.930702      517.466172    ;  uncertainty theta = 0.001222, k = 0.047814
        11        12        31     1      120.258339      291.729553    ;  uncertainty theta = 0.002156, k = 0.015437
        11        17        18     1      118.312904      525.474865    ;  uncertainty theta = 0.001259, k = 0.033725
        11        17        35     1      120.606750      289.256635    ;  uncertainty theta = 0.001707, k = 0.007155
        12        11        17     1      119.668961      514.607037    ;  uncertainty theta = 0.000852, k = 0.027695
        12        11        30     1      120.182228      283.193264    ;  uncertainty theta = 0.001483, k = 0.023123
        12        19        13     1      120.620529      467.609435    ;  uncertainty theta = 0.001046, k = 0.044080
        13        18        17     1      119.668961      514.607037    ;  uncertainty theta = 0.000852, k = 0.027695
        13        18        36     1      120.182228      283.193264    ;  uncertainty theta = 0.001483, k = 0.023123
        14        10        19     1      111.132469      757.316130    ;  uncertainty theta = 0.001813, k = 0.056225
        14        10        29     1      107.460892      475.171803    ;  uncertainty theta = 0.003128, k = 0.059555
        15         8        26     1      122.820290      279.161624    ;  uncertainty theta = 0.002177, k = 0.088284
        15        20        16     1      114.208336      402.225401    ;  uncertainty theta = 0.007184, k = 0.116286
        15        22        37     1      114.952065      412.285969    ;  uncertainty theta = 0.001414, k = 0.081088
        17        11        30     1      120.593102      287.981121    ;  uncertainty theta = 0.001462, k = 0.008017
        17        18        36     1      120.593102      287.981121    ;  uncertainty theta = 0.001462, k = 0.008017
        18        13        19     1      120.930702      517.466172    ;  uncertainty theta = 0.001222, k = 0.047814
        18        13        32     1      120.258339      291.729553    ;  uncertainty theta = 0.002156, k = 0.015437
        18        17        35     1      120.606750      289.256635    ;  uncertainty theta = 0.001707, k = 0.007155
        19        10        29     1      107.338806      403.998379    ;  uncertainty theta = 0.003013, k = 0.110102
        19        12        31     1      118.778320      265.740150    ;  uncertainty theta = 0.001504, k = 0.035529
        19        13        32     1      118.778320      265.740150    ;  uncertainty theta = 0.001504, k = 0.035529
        20        15        22     1      122.203979      876.041727    ;  uncertainty theta = 0.006036, k = 0.092665
        20        16        21     1      127.365524      928.346068    ;  uncertainty theta = 0.002641, k = 0.109018
        20        16        34     1      115.958923      303.662438    ;  uncertainty theta = 0.004108, k = 0.062101
        21        16        34     1      116.290024      310.582675    ;  uncertainty theta = 0.004161, k = 0.066237
        22         9        27     1      106.848366      448.950650    ;  uncertainty theta = 0.001286, k = 0.079205
        22         9        28     1      106.848366      448.950650    ;  uncertainty theta = 0.001286, k = 0.079205
        27         9        28     1      106.681496      323.153860    ;  uncertainty theta = 0.001150, k = 0.024224
        39        42        43     1      180.000000      223.648593    ;  uncertainty theta = 0.000000, k = 0.662026
        40        39        41     1      105.077415      304.754022    ;  uncertainty theta = 0.002740, k = 0.099100
        40        39        42     1      107.103653      395.133299    ;  uncertainty theta = 0.002969, k = 0.108800
        41        39        42     1      107.103653      395.133299    ;  uncertainty theta = 0.002969, k = 0.108801

[ dihedrals ] ; propers for gromacs 4.5 or higher, use funct 9
;       ai        aj        ak        al funct           phase               k        pn
         1         2         4         6     9        0.000000       -0.034242         1    ;  uncertainty k = 0.275232
         1         2         4         6     9      180.000000       13.245916         2    ;  uncertainty k = 0.384112
         1         2         4         6     9        0.000000       -0.669412         3    ;  uncertainty k = 0.267941
         1         2         4         6     9      180.000000        0.868548         4    ;  uncertainty k = 0.247423
         1         2         4        38     9        0.000000        0.011207         1    ;  uncertainty k = 0.076593
         1         2         4        38     9      180.000000        8.134588         2    ;  uncertainty k = 0.365967
         1         2         4        38     9        0.000000        1.432582         3    ;  uncertainty k = 0.236538
         1         2         4        38     9      180.000000        1.862937         4    ;  uncertainty k = 0.132836
         1         3         5         6     9        0.000000       -0.034242         1    ;  uncertainty k = 0.275232
         1         3         5         6     9      180.000000       13.245916         2    ;  uncertainty k = 0.384112
         1         3         5         6     9        0.000000       -0.669412         3    ;  uncertainty k = 0.267941
         1         3         5         6     9      180.000000        0.868548         4    ;  uncertainty k = 0.247423
         1         3         5        25     9        0.000000        0.011207         1    ;  uncertainty k = 0.076593
         1         3         5        25     9      180.000000        8.134588         2    ;  uncertainty k = 0.365967
         1         3         5        25     9        0.000000        1.432582         3    ;  uncertainty k = 0.236538
         1         3         5        25     9      180.000000        1.862937         4    ;  uncertainty k = 0.132836
         1         7         8        15     9        0.000000       -0.222297         1    ;  uncertainty k = 0.600861
         1         7         8        15     9      180.000000        7.693500         2    ;  uncertainty k = 0.918196
         1         7         8        15     9        0.000000        0.666107         3    ;  uncertainty k = 0.306531
         1         7         8        15     9      180.000000        1.141986         4    ;  uncertainty k = 0.354608
         1         7         8        26     9        0.000000       -0.217650         1    ;  uncertainty k = 0.994464
         1         7         8        26     9      180.000000        6.859285         2    ;  uncertainty k = 0.532762
         1         7         8        26     9        0.000000        0.689880         3    ;  uncertainty k = 0.247110
         1         7         8        26     9      180.000000        0.932353         4    ;  uncertainty k = 0.216323
         1         7        21        16     9        0.000000        0.057144         1    ;  uncertainty k = 0.590310
         1         7        21        16     9      180.000000       14.341375         2    ;  uncertainty k = 0.393285
         1         7        21        16     9        0.000000        2.084082         3    ;  uncertainty k = 0.335654
         1         7        21        16     9      180.000000        1.555373         4    ;  uncertainty k = 0.421108
         2         1         3         5     9        0.000000        0.129793         1    ;  uncertainty k = 0.072520
         2         1         3         5     9      180.000000       11.101044         2    ;  uncertainty k = 0.206015
         2         1         3         5     9        0.000000       -0.656997         3    ;  uncertainty k = 0.136467
         2         1         3         5     9      180.000000        0.876178         4    ;  uncertainty k = 0.246518
         2         1         3        24     9        0.000000        0.081359         1    ;  uncertainty k = 0.152209
         2         1         3        24     9      180.000000        6.938978         2    ;  uncertainty k = 0.489903
         2         1         3        24     9        0.000000        1.320669         3    ;  uncertainty k = 0.229084
         2         1         3        24     9      180.000000        1.612990         4    ;  uncertainty k = 0.233024
         2         1         7         8     9        0.000000       -0.333026         1    ;  uncertainty k = 0.491905
         2         1         7         8     9      180.000000        3.976125         2    ;  uncertainty k = 0.272813
         2         1         7         8     9        0.000000        0.470193         3    ;  uncertainty k = 0.203494
         2         1         7         8     9      180.000000       -0.113480         4    ;  uncertainty k = 0.051550
         2         1         7        21     9        0.000000        0.924957         1    ;  uncertainty k = 0.625096
         2         1         7        21     9      180.000000        5.256045         2    ;  uncertainty k = 0.142988
         2         1         7        21     9        0.000000        0.646462         3    ;  uncertainty k = 0.199546
         2         1         7        21     9      180.000000        0.105401         4    ;  uncertainty k = 0.050243
         2         4         6         5     9        0.000000       -0.129952         1    ;  uncertainty k = 0.188457
         2         4         6         5     9      180.000000       11.743677         2    ;  uncertainty k = 0.406945
         2         4         6         5     9        0.000000       -0.519260         3    ;  uncertainty k = 0.281445
         2         4         6         5     9      180.000000        0.777987         4    ;  uncertainty k = 0.384969
         2         4         6        39     9        0.000000        0.145440         1    ;  uncertainty k = 0.218200
         2         4         6        39     9      180.000000        9.254853         2    ;  uncertainty k = 0.515990
         2         4         6        39     9        0.000000        1.521821         3    ;  uncertainty k = 0.294764
         2         4         6        39     9      180.000000        1.829183         4    ;  uncertainty k = 0.132877
         3         1         2         4     9        0.000000        0.129793         1    ;  uncertainty k = 0.072520
         3         1         2         4     9      180.000000       11.101044         2    ;  uncertainty k = 0.206015
         3         1         2         4     9        0.000000       -0.656997         3    ;  uncertainty k = 0.136467
         3         1         2         4     9      180.000000        0.876178         4    ;  uncertainty k = 0.246518
         3         1         2        23     9        0.000000        0.081359         1    ;  uncertainty k = 0.152209
         3         1         2        23     9      180.000000        6.938978         2    ;  uncertainty k = 0.489903
         3         1         2        23     9        0.000000        1.320669         3    ;  uncertainty k = 0.229084
         3         1         2        23     9      180.000000        1.612990         4    ;  uncertainty k = 0.233024
         3         1         7         8     9        0.000000       -0.333026         1    ;  uncertainty k = 0.491905
         3         1         7         8     9      180.000000        3.976125         2    ;  uncertainty k = 0.272813
         3         1         7         8     9        0.000000        0.470193         3    ;  uncertainty k = 0.203494
         3         1         7         8     9      180.000000       -0.113480         4    ;  uncertainty k = 0.051550
         3         1         7        21     9        0.000000        0.924957         1    ;  uncertainty k = 0.625096
         3         1         7        21     9      180.000000        5.256045         2    ;  uncertainty k = 0.142988
         3         1         7        21     9        0.000000        0.646462         3    ;  uncertainty k = 0.199546
         3         1         7        21     9      180.000000        0.105401         4    ;  uncertainty k = 0.050243
         3         5         6         4     9        0.000000       -0.129952         1    ;  uncertainty k = 0.188457
         3         5         6         4     9      180.000000       11.743677         2    ;  uncertainty k = 0.406945
         3         5         6         4     9        0.000000       -0.519260         3    ;  uncertainty k = 0.281445
         3         5         6         4     9      180.000000        0.777987         4    ;  uncertainty k = 0.384969
         3         5         6        39     9        0.000000        0.145440         1    ;  uncertainty k = 0.218200
         3         5         6        39     9      180.000000        9.254853         2    ;  uncertainty k = 0.515990
         3         5         6        39     9        0.000000        1.521821         3    ;  uncertainty k = 0.294764
         3         5         6        39     9      180.000000        1.829183         4    ;  uncertainty k = 0.132877
         4         2         1         7     9        0.000000        0.227004         1    ;  uncertainty k = 0.508010
         4         2         1         7     9      180.000000        8.579868         2    ;  uncertainty k = 0.550174
         4         2         1         7     9        0.000000        1.277805         3    ;  uncertainty k = 0.329551
         4         2         1         7     9      180.000000        1.782981         4    ;  uncertainty k = 0.200159
         4         6         5        25     9        0.000000        0.152445         1    ;  uncertainty k = 0.244455
         4         6         5        25     9      180.000000        7.160700         2    ;  uncertainty k = 0.495874
         4         6         5        25     9        0.000000        1.411730         3    ;  uncertainty k = 0.352395
         4         6         5        25     9      180.000000        1.676735         4    ;  uncertainty k = 0.149870
         4         6        39        40     9        0.000000       -0.256190         1    ;  uncertainty k = 0.191174
         4         6        39        40     9      180.000000        1.546790         2    ;  uncertainty k = 0.116697
         4         6        39        40     9        0.000000        0.362421         3    ;  uncertainty k = 0.098220
         4         6        39        40     9      180.000000        0.163599         4    ;  uncertainty k = 0.033392
         4         6        39        41     9        0.000000       -0.256190         1    ;  uncertainty k = 0.191174
         4         6        39        41     9      180.000000        1.546790         2    ;  uncertainty k = 0.116697
         4         6        39        41     9        0.000000        0.362421         3    ;  uncertainty k = 0.098220
         4         6        39        41     9      180.000000        0.163599         4    ;  uncertainty k = 0.033392
         4         6        39        42     9        0.000000        0.755086         1    ;  uncertainty k = 0.737367
         4         6        39        42     9      180.000000        3.285303         2    ;  uncertainty k = 0.072280
         4         6        39        42     9        0.000000        0.576486         3    ;  uncertainty k = 0.250146
         4         6        39        42     9      180.000000        0.336485         4    ;  uncertainty k = 0.076253
         5         3         1         7     9        0.000000        0.227004         1    ;  uncertainty k = 0.508010
         5         3         1         7     9      180.000000        8.579868         2    ;  uncertainty k = 0.550174
         5         3         1         7     9        0.000000        1.277805         3    ;  uncertainty k = 0.329551
         5         3         1         7     9      180.000000        1.782981         4    ;  uncertainty k = 0.200159
         5         6         4        38     9        0.000000        0.152445         1    ;  uncertainty k = 0.244455
         5         6         4        38     9      180.000000        7.160700         2    ;  uncertainty k = 0.495874
         5         6         4        38     9        0.000000        1.411730         3    ;  uncertainty k = 0.352395
         5         6         4        38     9      180.000000        1.676735         4    ;  uncertainty k = 0.149870
         5         6        39        40     9        0.000000       -0.256190         1    ;  uncertainty k = 0.191174
         5         6        39        40     9      180.000000        1.546790         2    ;  uncertainty k = 0.116697
         5         6        39        40     9        0.000000        0.362421         3    ;  uncertainty k = 0.098220
         5         6        39        40     9      180.000000        0.163599         4    ;  uncertainty k = 0.033392
         5         6        39        41     9        0.000000       -0.256190         1    ;  uncertainty k = 0.191174
         5         6        39        41     9      180.000000        1.546790         2    ;  uncertainty k = 0.116697
         5         6        39        41     9        0.000000        0.362421         3    ;  uncertainty k = 0.098220
         5         6        39        41     9      180.000000        0.163599         4    ;  uncertainty k = 0.033392
         5         6        39        42     9        0.000000        0.755086         1    ;  uncertainty k = 0.737367
         5         6        39        42     9      180.000000        3.285303         2    ;  uncertainty k = 0.072280
         5         6        39        42     9        0.000000        0.576486         3    ;  uncertainty k = 0.250146
         5         6        39        42     9      180.000000        0.336485         4    ;  uncertainty k = 0.076253
         6         4         2        23     9        0.000000       -0.019765         1    ;  uncertainty k = 0.184976
         6         4         2        23     9      180.000000        7.595386         2    ;  uncertainty k = 0.326269
         6         4         2        23     9        0.000000        1.370799         3    ;  uncertainty k = 0.291388
         6         4         2        23     9      180.000000        1.881365         4    ;  uncertainty k = 0.174516
         6         5         3        24     9        0.000000       -0.019765         1    ;  uncertainty k = 0.184976
         6         5         3        24     9      180.000000        7.595386         2    ;  uncertainty k = 0.326269
         6         5         3        24     9        0.000000        1.370799         3    ;  uncertainty k = 0.291388
         6         5         3        24     9      180.000000        1.881365         4    ;  uncertainty k = 0.174516
         6        39        42        43     9        0.000000        0.000000         1    ;  uncertainty k = 0.000000
         6        39        42        43     9      180.000000        0.000000         2    ;  uncertainty k = 0.000000
         6        39        42        43     9        0.000000        0.000000         3    ;  uncertainty k = 0.000000
         6        39        42        43     9      180.000000        0.000000         4    ;  uncertainty k = 0.000000
         7         1         2        23     9        0.000000       -0.365295         1    ;  uncertainty k = 0.381537
         7         1         2        23     9      180.000000        7.228714         2    ;  uncertainty k = 0.310623
         7         1         2        23     9        0.000000        0.697937         3    ;  uncertainty k = 0.107205
         7         1         2        23     9      180.000000        1.145645         4    ;  uncertainty k = 0.082298
         7         1         3        24     9        0.000000       -0.365295         1    ;  uncertainty k = 0.381537
         7         1         3        24     9      180.000000        7.228714         2    ;  uncertainty k = 0.310623
         7         1         3        24     9        0.000000        0.697937         3    ;  uncertainty k = 0.107205
         7         1         3        24     9      180.000000        1.145645         4    ;  uncertainty k = 0.082298
         7         8        15        20     9        0.000000       -0.502486         1    ;  uncertainty k = 0.435306
         7         8        15        20     9      180.000000        7.830227         2    ;  uncertainty k = 0.794015
         7         8        15        20     9        0.000000       -0.902242         3    ;  uncertainty k = 0.531797
         7         8        15        20     9      180.000000        1.183147         4    ;  uncertainty k = 0.318689
         7         8        15        22     9        0.000000       -0.963980         1    ;  uncertainty k = 0.753376
         7         8        15        22     9      180.000000        6.447382         2    ;  uncertainty k = 0.461265
         7         8        15        22     9        0.000000        0.063554         3    ;  uncertainty k = 0.344433
         7         8        15        22     9      180.000000        0.905809         4    ;  uncertainty k = 0.176327
         7        21        16        20     9        0.000000       -0.821127         1    ;  uncertainty k = 0.636555
         7        21        16        20     9      180.000000       16.548778         2    ;  uncertainty k = 0.384710
         7        21        16        20     9        0.000000        0.077253         3    ;  uncertainty k = 0.567925
         7        21        16        20     9      180.000000        1.171425         4    ;  uncertainty k = 0.286279
         7        21        16        34     9        0.000000       -0.427987         1    ;  uncertainty k = 0.382146
         7        21        16        34     9      180.000000       12.355015         2    ;  uncertainty k = 0.401246
         7        21        16        34     9        0.000000        1.724411         3    ;  uncertainty k = 0.672569
         7        21        16        34     9      180.000000        1.292178         4    ;  uncertainty k = 0.425862
         8         7        21        16     9        0.000000       -0.258455         1    ;  uncertainty k = 0.866905
         8         7        21        16     9      180.000000       13.267341         2    ;  uncertainty k = 0.528727
         8         7        21        16     9        0.000000        0.319855         3    ;  uncertainty k = 0.972120
         8         7        21        16     9      180.000000        1.132000         4    ;  uncertainty k = 0.373638
         8        15        20        16     9        0.000000       -0.350078         1    ;  uncertainty k = 0.812325
         8        15        20        16     9      180.000000        9.930014         2    ;  uncertainty k = 0.557509
         8        15        20        16     9        0.000000        0.516622         3    ;  uncertainty k = 0.789553
         8        15        20        16     9      180.000000        1.058186         4    ;  uncertainty k = 0.142047
         8        15        22         9     9        0.000000        5.603689         1    ;  uncertainty k = 0.487731
         8        15        22         9     9      180.000000        9.173858         2    ;  uncertainty k = 0.234225
         8        15        22         9     9        0.000000        0.682452         3    ;  uncertainty k = 0.250442
         8        15        22         9     9      180.000000       -0.440404         4    ;  uncertainty k = 0.169398
         8        15        22        37     9        0.000000        4.297370         1    ;  uncertainty k = 0.414563
         8        15        22        37     9      180.000000        7.947808         2    ;  uncertainty k = 0.147068
         8        15        22        37     9        0.000000        1.249630         3    ;  uncertainty k = 0.211856
         8        15        22        37     9      180.000000       -0.412992         4    ;  uncertainty k = 0.196225
         9        10        14        33     9        0.000000       16.539194         1    ;  uncertainty k = 0.182172
         9        10        14        33     9      180.000000       -3.181446         2    ;  uncertainty k = 0.394315
         9        10        14        33     9        0.000000        1.050863         3    ;  uncertainty k = 0.081907
         9        10        14        33     9      180.000000        0.368805         4    ;  uncertainty k = 0.156069
         9        10        19        12     9        0.000000       -0.273818         1    ;  uncertainty k = 0.106175
         9        10        19        12     9      180.000000        2.079481         2    ;  uncertainty k = 0.182501
         9        10        19        12     9        0.000000        0.512262         3    ;  uncertainty k = 0.147544
         9        10        19        12     9      180.000000        0.343982         4    ;  uncertainty k = 0.021980
         9        10        19        13     9        0.000000       -0.273818         1    ;  uncertainty k = 0.106175
         9        10        19        13     9      180.000000        2.079481         2    ;  uncertainty k = 0.182501
         9        10        19        13     9        0.000000        0.512262         3    ;  uncertainty k = 0.147544
         9        10        19        13     9      180.000000        0.343982         4    ;  uncertainty k = 0.021980
         9        22        15        20     9        0.000000        8.533711         1    ;  uncertainty k = 0.435190
         9        22        15        20     9      180.000000       12.802851         2    ;  uncertainty k = 0.140763
         9        22        15        20     9        0.000000        1.500694         3    ;  uncertainty k = 0.229157
         9        22        15        20     9      180.000000       -0.498831         4    ;  uncertainty k = 0.087310
        10         9        22        15     9        0.000000       -0.181203         1    ;  uncertainty k = 0.437855
        10         9        22        15     9      180.000000       -0.656643         2    ;  uncertainty k = 0.612261
        10         9        22        15     9        0.000000        0.233868         3    ;  uncertainty k = 0.313268
        10         9        22        15     9      180.000000        0.414120         4    ;  uncertainty k = 0.035681
        10         9        22        37     9        0.000000        3.680901         1    ;  uncertainty k = 0.713382
        10         9        22        37     9      180.000000       -3.627771         2    ;  uncertainty k = 0.381036
        10         9        22        37     9        0.000000        0.657609         3    ;  uncertainty k = 0.120801
        10         9        22        37     9      180.000000       -0.046604         4    ;  uncertainty k = 0.144754
        10        19        12        11     9        0.000000        0.277494         1    ;  uncertainty k = 0.259279
        10        19        12        11     9      180.000000        9.380655         2    ;  uncertainty k = 0.580889
        10        19        12        11     9        0.000000        1.260903         3    ;  uncertainty k = 0.297020
        10        19        12        11     9      180.000000        1.849205         4    ;  uncertainty k = 0.223533
        10        19        12        31     9        0.000000       -0.044601         1    ;  uncertainty k = 0.495487
        10        19        12        31     9      180.000000        7.557641         2    ;  uncertainty k = 0.152609
        10        19        12        31     9        0.000000        0.648505         3    ;  uncertainty k = 0.330112
        10        19        12        31     9      180.000000        0.986671         4    ;  uncertainty k = 0.169058
        10        19        13        18     9        0.000000        0.277494         1    ;  uncertainty k = 0.259279
        10        19        13        18     9      180.000000        9.380655         2    ;  uncertainty k = 0.580889
        10        19        13        18     9        0.000000        1.260903         3    ;  uncertainty k = 0.297020
        10        19        13        18     9      180.000000        1.849205         4    ;  uncertainty k = 0.223533
        10        19        13        32     9        0.000000       -0.044601         1    ;  uncertainty k = 0.495487
        10        19        13        32     9      180.000000        7.557641         2    ;  uncertainty k = 0.152609
        10        19        13        32     9        0.000000        0.648505         3    ;  uncertainty k = 0.330112
        10        19        13        32     9      180.000000        0.986671         4    ;  uncertainty k = 0.169058
        11        12        19        13     9        0.000000       -0.165953         1    ;  uncertainty k = 0.169992
        11        12        19        13     9      180.000000       11.757607         2    ;  uncertainty k = 0.401729
        11        12        19        13     9        0.000000       -0.505821         3    ;  uncertainty k = 0.348703
        11        12        19        13     9      180.000000        0.798513         4    ;  uncertainty k = 0.397673
        11        17        18        13     9        0.000000       -0.003189         1    ;  uncertainty k = 0.038440
        11        17        18        13     9      180.000000       15.016788         2    ;  uncertainty k = 0.249663
        11        17        18        13     9        0.000000       -1.210513         3    ;  uncertainty k = 0.492875
        11        17        18        13     9      180.000000        0.498916         4    ;  uncertainty k = 0.293179
        11        17        18        36     9        0.000000        0.038009         1    ;  uncertainty k = 0.035822
        11        17        18        36     9      180.000000        7.549305         2    ;  uncertainty k = 0.334350
        11        17        18        36     9        0.000000        1.438249         3    ;  uncertainty k = 0.318741
        11        17        18        36     9      180.000000        1.792783         4    ;  uncertainty k = 0.163179
        12        11        17        18     9        0.000000       -0.003189         1    ;  uncertainty k = 0.038440
        12        11        17        18     9      180.000000       15.016788         2    ;  uncertainty k = 0.249663
        12        11        17        18     9        0.000000       -1.210513         3    ;  uncertainty k = 0.492875
        12        11        17        18     9      180.000000        0.498916         4    ;  uncertainty k = 0.293179
        12        11        17        35     9        0.000000        0.056378         1    ;  uncertainty k = 0.091793
        12        11        17        35     9      180.000000        7.450064         2    ;  uncertainty k = 0.356222
        12        11        17        35     9        0.000000        1.472207         3    ;  uncertainty k = 0.287391
        12        11        17        35     9      180.000000        1.800180         4    ;  uncertainty k = 0.190036
        12        19        10        14     9        0.000000       -1.453975         1    ;  uncertainty k = 0.447986
        12        19        10        14     9      180.000000        3.360421         2    ;  uncertainty k = 0.198780
        12        19        10        14     9        0.000000        0.848407         3    ;  uncertainty k = 0.189850
        12        19        10        14     9      180.000000        0.435805         4    ;  uncertainty k = 0.036604
        12        19        10        29     9        0.000000       -0.600193         1    ;  uncertainty k = 0.218608
        12        19        10        29     9      180.000000        1.966965         2    ;  uncertainty k = 0.154440
        12        19        10        29     9        0.000000        0.553661         3    ;  uncertainty k = 0.127024
        12        19        10        29     9      180.000000        0.313797         4    ;  uncertainty k = 0.019730
        12        19        13        18     9        0.000000       -0.165953         1    ;  uncertainty k = 0.169992
        12        19        13        18     9      180.000000       11.757607         2    ;  uncertainty k = 0.401729
        12        19        13        18     9        0.000000       -0.505821         3    ;  uncertainty k = 0.348703
        12        19        13        18     9      180.000000        0.798513         4    ;  uncertainty k = 0.397673
        12        19        13        32     9        0.000000        0.131870         1    ;  uncertainty k = 0.167883
        12        19        13        32     9      180.000000        7.224544         2    ;  uncertainty k = 0.567570
        12        19        13        32     9        0.000000        1.415746         3    ;  uncertainty k = 0.327246
        12        19        13        32     9      180.000000        1.668075         4    ;  uncertainty k = 0.170613
        13        18        17        35     9        0.000000        0.056378         1    ;  uncertainty k = 0.091793
        13        18        17        35     9      180.000000        7.450064         2    ;  uncertainty k = 0.356222
        13        18        17        35     9        0.000000        1.472207         3    ;  uncertainty k = 0.287391
        13        18        17        35     9      180.000000        1.800180         4    ;  uncertainty k = 0.190036
        13        19        10        14     9        0.000000       -1.453975         1    ;  uncertainty k = 0.447986
        13        19        10        14     9      180.000000        3.360421         2    ;  uncertainty k = 0.198780
        13        19        10        14     9        0.000000        0.848407         3    ;  uncertainty k = 0.189850
        13        19        10        14     9      180.000000        0.435805         4    ;  uncertainty k = 0.036604
        13        19        10        29     9        0.000000       -0.600193         1    ;  uncertainty k = 0.218608
        13        19        10        29     9      180.000000        1.966965         2    ;  uncertainty k = 0.154440
        13        19        10        29     9        0.000000        0.553661         3    ;  uncertainty k = 0.127024
        13        19        10        29     9      180.000000        0.313797         4    ;  uncertainty k = 0.019730
        13        19        12        31     9        0.000000        0.131870         1    ;  uncertainty k = 0.167883
        13        19        12        31     9      180.000000        7.224544         2    ;  uncertainty k = 0.567570
        13        19        12        31     9        0.000000        1.415746         3    ;  uncertainty k = 0.327246
        13        19        12        31     9      180.000000        1.668075         4    ;  uncertainty k = 0.170613
        14        10         9        22     9        0.000000       -0.052607         1    ;  uncertainty k = 0.764083
        14        10         9        22     9      180.000000       -0.749437         2    ;  uncertainty k = 0.395318
        14        10         9        22     9        0.000000        1.713416         3    ;  uncertainty k = 0.321039
        14        10         9        22     9      180.000000       -0.561414         4    ;  uncertainty k = 0.195159
        14        10         9        27     9        0.000000       -1.242394         1    ;  uncertainty k = 0.559340
        14        10         9        27     9      180.000000       -0.234284         2    ;  uncertainty k = 0.168601
        14        10         9        27     9        0.000000        1.039378         3    ;  uncertainty k = 0.150261
        14        10         9        27     9      180.000000       -0.102798         4    ;  uncertainty k = 0.150575
        14        10         9        28     9        0.000000       -1.242394         1    ;  uncertainty k = 0.559340
        14        10         9        28     9      180.000000       -0.234284         2    ;  uncertainty k = 0.168601
        14        10         9        28     9        0.000000        1.039378         3    ;  uncertainty k = 0.150261
        14        10         9        28     9      180.000000       -0.102798         4    ;  uncertainty k = 0.150575
        15         8         7        21     9        0.000000       -0.248969         1    ;  uncertainty k = 0.477003
        15         8         7        21     9      180.000000       12.521922         2    ;  uncertainty k = 0.534598
        15         8         7        21     9        0.000000       -1.083182         3    ;  uncertainty k = 0.694465
        15         8         7        21     9      180.000000        1.027498         4    ;  uncertainty k = 0.327911
        15        20        16        21     9        0.000000       -0.727031         1    ;  uncertainty k = 1.154526
        15        20        16        21     9      180.000000       15.842485         2    ;  uncertainty k = 0.398145
        15        20        16        21     9        0.000000       -0.257081         3    ;  uncertainty k = 0.319591
        15        20        16        21     9      180.000000        0.992483         4    ;  uncertainty k = 0.176270
        15        20        16        34     9        0.000000       -0.392488         1    ;  uncertainty k = 0.864220
        15        20        16        34     9      180.000000       12.489467         2    ;  uncertainty k = 0.378782
        15        20        16        34     9        0.000000        1.355690         3    ;  uncertainty k = 0.760379
        15        20        16        34     9      180.000000        0.853020         4    ;  uncertainty k = 0.299132
        15        22         9        27     9        0.000000       -1.147632         1    ;  uncertainty k = 0.263721
        15        22         9        27     9      180.000000       -0.482322         2    ;  uncertainty k = 0.302946
        15        22         9        27     9        0.000000        0.226739         3    ;  uncertainty k = 0.211259
        15        22         9        27     9      180.000000        0.248702         4    ;  uncertainty k = 0.013743
        15        22         9        28     9        0.000000       -1.147632         1    ;  uncertainty k = 0.263721
        15        22         9        28     9      180.000000       -0.482322         2    ;  uncertainty k = 0.302946
        15        22         9        28     9        0.000000        0.226739         3    ;  uncertainty k = 0.211259
        15        22         9        28     9      180.000000        0.248702         4    ;  uncertainty k = 0.013743
        16        20        15        22     9        0.000000       -0.152560         1    ;  uncertainty k = 1.153662
        16        20        15        22     9      180.000000       12.736509         2    ;  uncertainty k = 0.218695
        16        20        15        22     9        0.000000        2.232715         3    ;  uncertainty k = 0.423520
        16        20        15        22     9      180.000000        1.585263         4    ;  uncertainty k = 0.416482
        17        11        12        19     9        0.000000       -0.091981         1    ;  uncertainty k = 0.109878
        17        11        12        19     9      180.000000       13.825977         2    ;  uncertainty k = 0.203920
        17        11        12        19     9        0.000000       -0.976820         3    ;  uncertainty k = 0.497977
        17        11        12        19     9      180.000000        0.702825         4    ;  uncertainty k = 0.246026
        17        11        12        31     9        0.000000        0.043151         1    ;  uncertainty k = 0.053762
        17        11        12        31     9      180.000000        7.853416         2    ;  uncertainty k = 0.298299
        17        11        12        31     9        0.000000        1.416969         3    ;  uncertainty k = 0.297576
        17        11        12        31     9      180.000000        1.844954         4    ;  uncertainty k = 0.168713
        17        18        13        19     9        0.000000       -0.091981         1    ;  uncertainty k = 0.109878
        17        18        13        19     9      180.000000       13.825977         2    ;  uncertainty k = 0.203920
        17        18        13        19     9        0.000000       -0.976820         3    ;  uncertainty k = 0.497977
        17        18        13        19     9      180.000000        0.702825         4    ;  uncertainty k = 0.246026
        17        18        13        32     9        0.000000        0.043151         1    ;  uncertainty k = 0.053762
        17        18        13        32     9      180.000000        7.853416         2    ;  uncertainty k = 0.298299
        17        18        13        32     9        0.000000        1.416969         3    ;  uncertainty k = 0.297576
        17        18        13        32     9      180.000000        1.844954         4    ;  uncertainty k = 0.168713
        18        17        11        30     9        0.000000        0.038009         1    ;  uncertainty k = 0.035822
        18        17        11        30     9      180.000000        7.549305         2    ;  uncertainty k = 0.334350
        18        17        11        30     9        0.000000        1.438249         3    ;  uncertainty k = 0.318741
        18        17        11        30     9      180.000000        1.792783         4    ;  uncertainty k = 0.163179
        19        10         9        22     9        0.000000       -2.195261         1    ;  uncertainty k = 0.395882
        19        10         9        22     9      180.000000       -0.031057         2    ;  uncertainty k = 0.681736
        19        10         9        22     9        0.000000        2.005161         3    ;  uncertainty k = 0.343930
        19        10         9        22     9      180.000000        0.115840         4    ;  uncertainty k = 0.059502
        19        10         9        27     9        0.000000       -0.032425         1    ;  uncertainty k = 0.325911
        19        10         9        27     9      180.000000        0.090710         2    ;  uncertainty k = 0.447956
        19        10         9        27     9        0.000000        0.614218         3    ;  uncertainty k = 0.070661
        19        10         9        27     9      180.000000       -0.058272         4    ;  uncertainty k = 0.097588
        19        10         9        28     9        0.000000       -0.032425         1    ;  uncertainty k = 0.325911
        19        10         9        28     9      180.000000        0.090710         2    ;  uncertainty k = 0.447956
        19        10         9        28     9        0.000000        0.614218         3    ;  uncertainty k = 0.070661
        19        10         9        28     9      180.000000       -0.058272         4    ;  uncertainty k = 0.097588
        19        10        14        33     9        0.000000       15.207439         1    ;  uncertainty k = 0.126759
        19        10        14        33     9      180.000000       -2.891249         2    ;  uncertainty k = 0.433974
        19        10        14        33     9        0.000000        1.036217         3    ;  uncertainty k = 0.050697
        19        10        14        33     9      180.000000        0.184126         4    ;  uncertainty k = 0.080140
        19        12        11        30     9        0.000000        0.047860         1    ;  uncertainty k = 0.232277
        19        12        11        30     9      180.000000        7.569870         2    ;  uncertainty k = 0.397811
        19        12        11        30     9        0.000000        1.467091         3    ;  uncertainty k = 0.255631
        19        12        11        30     9      180.000000        1.771465         4    ;  uncertainty k = 0.128664
        19        13        18        36     9        0.000000        0.047860         1    ;  uncertainty k = 0.232277
        19        13        18        36     9      180.000000        7.569870         2    ;  uncertainty k = 0.397811
        19        13        18        36     9        0.000000        1.467091         3    ;  uncertainty k = 0.255631
        19        13        18        36     9      180.000000        1.771465         4    ;  uncertainty k = 0.128664
        20        15         8        26     9        0.000000        0.249111         1    ;  uncertainty k = 0.450714
        20        15         8        26     9      180.000000        6.845142         2    ;  uncertainty k = 0.457090
        20        15         8        26     9        0.000000        1.342062         3    ;  uncertainty k = 0.374432
        20        15         8        26     9      180.000000        1.372476         4    ;  uncertainty k = 0.171953
        20        15        22        37     9        0.000000       12.912348         1    ;  uncertainty k = 0.293676
        20        15        22        37     9      180.000000        9.801748         2    ;  uncertainty k = 0.250858
        20        15        22        37     9        0.000000        0.647644         3    ;  uncertainty k = 0.160502
        20        15        22        37     9      180.000000       -0.317777         4    ;  uncertainty k = 0.163284
        21         7         8        26     9        0.000000        0.152608         1    ;  uncertainty k = 0.625209
        21         7         8        26     9      180.000000        9.168422         2    ;  uncertainty k = 0.440844
        21         7         8        26     9        0.000000        1.385325         3    ;  uncertainty k = 0.251432
        21         7         8        26     9      180.000000        1.568540         4    ;  uncertainty k = 0.153744
        22         9        10        29     9        0.000000       -0.572508         1    ;  uncertainty k = 0.377115
        22         9        10        29     9      180.000000       -0.600289         2    ;  uncertainty k = 0.341220
        22         9        10        29     9        0.000000        1.087420         3    ;  uncertainty k = 0.209284
        22         9        10        29     9      180.000000       -0.040588         4    ;  uncertainty k = 0.052009
        22        15         8        26     9        0.000000       -0.296826         1    ;  uncertainty k = 0.345651
        22        15         8        26     9      180.000000        5.479218         2    ;  uncertainty k = 0.647782
        22        15         8        26     9        0.000000        0.987843         3    ;  uncertainty k = 0.396911
        22        15         8        26     9      180.000000        0.695542         4    ;  uncertainty k = 0.197095
        23         2         4        38     9        0.000000       -0.206847         1    ;  uncertainty k = 0.118256
        23         2         4        38     9      180.000000        7.941026         2    ;  uncertainty k = 0.334108
        23         2         4        38     9        0.000000       -0.475744         3    ;  uncertainty k = 0.258576
        23         2         4        38     9      180.000000        0.214869         4    ;  uncertainty k = 0.182398
        24         3         5        25     9        0.000000       -0.206847         1    ;  uncertainty k = 0.118256
        24         3         5        25     9      180.000000        7.941026         2    ;  uncertainty k = 0.334108
        24         3         5        25     9        0.000000       -0.475744         3    ;  uncertainty k = 0.258576
        24         3         5        25     9      180.000000        0.214869         4    ;  uncertainty k = 0.182398
        25         5         6        39     9        0.000000       -0.163097         1    ;  uncertainty k = 0.238599
        25         5         6        39     9      180.000000        8.005722         2    ;  uncertainty k = 0.270234
        25         5         6        39     9        0.000000        0.636504         3    ;  uncertainty k = 0.316336
        25         5         6        39     9      180.000000        1.009975         4    ;  uncertainty k = 0.171962
        27         9        10        29     9        0.000000       -0.062118         1    ;  uncertainty k = 0.175980
        27         9        10        29     9      180.000000       -0.346454         2    ;  uncertainty k = 0.237264
        27         9        10        29     9        0.000000       -0.035091         3    ;  uncertainty k = 0.145025
        27         9        10        29     9      180.000000       -0.049706         4    ;  uncertainty k = 0.074111
        27         9        22        37     9        0.000000        2.288821         1    ;  uncertainty k = 0.507795
        27         9        22        37     9      180.000000       -1.939761         2    ;  uncertainty k = 0.413857
        27         9        22        37     9        0.000000        0.268258         3    ;  uncertainty k = 0.084403
        27         9        22        37     9      180.000000        0.114796         4    ;  uncertainty k = 0.076861
        28         9        10        29     9        0.000000       -0.062118         1    ;  uncertainty k = 0.175980
        28         9        10        29     9      180.000000       -0.346454         2    ;  uncertainty k = 0.237264
        28         9        10        29     9        0.000000       -0.035091         3    ;  uncertainty k = 0.145025
        28         9        10        29     9      180.000000       -0.049706         4    ;  uncertainty k = 0.074111
        28         9        22        37     9        0.000000        2.288821         1    ;  uncertainty k = 0.507795
        28         9        22        37     9      180.000000       -1.939761         2    ;  uncertainty k = 0.413857
        28         9        22        37     9        0.000000        0.268258         3    ;  uncertainty k = 0.084403
        28         9        22        37     9      180.000000        0.114796         4    ;  uncertainty k = 0.076861
        29        10        14        33     9        0.000000       11.445024         1    ;  uncertainty k = 0.077908
        29        10        14        33     9      180.000000       -2.625800         2    ;  uncertainty k = 0.375643
        29        10        14        33     9        0.000000        0.698341         3    ;  uncertainty k = 0.074671
        29        10        14        33     9      180.000000        0.156691         4    ;  uncertainty k = 0.100510
        30        11        12        31     9        0.000000       -0.051759         1    ;  uncertainty k = 0.105402
        30        11        12        31     9      180.000000        7.644705         2    ;  uncertainty k = 0.306864
        30        11        12        31     9        0.000000       -0.441178         3    ;  uncertainty k = 0.237620
        30        11        12        31     9      180.000000        0.096993         4    ;  uncertainty k = 0.103181
        30        11        17        35     9        0.000000       -0.014778         1    ;  uncertainty k = 0.078555
        30        11        17        35     9      180.000000        7.498073         2    ;  uncertainty k = 0.337617
        30        11        17        35     9        0.000000       -0.424125         3    ;  uncertainty k = 0.279662
        30        11        17        35     9      180.000000        0.048151         4    ;  uncertainty k = 0.148926
        32        13        18        36     9        0.000000       -0.051759         1    ;  uncertainty k = 0.105402
        32        13        18        36     9      180.000000        7.644705         2    ;  uncertainty k = 0.306864
        32        13        18        36     9        0.000000       -0.441178         3    ;  uncertainty k = 0.237620
        32        13        18        36     9      180.000000        0.096993         4    ;  uncertainty k = 0.103181
        35        17        18        36     9        0.000000       -0.014778         1    ;  uncertainty k = 0.078555
        35        17        18        36     9      180.000000        7.498073         2    ;  uncertainty k = 0.337617
        35        17        18        36     9        0.000000       -0.424125         3    ;  uncertainty k = 0.279662
        35        17        18        36     9      180.000000        0.048151         4    ;  uncertainty k = 0.148926
        38         4         6        39     9        0.000000       -0.163097         1    ;  uncertainty k = 0.238599
        38         4         6        39     9      180.000000        8.005722         2    ;  uncertainty k = 0.270234
        38         4         6        39     9        0.000000        0.636504         3    ;  uncertainty k = 0.316336
        38         4         6        39     9      180.000000        1.009975         4    ;  uncertainty k = 0.171962
        40        39        42        43     9        0.000000        0.000000         1    ;  uncertainty k = 0.000000
        40        39        42        43     9      180.000000        0.000000         2    ;  uncertainty k = 0.000000
        40        39        42        43     9        0.000000        0.000000         3    ;  uncertainty k = 0.000000
        40        39        42        43     9      180.000000        0.000000         4    ;  uncertainty k = 0.000000
        41        39        42        43     9        0.000000        0.000000         1    ;  uncertainty k = 0.000000
        41        39        42        43     9      180.000000        0.000000         2    ;  uncertainty k = 0.000000
        41        39        42        43     9        0.000000        0.000000         3    ;  uncertainty k = 0.000000
        41        39        42        43     9      180.000000        0.000000         4    ;  uncertainty k = 0.000000

[ dihedrals ] ; impropers
;       ai        aj        ak        al funct           phase               k        pn
         1         2         3         7     4      180.000000       10.245347         2    ;  uncertainty k = 0.114702
         1         3         7         2     4      180.000000       10.245347         2    ;  uncertainty k = 0.114702
         1         7         2         3     4      180.000000       10.245347         2    ;  uncertainty k = 0.114702
         2         1         4        23     4      180.000000        4.402459         2    ;  uncertainty k = 0.111560
         2         4        23         1     4      180.000000        4.402459         2    ;  uncertainty k = 0.111560
         2        23         1         4     4      180.000000        4.402459         2    ;  uncertainty k = 0.111560
         3         1         5        24     4      180.000000        4.402459         2    ;  uncertainty k = 0.111560
         3         5        24         1     4      180.000000        4.402459         2    ;  uncertainty k = 0.111560
         3        24         1         5     4      180.000000        4.402459         2    ;  uncertainty k = 0.111560
         4         2         6        38     4      180.000000        3.825498         2    ;  uncertainty k = 0.112618
         4         6        38         2     4      180.000000        3.825498         2    ;  uncertainty k = 0.112618
         4        38         2         6     4      180.000000        3.825498         2    ;  uncertainty k = 0.112618
         5         3         6        25     4      180.000000        3.825498         2    ;  uncertainty k = 0.112618
         5         6        25         3     4      180.000000        3.825498         2    ;  uncertainty k = 0.112618
         5        25         3         6     4      180.000000        3.825498         2    ;  uncertainty k = 0.112618
         6         4         5        39     4      180.000000       13.581120         2    ;  uncertainty k = 0.053366
         6         5        39         4     4      180.000000       13.581120         2    ;  uncertainty k = 0.053366
         6        39         4         5     4      180.000000       13.581120         2    ;  uncertainty k = 0.053366
         7         1         8        21     4      180.000000       27.787870         2    ;  uncertainty k = 0.031864
         7         8        21         1     4      180.000000       27.787870         2    ;  uncertainty k = 0.031864
         7        21         1         8     4      180.000000       27.787870         2    ;  uncertainty k = 0.031864
         8         7        15        26     4      180.000000        1.791127         2    ;  uncertainty k = 0.442305
         8        15        26         7     4      180.000000        1.791127         2    ;  uncertainty k = 0.442305
         8        26         7        15     4      180.000000        1.791127         2    ;  uncertainty k = 0.442305
        11        12        17        30     4      180.000000        4.234205         2    ;  uncertainty k = 0.081881
        11        17        30        12     4      180.000000        4.234205         2    ;  uncertainty k = 0.081881
        11        30        12        17     4      180.000000        4.234205         2    ;  uncertainty k = 0.081881
        12        11        19        31     4      180.000000        3.983249         2    ;  uncertainty k = 0.116003
        12        19        31        11     4      180.000000        3.983249         2    ;  uncertainty k = 0.116003
        12        31        11        19     4      180.000000        3.983249         2    ;  uncertainty k = 0.116003
        13        18        19        32     4      180.000000        3.983249         2    ;  uncertainty k = 0.116003
        13        19        32        18     4      180.000000        3.983249         2    ;  uncertainty k = 0.116003
        13        32        18        19     4      180.000000        3.983249         2    ;  uncertainty k = 0.116003
        15         8        20        22     4      180.000000       34.921827         2    ;  uncertainty k = 0.079106
        15        20        22         8     4      180.000000       34.921827         2    ;  uncertainty k = 0.079106
        15        22         8        20     4      180.000000       34.921827         2    ;  uncertainty k = 0.079106
        16        20        21        34     4      180.000000       24.227487         2    ;  uncertainty k = 0.059569
        16        21        34        20     4      180.000000       24.227487         2    ;  uncertainty k = 0.059569
        16        34        20        21     4      180.000000       24.227487         2    ;  uncertainty k = 0.059569
        17        11        18        35     4      180.000000        4.404546         2    ;  uncertainty k = 0.145826
        17        18        35        11     4      180.000000        4.404546         2    ;  uncertainty k = 0.145826
        17        35        11        18     4      180.000000        4.404546         2    ;  uncertainty k = 0.145826
        18        13        17        36     4      180.000000        4.234205         2    ;  uncertainty k = 0.081881
        18        17        36        13     4      180.000000        4.234205         2    ;  uncertainty k = 0.081881
        18        36        13        17     4      180.000000        4.234205         2    ;  uncertainty k = 0.081881
        19        10        12        13     4      180.000000       12.157434         2    ;  uncertainty k = 0.087858
        19        12        13        10     4      180.000000       12.157434         2    ;  uncertainty k = 0.087858
        19        13        10        12     4      180.000000       12.157434         2    ;  uncertainty k = 0.087858
        22         9        15        37     4      180.000000        0.223430         2    ;  uncertainty k = 0.499605
        22        15        37         9     4      180.000000        0.223430         2    ;  uncertainty k = 0.499605
        22        37         9        15     4      180.000000        0.223430         2    ;  uncertainty k = 0.499605

[ pairs ]
;       ai        aj funct
         1         6     1
         1        15     1
         1        16     1
         1        25     1
         1        26     1
         1        38     1
         2         5     1
         2         8     1
         2        21     1
         2        24     1
         2        39     1
         3         4     1
         3         8     1
         3        21     1
         3        23     1
         3        39     1
         4         7     1
         4        25     1
         4        40     1
         4        41     1
         4        42     1
         5         7     1
         5        38     1
         5        40     1
         5        41     1
         5        42     1
         6        23     1
         6        24     1
         6        43     1
         7        20     1
         7        22     1
         7        23     1
         7        24     1
         7        34     1
         8         9     1
         8        16     1
         8        37     1
         9        12     1
         9        13     1
         9        20     1
         9        33     1
        10        11     1
        10        15     1
        10        18     1
        10        31     1
        10        32     1
        10        37     1
        11        13     1
        11        36     1
        12        14     1
        12        18     1
        12        29     1
        12        32     1
        12        35     1
        13        14     1
        13        29     1
        13        31     1
        13        35     1
        14        22     1
        14        27     1
        14        28     1
        15        21     1
        15        27     1
        15        28     1
        15        34     1
        16        22     1
        17        19     1
        17        31     1
        17        32     1
        18        30     1
        19        22     1
        19        27     1
        19        28     1
        19        30     1
        19        33     1
        19        36     1
        20        26     1
        20        37     1
        21        26     1
        22        26     1
        22        29     1
        23        38     1
        24        25     1
        25        39     1
        27        29     1
        27        37     1
        28        29     1
        28        37     1
        29        33     1
        30        31     1
        30        35     1
        32        36     1
        35        36     1
        38        39     1
        40        43     1
        41        43     1
