; ITP file created by ByteFF-joint-25, 2025-07-14 11:36:43.102343

[ atomtypes ]
;name           bonded.type        at.num        mass        charge   ptype           sigma         epsilon
 c0bf                                   6      0.0000       0.00000       A     3.31516e-01     4.13553e-01    ;  uncertainty sigma = 0.000014, epsilon = 0.000653
 c1bf                                   6      0.0000       0.00000       A     3.31516e-01     4.13432e-01    ;  uncertainty sigma = 0.000008, epsilon = 0.000709
 c2bf                                   6      0.0000       0.00000       A     3.31527e-01     4.13055e-01    ;  uncertainty sigma = 0.000005, epsilon = 0.000653
 c3bf                                   6      0.0000       0.00000       A     3.31518e-01     4.13344e-01    ;  uncertainty sigma = 0.000002, epsilon = 0.000573
 c4bf                                   6      0.0000       0.00000       A     3.31520e-01     4.13163e-01    ;  uncertainty sigma = 0.000003, epsilon = 0.000582
 c5bf                                   6      0.0000       0.00000       A     3.31519e-01     4.13354e-01    ;  uncertainty sigma = 0.000004, epsilon = 0.000545
 c6bf                                   6      0.0000       0.00000       A     3.31530e-01     4.13307e-01    ;  uncertainty sigma = 0.000011, epsilon = 0.000685
 c7bf                                   6      0.0000       0.00000       A     3.31524e-01     4.13423e-01    ;  uncertainty sigma = 0.000015, epsilon = 0.001170
 c8bf                                   6      0.0000       0.00000       A     3.39762e-01     4.50673e-01    ;  uncertainty sigma = 0.000011, epsilon = 0.001255
 c9bf                                   6      0.0000       0.00000       A     3.39750e-01     4.50544e-01    ;  uncertainty sigma = 0.000007, epsilon = 0.000791
 c10bf                                  6      0.0000       0.00000       A     3.31517e-01     4.13350e-01    ;  uncertainty sigma = 0.000003, epsilon = 0.000541
 c11bf                                  6      0.0000       0.00000       A     3.31519e-01     4.13304e-01    ;  uncertainty sigma = 0.000003, epsilon = 0.000583
 c12bf                                  6      0.0000       0.00000       A     3.31519e-01     4.13304e-01    ;  uncertainty sigma = 0.000003, epsilon = 0.000583
 o13bf                                  8      0.0000       0.00000       A     3.24257e-01     3.88598e-01    ;  uncertainty sigma = 0.000013, epsilon = 0.001596
 c14bf                                  6      0.0000       0.00000       A     3.31516e-01     4.13349e-01    ;  uncertainty sigma = 0.000011, epsilon = 0.000874
 c15bf                                  6      0.0000       0.00000       A     3.31502e-01     4.13579e-01    ;  uncertainty sigma = 0.000011, epsilon = 0.000388
 c16bf                                  6      0.0000       0.00000       A     3.31519e-01     4.13331e-01    ;  uncertainty sigma = 0.000003, epsilon = 0.000569
 c17bf                                  6      0.0000       0.00000       A     3.31517e-01     4.13350e-01    ;  uncertainty sigma = 0.000003, epsilon = 0.000541
 c18bf                                  6      0.0000       0.00000       A     3.31542e-01     4.12960e-01    ;  uncertainty sigma = 0.000004, epsilon = 0.000669
 n19bf                                  7      0.0000       0.00000       A     3.38417e-01     3.93373e-01    ;  uncertainty sigma = 0.000016, epsilon = 0.001202
 n20bf                                  7      0.0000       0.00000       A     3.38420e-01     3.93316e-01    ;  uncertainty sigma = 0.000015, epsilon = 0.000837
 n21bf                                  7      0.0000       0.00000       A     3.27787e-01     6.48850e-01    ;  uncertainty sigma = 0.000034, epsilon = 0.002592
 h22bf                                  1      0.0000       0.00000       A     2.62571e-01     6.70692e-02    ;  uncertainty sigma = 0.000010, epsilon = 0.000417
 c23bf                                  6      0.0000       0.00000       A     3.39781e-01     4.50895e-01    ;  uncertainty sigma = 0.000004, epsilon = 0.000531
 h24bf                                  1      0.0000       0.00000       A     2.62561e-01     6.70611e-02    ;  uncertainty sigma = 0.000009, epsilon = 0.000388
 h25bf                                  1      0.0000       0.00000       A     2.62541e-01     6.69041e-02    ;  uncertainty sigma = 0.000018, epsilon = 0.000969
 h26bf                                  1      0.0000       0.00000       A     2.42232e-01     8.67796e-02    ;  uncertainty sigma = 0.000037, epsilon = 0.000692
 h27bf                                  1      0.0000       0.00000       A     2.42232e-01     8.67796e-02    ;  uncertainty sigma = 0.000037, epsilon = 0.000692
 h28bf                                  1      0.0000       0.00000       A     2.42260e-01     8.69504e-02    ;  uncertainty sigma = 0.000011, epsilon = 0.000481
 h29bf                                  1      0.0000       0.00000       A     2.62558e-01     6.70324e-02    ;  uncertainty sigma = 0.000010, epsilon = 0.000442
 h30bf                                  1      0.0000       0.00000       A     2.62562e-01     6.70739e-02    ;  uncertainty sigma = 0.000004, epsilon = 0.000538
 h31bf                                  1      0.0000       0.00000       A     2.62562e-01     6.70739e-02    ;  uncertainty sigma = 0.000004, epsilon = 0.000538
 h32bf                                  1      0.0000       0.00000       A     5.38011e-02     1.91837e-02    ;  uncertainty sigma = 0.000073, epsilon = 0.000888
 h33bf                                  1      0.0000       0.00000       A     2.44735e-01     6.71447e-02    ;  uncertainty sigma = 0.000026, epsilon = 0.000712
 h34bf                                  1      0.0000       0.00000       A     2.62552e-01     6.70645e-02    ;  uncertainty sigma = 0.000011, epsilon = 0.000453
 h35bf                                  1      0.0000       0.00000       A     2.62558e-01     6.70324e-02    ;  uncertainty sigma = 0.000010, epsilon = 0.000442
 h36bf                                  1      0.0000       0.00000       A     1.10591e-01     4.16159e-02    ;  uncertainty sigma = 0.000130, epsilon = 0.000719
 h37bf                                  1      0.0000       0.00000       A     2.62559e-01     6.70250e-02    ;  uncertainty sigma = 0.000010, epsilon = 0.000440
 h38bf                                  1      0.0000       0.00000       A     2.62558e-01     6.70324e-02    ;  uncertainty sigma = 0.000010, epsilon = 0.000442
 h39bf                                  1      0.0000       0.00000       A     2.60029e-01     8.67217e-02    ;  uncertainty sigma = 0.000007, epsilon = 0.000441
 h40bf                                  1      0.0000       0.00000       A     2.60029e-01     8.67218e-02    ;  uncertainty sigma = 0.000007, epsilon = 0.000441
 h41bf                                  1      0.0000       0.00000       A     2.60029e-01     8.67217e-02    ;  uncertainty sigma = 0.000007, epsilon = 0.000441

[ moleculetype ]
;name             nrexcl
 MOL                   3

[ atoms ]
;       nr            type      resi   res      atom      cgnr      charge          mass ; qtot
         1            c0bf         1   UNL        c0         1    -0.16050       12.0110 ; qtot   -0.161
         2            c1bf         1   UNL        c1         2    -0.09690       12.0110 ; qtot   -0.257
         3            c2bf         1   UNL        c2         3    -0.03905       12.0110 ; qtot   -0.296
         4            c3bf         1   UNL        c3         4    -0.14373       12.0110 ; qtot   -0.440
         5            c4bf         1   UNL        c4         5    -0.14212       12.0110 ; qtot   -0.582
         6            c5bf         1   UNL        c5         6    -0.11126       12.0110 ; qtot   -0.694
         7            c6bf         1   UNL        c6         7     0.53122       12.0110 ; qtot   -0.162
         8            c7bf         1   UNL        c7         8    -0.42113       12.0110 ; qtot   -0.583
         9            c8bf         1   UNL        c8         9     0.20508       12.0110 ; qtot   -0.378
        10            c9bf         1   UNL        c9        10     0.17238       12.0110 ; qtot   -0.206
        11           c10bf         1   UNL       c10        11    -0.13212       12.0110 ; qtot   -0.338
        12           c11bf         1   UNL       c11        12    -0.11431       12.0110 ; qtot   -0.452
        13           c12bf         1   UNL       c12        13    -0.11431       12.0110 ; qtot   -0.567
        14           o13bf         1   UNL       o13        14    -0.60202       15.9990 ; qtot   -1.169
        15           c14bf         1   UNL       c14        15     0.69707       12.0110 ; qtot   -0.472
        16           c15bf         1   UNL       c15        16     0.67942       12.0110 ; qtot    0.208
        17           c16bf         1   UNL       c16        17    -0.12191       12.0110 ; qtot    0.086
        18           c17bf         1   UNL       c17        18    -0.13212       12.0110 ; qtot   -0.046
        19           c18bf         1   UNL       c18        19    -0.11806       12.0110 ; qtot   -0.164
        20           n19bf         1   UNL       n19        20    -0.77724       14.0070 ; qtot   -0.942
        21           n20bf         1   UNL       n20        21    -0.73420       14.0070 ; qtot   -1.676
        22           n21bf         1   UNL       n21        22    -0.87199       14.0070 ; qtot   -2.548
        23           h22bf         1   UNL       h22        23     0.13966        1.0080 ; qtot   -2.408
        24           c23bf         1   UNL       c23        24    -0.05165       12.0110 ; qtot   -2.460
        25           h24bf         1   UNL       h24        25     0.13238        1.0080 ; qtot   -2.327
        26           h25bf         1   UNL       h25        26     0.15404        1.0080 ; qtot   -2.173
        27           h26bf         1   UNL       h26        27     0.06384        1.0080 ; qtot   -2.110
        28           h27bf         1   UNL       h27        28     0.06384        1.0080 ; qtot   -2.046
        29           h28bf         1   UNL       h28        29     0.05801        1.0080 ; qtot   -1.988
        30           h29bf         1   UNL       h29        30     0.13206        1.0080 ; qtot   -1.856
        31           h30bf         1   UNL       h30        31     0.13699        1.0080 ; qtot   -1.719
        32           h31bf         1   UNL       h31        32     0.13699        1.0080 ; qtot   -1.582
        33           h32bf         1   UNL       h32        33     0.41310        1.0080 ; qtot   -1.169
        34           h33bf         1   UNL       h33        34     0.05077        1.0080 ; qtot   -1.118
        35           h34bf         1   UNL       h34        35     0.13198        1.0080 ; qtot   -0.986
        36           h35bf         1   UNL       h35        36     0.13206        1.0080 ; qtot   -0.854
        37           h36bf         1   UNL       h36        37     0.44064        1.0080 ; qtot   -0.413
        38           h37bf         1   UNL       h37        38     0.13577        1.0080 ; qtot   -0.277
        39           h38bf         1   UNL       h38        39     0.13244        1.0080 ; qtot   -0.145
        40           h39bf         1   UNL       h39        40     0.04830        1.0080 ; qtot   -0.097
        41           h40bf         1   UNL       h40        41     0.04830        1.0080 ; qtot   -0.048
        42           h41bf         1   UNL       h41        42     0.04828        1.0080 ; qtot    0.000

[ bonds ]
;       ai        aj funct               r               k
         1         2     1        0.140398   344684.860986    ;  uncertainty r = 0.000054, k = 3.028570
         1         3     1        0.141236   326390.280127    ;  uncertainty r = 0.000070, k = 9.820654
         1         7     1        0.148454   273317.833643    ;  uncertainty r = 0.000162, k = 1.727181
         2         4     1        0.139325   369152.144238    ;  uncertainty r = 0.000040, k = 2.044299
         2        23     1        0.108710   333440.897266    ;  uncertainty r = 0.000021, k = 0.872218
         3         5     1        0.140210   350142.371094    ;  uncertainty r = 0.000036, k = 1.926512
         3        24     1        0.151215   232834.007373    ;  uncertainty r = 0.000013, k = 2.530119
         4         6     1        0.139550   376883.044434    ;  uncertainty r = 0.000017, k = 1.010023
         4        38     1        0.108832   333172.936377    ;  uncertainty r = 0.000013, k = 0.999443
         5         6     1        0.139588   374081.546924    ;  uncertainty r = 0.000020, k = 2.169891
         5        25     1        0.108849   334286.022363    ;  uncertainty r = 0.000012, k = 0.942539
         6        39     1        0.108820   334264.775488    ;  uncertainty r = 0.000008, k = 0.901663
         7         8     1        0.140309   436461.171680    ;  uncertainty r = 0.000083, k = 15.332776
         7        21     1        0.135604   399052.932715    ;  uncertainty r = 0.000068, k = 8.856347
         8        15     1        0.142188   435751.904004    ;  uncertainty r = 0.000078, k = 4.573108
         8        26     1        0.108980   347601.735156    ;  uncertainty r = 0.000059, k = 3.627287
         9        10     1        0.153528   198932.485962    ;  uncertainty r = 0.000113, k = 4.485541
         9        22     1        0.144360   258703.533301    ;  uncertainty r = 0.000127, k = 5.188267
         9        27     1        0.109548   306948.010498    ;  uncertainty r = 0.000056, k = 1.476386
         9        28     1        0.109548   306948.010498    ;  uncertainty r = 0.000056, k = 1.476386
        10        14     1        0.143014   262792.254346    ;  uncertainty r = 0.000086, k = 14.622904
        10        19     1        0.151556   222180.461621    ;  uncertainty r = 0.000089, k = 7.017739
        10        29     1        0.109828   303256.263818    ;  uncertainty r = 0.000046, k = 1.650587
        11        12     1        0.139619   365954.387402    ;  uncertainty r = 0.000008, k = 1.292992
        11        17     1        0.139616   371124.732715    ;  uncertainty r = 0.000020, k = 1.036768
        11        30     1        0.108853   334096.639160    ;  uncertainty r = 0.000011, k = 0.985251
        12        19     1        0.139806   351916.766064    ;  uncertainty r = 0.000010, k = 1.187834
        12        31     1        0.108853   333813.534766    ;  uncertainty r = 0.000015, k = 0.555194
        13        18     1        0.139619   365954.387402    ;  uncertainty r = 0.000008, k = 1.292992
        13        19     1        0.139806   351916.766064    ;  uncertainty r = 0.000010, k = 1.187834
        13        32     1        0.108853   333813.534766    ;  uncertainty r = 0.000015, k = 0.555194
        14        33     1        0.097118   460583.525195    ;  uncertainty r = 0.000045, k = 3.102113
        15        20     1        0.135563   598530.699805    ;  uncertainty r = 0.000139, k = 9.101913
        15        22     1        0.139244   503022.932227    ;  uncertainty r = 0.000156, k = 11.982701
        16        20     1        0.134248   427021.200439    ;  uncertainty r = 0.000126, k = 12.560964
        16        21     1        0.133941   407740.274268    ;  uncertainty r = 0.000043, k = 10.059921
        16        34     1        0.108823   332455.624512    ;  uncertainty r = 0.000016, k = 3.398046
        17        18     1        0.139616   371124.758252    ;  uncertainty r = 0.000020, k = 1.036768
        17        35     1        0.108851   334582.457129    ;  uncertainty r = 0.000012, k = 0.680670
        18        36     1        0.108853   334096.639160    ;  uncertainty r = 0.000011, k = 0.985251
        22        37     1        0.101725   420522.644531    ;  uncertainty r = 0.000069, k = 3.098785
        24        40     1        0.109450   309454.273486    ;  uncertainty r = 0.000012, k = 1.640839
        24        41     1        0.109450   309454.273486    ;  uncertainty r = 0.000012, k = 1.640839
        24        42     1        0.109450   309454.273486    ;  uncertainty r = 0.000012, k = 1.640839

[ angles ]
;       ai        aj        ak funct           theta             cth
         1         2         4     1      122.003540      521.073832    ;  uncertainty theta = 0.002357, k = 0.068372
         1         2        23     1      118.104858      266.766167    ;  uncertainty theta = 0.001720, k = 0.095824
         1         3         5     1      121.660110      468.528516    ;  uncertainty theta = 0.005222, k = 0.058592
         1         3        24     1      118.923256      418.743059    ;  uncertainty theta = 0.001515, k = 0.129132
         1         7         8     1      121.882874      395.817885    ;  uncertainty theta = 0.005560, k = 0.189524
         1         7        21     1      118.687149      467.102141    ;  uncertainty theta = 0.004706, k = 0.144172
         2         1         3     1      123.794701      444.798795    ;  uncertainty theta = 0.003873, k = 0.168765
         2         1         7     1      117.039955      414.138686    ;  uncertainty theta = 0.003307, k = 0.086749
         2         4         6     1      118.386497      510.487423    ;  uncertainty theta = 0.001202, k = 0.041776
         2         4        38     1      120.495399      286.682080    ;  uncertainty theta = 0.000645, k = 0.049477
         3         1         7     1      117.734962      377.577813    ;  uncertainty theta = 0.002618, k = 0.195543
         3         5         6     1      122.112206      520.752287    ;  uncertainty theta = 0.001076, k = 0.092896
         3         5        25     1      118.164352      274.902577    ;  uncertainty theta = 0.001599, k = 0.090096
         3        24        40     1      109.916794      397.133398    ;  uncertainty theta = 0.000651, k = 0.037232
         3        24        41     1      109.916794      397.133398    ;  uncertainty theta = 0.000651, k = 0.037232
         3        24        42     1      109.916794      397.133398    ;  uncertainty theta = 0.000651, k = 0.037232
         4         2        23     1      120.425453      291.116758    ;  uncertainty theta = 0.001366, k = 0.020785
         4         6         5     1      118.174278      520.522996    ;  uncertainty theta = 0.001085, k = 0.050023
         4         6        39     1      120.784042      288.339598    ;  uncertainty theta = 0.001476, k = 0.021335
         5         3        24     1      119.939476      435.365323    ;  uncertainty theta = 0.003234, k = 0.116769
         5         6        39     1      120.352013      286.959923    ;  uncertainty theta = 0.001540, k = 0.017987
         6         4        38     1      121.073746      289.153465    ;  uncertainty theta = 0.001122, k = 0.029624
         6         5        25     1      120.273888      290.745704    ;  uncertainty theta = 0.000935, k = 0.037290
         7         8        15     1      117.440331      480.383863    ;  uncertainty theta = 0.007492, k = 0.327688
         7         8        26     1      122.481079      274.495771    ;  uncertainty theta = 0.002976, k = 0.190328
         7        21        16     1      113.923950      413.070661    ;  uncertainty theta = 0.005285, k = 0.170452
         8         7        21     1      121.365097      612.282906    ;  uncertainty theta = 0.003737, k = 0.136782
         8        15        20     1      120.383163      557.881521    ;  uncertainty theta = 0.004758, k = 0.124991
         8        15        22     1      124.409012      628.697202    ;  uncertainty theta = 0.005490, k = 0.103301
         9        10        14     1      108.648598      745.773101    ;  uncertainty theta = 0.001850, k = 0.090465
         9        10        19     1      111.675133      529.233800    ;  uncertainty theta = 0.002433, k = 0.102801
         9        10        29     1      107.655739      397.413157    ;  uncertainty theta = 0.001835, k = 0.063660
         9        22        15     1      115.022720      415.197008    ;  uncertainty theta = 0.003932, k = 0.139541
         9        22        37     1      111.930687      338.512452    ;  uncertainty theta = 0.006639, k = 0.093922
        10         9        22     1      109.072731      588.135334    ;  uncertainty theta = 0.003588, k = 0.076167
        10         9        27     1      108.264954      386.766225    ;  uncertainty theta = 0.001128, k = 0.087129
        10         9        28     1      108.264954      386.766225    ;  uncertainty theta = 0.001128, k = 0.087129
        10        14        33     1      107.778908      462.824962    ;  uncertainty theta = 0.002314, k = 0.060682
        10        19        12     1      119.990318      398.450314    ;  uncertainty theta = 0.001704, k = 0.122614
        10        19        13     1      119.990318      398.450314    ;  uncertainty theta = 0.001704, k = 0.122614
        11        12        19     1      120.930702      517.466172    ;  uncertainty theta = 0.001222, k = 0.047814
        11        12        31     1      120.258339      291.729553    ;  uncertainty theta = 0.002156, k = 0.015437
        11        17        18     1      118.312904      525.474865    ;  uncertainty theta = 0.001259, k = 0.033725
        11        17        35     1      120.606750      289.256635    ;  uncertainty theta = 0.001707, k = 0.007155
        12        11        17     1      119.668961      514.607037    ;  uncertainty theta = 0.000852, k = 0.027695
        12        11        30     1      120.182228      283.193264    ;  uncertainty theta = 0.001483, k = 0.023123
        12        19        13     1      120.620529      467.609435    ;  uncertainty theta = 0.001046, k = 0.044080
        13        18        17     1      119.668961      514.607037    ;  uncertainty theta = 0.000852, k = 0.027695
        13        18        36     1      120.182228      283.193264    ;  uncertainty theta = 0.001483, k = 0.023123
        14        10        19     1      111.132469      757.316130    ;  uncertainty theta = 0.001813, k = 0.056225
        14        10        29     1      107.460892      475.171803    ;  uncertainty theta = 0.003128, k = 0.059555
        15         8        26     1      122.975510      278.302237    ;  uncertainty theta = 0.002542, k = 0.088473
        15        20        16     1      114.208336      402.225401    ;  uncertainty theta = 0.007184, k = 0.116286
        15        22        37     1      114.952065      412.285969    ;  uncertainty theta = 0.001414, k = 0.081088
        17        11        30     1      120.593102      287.981121    ;  uncertainty theta = 0.001462, k = 0.008017
        17        18        36     1      120.593102      287.981121    ;  uncertainty theta = 0.001462, k = 0.008017
        18        13        19     1      120.930702      517.466172    ;  uncertainty theta = 0.001222, k = 0.047814
        18        13        32     1      120.258339      291.729553    ;  uncertainty theta = 0.002156, k = 0.015437
        18        17        35     1      120.606750      289.256635    ;  uncertainty theta = 0.001707, k = 0.007155
        19        10        29     1      107.338806      403.998379    ;  uncertainty theta = 0.003013, k = 0.110102
        19        12        31     1      118.778320      265.740150    ;  uncertainty theta = 0.001504, k = 0.035529
        19        13        32     1      118.778320      265.740150    ;  uncertainty theta = 0.001504, k = 0.035529
        20        15        22     1      122.203979      876.041727    ;  uncertainty theta = 0.006036, k = 0.092665
        20        16        21     1      127.342773      927.833155    ;  uncertainty theta = 0.003318, k = 0.104741
        20        16        34     1      115.958923      303.662438    ;  uncertainty theta = 0.004108, k = 0.062101
        21        16        34     1      116.254272      309.169420    ;  uncertainty theta = 0.004284, k = 0.070684
        22         9        27     1      106.848366      448.950650    ;  uncertainty theta = 0.001286, k = 0.079205
        22         9        28     1      106.848366      448.950650    ;  uncertainty theta = 0.001286, k = 0.079205
        27         9        28     1      106.681496      323.153860    ;  uncertainty theta = 0.001150, k = 0.024224
        40        24        41     1      106.681236      317.133455    ;  uncertainty theta = 0.001091, k = 0.028619
        40        24        42     1      106.681236      317.133455    ;  uncertainty theta = 0.001091, k = 0.028619
        41        24        42     1      106.681236      317.133455    ;  uncertainty theta = 0.001091, k = 0.028619

[ dihedrals ] ; propers for gromacs 4.5 or higher, use funct 9
;       ai        aj        ak        al funct           phase               k        pn
         1         2         4         6     9        0.000000        0.022434         1    ;  uncertainty k = 0.188173
         1         2         4         6     9      180.000000       13.708241         2    ;  uncertainty k = 0.293005
         1         2         4         6     9        0.000000       -1.000268         3    ;  uncertainty k = 0.574116
         1         2         4         6     9      180.000000        0.751587         4    ;  uncertainty k = 0.244491
         1         2         4        38     9        0.000000       -0.034813         1    ;  uncertainty k = 0.135367
         1         2         4        38     9      180.000000        7.400706         2    ;  uncertainty k = 0.355909
         1         2         4        38     9        0.000000        1.400155         3    ;  uncertainty k = 0.210875
         1         2         4        38     9      180.000000        1.832170         4    ;  uncertainty k = 0.190556
         1         3         5         6     9        0.000000        0.056840         1    ;  uncertainty k = 0.131755
         1         3         5         6     9      180.000000       10.605820         2    ;  uncertainty k = 0.462503
         1         3         5         6     9        0.000000        0.101697         3    ;  uncertainty k = 0.308839
         1         3         5         6     9      180.000000        1.127448         4    ;  uncertainty k = 0.330967
         1         3         5        25     9        0.000000        0.009313         1    ;  uncertainty k = 0.275766
         1         3         5        25     9      180.000000        7.171071         2    ;  uncertainty k = 0.358049
         1         3         5        25     9        0.000000        1.560933         3    ;  uncertainty k = 0.202839
         1         3         5        25     9      180.000000        1.698931         4    ;  uncertainty k = 0.148048
         1         3        24        40     9        0.000000        0.237915         1    ;  uncertainty k = 0.252834
         1         3        24        40     9      180.000000        2.114707         2    ;  uncertainty k = 0.201818
         1         3        24        40     9        0.000000        0.417086         3    ;  uncertainty k = 0.059646
         1         3        24        40     9      180.000000        0.321658         4    ;  uncertainty k = 0.052396
         1         3        24        41     9        0.000000        0.237915         1    ;  uncertainty k = 0.252834
         1         3        24        41     9      180.000000        2.114707         2    ;  uncertainty k = 0.201818
         1         3        24        41     9        0.000000        0.417086         3    ;  uncertainty k = 0.059646
         1         3        24        41     9      180.000000        0.321658         4    ;  uncertainty k = 0.052396
         1         3        24        42     9        0.000000        0.237915         1    ;  uncertainty k = 0.252834
         1         3        24        42     9      180.000000        2.114707         2    ;  uncertainty k = 0.201818
         1         3        24        42     9        0.000000        0.417086         3    ;  uncertainty k = 0.059646
         1         3        24        42     9      180.000000        0.321658         4    ;  uncertainty k = 0.052396
         1         7         8        15     9        0.000000       -0.232543         1    ;  uncertainty k = 0.680312
         1         7         8        15     9      180.000000        7.606360         2    ;  uncertainty k = 1.029087
         1         7         8        15     9        0.000000        0.624166         3    ;  uncertainty k = 0.345348
         1         7         8        15     9      180.000000        1.210896         4    ;  uncertainty k = 0.316399
         1         7         8        26     9        0.000000       -0.081245         1    ;  uncertainty k = 0.823112
         1         7         8        26     9      180.000000        6.749447         2    ;  uncertainty k = 0.339091
         1         7         8        26     9        0.000000        0.582709         3    ;  uncertainty k = 0.263445
         1         7         8        26     9      180.000000        0.925188         4    ;  uncertainty k = 0.195090
         1         7        21        16     9        0.000000       -0.012724         1    ;  uncertainty k = 0.387726
         1         7        21        16     9      180.000000       14.351909         2    ;  uncertainty k = 0.451571
         1         7        21        16     9        0.000000        2.132388         3    ;  uncertainty k = 0.460261
         1         7        21        16     9      180.000000        1.565908         4    ;  uncertainty k = 0.345934
         2         1         3         5     9        0.000000       -0.041152         1    ;  uncertainty k = 0.466136
         2         1         3         5     9      180.000000        7.824694         2    ;  uncertainty k = 0.476482
         2         1         3         5     9        0.000000        0.099330         3    ;  uncertainty k = 0.305656
         2         1         3         5     9      180.000000        1.166902         4    ;  uncertainty k = 0.283764
         2         1         3        24     9        0.000000        0.143849         1    ;  uncertainty k = 0.256510
         2         1         3        24     9      180.000000        7.666829         2    ;  uncertainty k = 0.513060
         2         1         3        24     9        0.000000        1.202331         3    ;  uncertainty k = 0.263592
         2         1         3        24     9      180.000000        1.752984         4    ;  uncertainty k = 0.240588
         2         1         7         8     9        0.000000       -0.088709         1    ;  uncertainty k = 0.326638
         2         1         7         8     9      180.000000        4.566006         2    ;  uncertainty k = 0.336712
         2         1         7         8     9        0.000000        0.600601         3    ;  uncertainty k = 0.162210
         2         1         7         8     9      180.000000        0.153204         4    ;  uncertainty k = 0.051192
         2         1         7        21     9        0.000000        1.442173         1    ;  uncertainty k = 0.328773
         2         1         7        21     9      180.000000        5.791557         2    ;  uncertainty k = 0.097511
         2         1         7        21     9        0.000000        0.558793         3    ;  uncertainty k = 0.228234
         2         1         7        21     9      180.000000        0.227677         4    ;  uncertainty k = 0.061797
         2         4         6         5     9        0.000000        0.088674         1    ;  uncertainty k = 0.102053
         2         4         6         5     9      180.000000       15.026070         2    ;  uncertainty k = 0.318579
         2         4         6         5     9        0.000000       -1.312395         3    ;  uncertainty k = 0.454408
         2         4         6         5     9      180.000000        0.526939         4    ;  uncertainty k = 0.263171
         2         4         6        39     9        0.000000        0.120602         1    ;  uncertainty k = 0.098100
         2         4         6        39     9      180.000000        7.407367         2    ;  uncertainty k = 0.294367
         2         4         6        39     9        0.000000        1.462713         3    ;  uncertainty k = 0.281314
         2         4         6        39     9      180.000000        1.766516         4    ;  uncertainty k = 0.115961
         3         1         2         4     9        0.000000        0.029909         1    ;  uncertainty k = 0.062604
         3         1         2         4     9      180.000000       10.748257         2    ;  uncertainty k = 0.247221
         3         1         2         4     9        0.000000       -0.134236         3    ;  uncertainty k = 0.318330
         3         1         2         4     9      180.000000        1.015988         4    ;  uncertainty k = 0.310729
         3         1         2        23     9        0.000000        0.166689         1    ;  uncertainty k = 0.259959
         3         1         2        23     9      180.000000        7.068411         2    ;  uncertainty k = 0.441656
         3         1         2        23     9        0.000000        1.356645         3    ;  uncertainty k = 0.200110
         3         1         2        23     9      180.000000        1.601301         4    ;  uncertainty k = 0.119423
         3         1         7         8     9        0.000000        0.468023         1    ;  uncertainty k = 0.621945
         3         1         7         8     9      180.000000        4.704691         2    ;  uncertainty k = 0.121388
         3         1         7         8     9        0.000000        0.036602         3    ;  uncertainty k = 0.169719
         3         1         7         8     9      180.000000        0.235003         4    ;  uncertainty k = 0.169329
         3         1         7        21     9        0.000000        1.127073         1    ;  uncertainty k = 0.646547
         3         1         7        21     9      180.000000        5.663693         2    ;  uncertainty k = 0.229802
         3         1         7        21     9        0.000000        0.994307         3    ;  uncertainty k = 0.255359
         3         1         7        21     9      180.000000        0.278883         4    ;  uncertainty k = 0.111501
         3         5         6         4     9        0.000000       -0.076655         1    ;  uncertainty k = 0.184303
         3         5         6         4     9      180.000000       13.882515         2    ;  uncertainty k = 0.260886
         3         5         6         4     9        0.000000       -0.919929         3    ;  uncertainty k = 0.487143
         3         5         6         4     9      180.000000        0.695220         4    ;  uncertainty k = 0.227708
         3         5         6        39     9        0.000000        0.123063         1    ;  uncertainty k = 0.208640
         3         5         6        39     9      180.000000        7.088837         2    ;  uncertainty k = 0.301410
         3         5         6        39     9        0.000000        1.479230         3    ;  uncertainty k = 0.226036
         3         5         6        39     9      180.000000        1.804072         4    ;  uncertainty k = 0.094223
         4         2         1         7     9        0.000000        0.162560         1    ;  uncertainty k = 0.340270
         4         2         1         7     9      180.000000        9.361400         2    ;  uncertainty k = 0.636075
         4         2         1         7     9        0.000000        1.294341         3    ;  uncertainty k = 0.454809
         4         2         1         7     9      180.000000        1.802527         4    ;  uncertainty k = 0.216174
         4         6         5        25     9        0.000000        0.094971         1    ;  uncertainty k = 0.135843
         4         6         5        25     9      180.000000        8.023299         2    ;  uncertainty k = 0.313329
         4         6         5        25     9        0.000000        1.391142         3    ;  uncertainty k = 0.306908
         4         6         5        25     9      180.000000        1.838625         4    ;  uncertainty k = 0.163569
         5         3         1         7     9        0.000000        0.254072         1    ;  uncertainty k = 0.314331
         5         3         1         7     9      180.000000        7.716745         2    ;  uncertainty k = 0.479199
         5         3         1         7     9        0.000000        1.473868         3    ;  uncertainty k = 0.332500
         5         3         1         7     9      180.000000        1.742928         4    ;  uncertainty k = 0.201850
         5         3        24        40     9        0.000000       -0.116583         1    ;  uncertainty k = 0.150586
         5         3        24        40     9      180.000000        1.657493         2    ;  uncertainty k = 0.147826
         5         3        24        40     9        0.000000        0.364861         3    ;  uncertainty k = 0.063952
         5         3        24        40     9      180.000000        0.244756         4    ;  uncertainty k = 0.015964
         5         3        24        41     9        0.000000       -0.116583         1    ;  uncertainty k = 0.150586
         5         3        24        41     9      180.000000        1.657493         2    ;  uncertainty k = 0.147826
         5         3        24        41     9        0.000000        0.364861         3    ;  uncertainty k = 0.063952
         5         3        24        41     9      180.000000        0.244756         4    ;  uncertainty k = 0.015964
         5         3        24        42     9        0.000000       -0.116583         1    ;  uncertainty k = 0.150586
         5         3        24        42     9      180.000000        1.657493         2    ;  uncertainty k = 0.147826
         5         3        24        42     9        0.000000        0.364861         3    ;  uncertainty k = 0.063952
         5         3        24        42     9      180.000000        0.244756         4    ;  uncertainty k = 0.015964
         5         6         4        38     9        0.000000        0.109717         1    ;  uncertainty k = 0.150779
         5         6         4        38     9      180.000000        7.615674         2    ;  uncertainty k = 0.323693
         5         6         4        38     9        0.000000        1.446701         3    ;  uncertainty k = 0.287835
         5         6         4        38     9      180.000000        1.776224         4    ;  uncertainty k = 0.126562
         6         4         2        23     9        0.000000        0.081150         1    ;  uncertainty k = 0.096876
         6         4         2        23     9      180.000000        7.799271         2    ;  uncertainty k = 0.193440
         6         4         2        23     9        0.000000        1.377901         3    ;  uncertainty k = 0.286349
         6         4         2        23     9      180.000000        1.836210         4    ;  uncertainty k = 0.223766
         6         5         3        24     9        0.000000        0.109411         1    ;  uncertainty k = 0.180390
         6         5         3        24     9      180.000000       10.408261         2    ;  uncertainty k = 0.375352
         6         5         3        24     9        0.000000        1.325040         3    ;  uncertainty k = 0.244661
         6         5         3        24     9      180.000000        1.787144         4    ;  uncertainty k = 0.192134
         7         1         2        23     9        0.000000       -0.320171         1    ;  uncertainty k = 0.099586
         7         1         2        23     9      180.000000        7.883302         2    ;  uncertainty k = 0.149427
         7         1         2        23     9        0.000000        0.784852         3    ;  uncertainty k = 0.156567
         7         1         2        23     9      180.000000        1.276599         4    ;  uncertainty k = 0.069393
         7         1         3        24     9        0.000000       -0.063029         1    ;  uncertainty k = 0.418914
         7         1         3        24     9      180.000000        9.225674         2    ;  uncertainty k = 0.268650
         7         1         3        24     9        0.000000        0.903231         3    ;  uncertainty k = 0.188446
         7         1         3        24     9      180.000000        1.368222         4    ;  uncertainty k = 0.184857
         7         8        15        20     9        0.000000       -0.425307         1    ;  uncertainty k = 0.381148
         7         8        15        20     9      180.000000        7.881421         2    ;  uncertainty k = 0.716726
         7         8        15        20     9        0.000000       -0.936982         3    ;  uncertainty k = 0.624138
         7         8        15        20     9      180.000000        1.160120         4    ;  uncertainty k = 0.294542
         7         8        15        22     9        0.000000       -0.876362         1    ;  uncertainty k = 0.837224
         7         8        15        22     9      180.000000        6.423986         2    ;  uncertainty k = 0.296173
         7         8        15        22     9        0.000000        0.065347         3    ;  uncertainty k = 0.334097
         7         8        15        22     9      180.000000        0.893329         4    ;  uncertainty k = 0.192382
         7        21        16        20     9        0.000000       -0.850733         1    ;  uncertainty k = 0.570430
         7        21        16        20     9      180.000000       16.668241         2    ;  uncertainty k = 0.355039
         7        21        16        20     9        0.000000        0.064341         3    ;  uncertainty k = 0.425898
         7        21        16        20     9      180.000000        1.190665         4    ;  uncertainty k = 0.351020
         7        21        16        34     9        0.000000       -0.330300         1    ;  uncertainty k = 0.351943
         7        21        16        34     9      180.000000       12.426667         2    ;  uncertainty k = 0.421989
         7        21        16        34     9        0.000000        1.664647         3    ;  uncertainty k = 0.619727
         7        21        16        34     9      180.000000        1.286567         4    ;  uncertainty k = 0.449579
         8         7        21        16     9        0.000000       -0.227701         1    ;  uncertainty k = 0.777980
         8         7        21        16     9      180.000000       13.471559         2    ;  uncertainty k = 0.541101
         8         7        21        16     9        0.000000        0.300204         3    ;  uncertainty k = 0.976519
         8         7        21        16     9      180.000000        1.105460         4    ;  uncertainty k = 0.332880
         8        15        20        16     9        0.000000       -0.404168         1    ;  uncertainty k = 0.820088
         8        15        20        16     9      180.000000        9.909580         2    ;  uncertainty k = 0.542249
         8        15        20        16     9        0.000000        0.493511         3    ;  uncertainty k = 0.804031
         8        15        20        16     9      180.000000        1.045753         4    ;  uncertainty k = 0.152195
         8        15        22         9     9        0.000000        5.708955         1    ;  uncertainty k = 0.529244
         8        15        22         9     9      180.000000        9.197647         2    ;  uncertainty k = 0.240408
         8        15        22         9     9        0.000000        0.700847         3    ;  uncertainty k = 0.236430
         8        15        22         9     9      180.000000       -0.438261         4    ;  uncertainty k = 0.179179
         8        15        22        37     9        0.000000        4.280342         1    ;  uncertainty k = 0.427063
         8        15        22        37     9      180.000000        7.948866         2    ;  uncertainty k = 0.170471
         8        15        22        37     9        0.000000        1.265725         3    ;  uncertainty k = 0.217430
         8        15        22        37     9      180.000000       -0.409779         4    ;  uncertainty k = 0.197675
         9        10        14        33     9        0.000000       16.539194         1    ;  uncertainty k = 0.182172
         9        10        14        33     9      180.000000       -3.181446         2    ;  uncertainty k = 0.394315
         9        10        14        33     9        0.000000        1.050863         3    ;  uncertainty k = 0.081907
         9        10        14        33     9      180.000000        0.368805         4    ;  uncertainty k = 0.156069
         9        10        19        12     9        0.000000       -0.273818         1    ;  uncertainty k = 0.106175
         9        10        19        12     9      180.000000        2.079481         2    ;  uncertainty k = 0.182501
         9        10        19        12     9        0.000000        0.512262         3    ;  uncertainty k = 0.147544
         9        10        19        12     9      180.000000        0.343982         4    ;  uncertainty k = 0.021980
         9        10        19        13     9        0.000000       -0.273818         1    ;  uncertainty k = 0.106175
         9        10        19        13     9      180.000000        2.079481         2    ;  uncertainty k = 0.182501
         9        10        19        13     9        0.000000        0.512262         3    ;  uncertainty k = 0.147544
         9        10        19        13     9      180.000000        0.343982         4    ;  uncertainty k = 0.021980
         9        22        15        20     9        0.000000        8.533711         1    ;  uncertainty k = 0.435190
         9        22        15        20     9      180.000000       12.802851         2    ;  uncertainty k = 0.140763
         9        22        15        20     9        0.000000        1.500694         3    ;  uncertainty k = 0.229157
         9        22        15        20     9      180.000000       -0.498831         4    ;  uncertainty k = 0.087310
        10         9        22        15     9        0.000000       -0.181203         1    ;  uncertainty k = 0.437855
        10         9        22        15     9      180.000000       -0.656643         2    ;  uncertainty k = 0.612261
        10         9        22        15     9        0.000000        0.233868         3    ;  uncertainty k = 0.313268
        10         9        22        15     9      180.000000        0.414120         4    ;  uncertainty k = 0.035681
        10         9        22        37     9        0.000000        3.680901         1    ;  uncertainty k = 0.713382
        10         9        22        37     9      180.000000       -3.627771         2    ;  uncertainty k = 0.381036
        10         9        22        37     9        0.000000        0.657609         3    ;  uncertainty k = 0.120801
        10         9        22        37     9      180.000000       -0.046604         4    ;  uncertainty k = 0.144754
        10        19        12        11     9        0.000000        0.277494         1    ;  uncertainty k = 0.259279
        10        19        12        11     9      180.000000        9.380655         2    ;  uncertainty k = 0.580889
        10        19        12        11     9        0.000000        1.260903         3    ;  uncertainty k = 0.297020
        10        19        12        11     9      180.000000        1.849205         4    ;  uncertainty k = 0.223533
        10        19        12        31     9        0.000000       -0.044601         1    ;  uncertainty k = 0.495487
        10        19        12        31     9      180.000000        7.557641         2    ;  uncertainty k = 0.152609
        10        19        12        31     9        0.000000        0.648505         3    ;  uncertainty k = 0.330112
        10        19        12        31     9      180.000000        0.986671         4    ;  uncertainty k = 0.169058
        10        19        13        18     9        0.000000        0.277494         1    ;  uncertainty k = 0.259279
        10        19        13        18     9      180.000000        9.380655         2    ;  uncertainty k = 0.580889
        10        19        13        18     9        0.000000        1.260903         3    ;  uncertainty k = 0.297020
        10        19        13        18     9      180.000000        1.849205         4    ;  uncertainty k = 0.223533
        10        19        13        32     9        0.000000       -0.044601         1    ;  uncertainty k = 0.495487
        10        19        13        32     9      180.000000        7.557641         2    ;  uncertainty k = 0.152609
        10        19        13        32     9        0.000000        0.648505         3    ;  uncertainty k = 0.330112
        10        19        13        32     9      180.000000        0.986671         4    ;  uncertainty k = 0.169058
        11        12        19        13     9        0.000000       -0.165953         1    ;  uncertainty k = 0.169992
        11        12        19        13     9      180.000000       11.757607         2    ;  uncertainty k = 0.401729
        11        12        19        13     9        0.000000       -0.505821         3    ;  uncertainty k = 0.348703
        11        12        19        13     9      180.000000        0.798513         4    ;  uncertainty k = 0.397673
        11        17        18        13     9        0.000000       -0.003189         1    ;  uncertainty k = 0.038440
        11        17        18        13     9      180.000000       15.016788         2    ;  uncertainty k = 0.249663
        11        17        18        13     9        0.000000       -1.210513         3    ;  uncertainty k = 0.492875
        11        17        18        13     9      180.000000        0.498916         4    ;  uncertainty k = 0.293179
        11        17        18        36     9        0.000000        0.038009         1    ;  uncertainty k = 0.035822
        11        17        18        36     9      180.000000        7.549305         2    ;  uncertainty k = 0.334350
        11        17        18        36     9        0.000000        1.438249         3    ;  uncertainty k = 0.318741
        11        17        18        36     9      180.000000        1.792783         4    ;  uncertainty k = 0.163179
        12        11        17        18     9        0.000000       -0.003189         1    ;  uncertainty k = 0.038440
        12        11        17        18     9      180.000000       15.016788         2    ;  uncertainty k = 0.249663
        12        11        17        18     9        0.000000       -1.210513         3    ;  uncertainty k = 0.492875
        12        11        17        18     9      180.000000        0.498916         4    ;  uncertainty k = 0.293179
        12        11        17        35     9        0.000000        0.056378         1    ;  uncertainty k = 0.091793
        12        11        17        35     9      180.000000        7.450064         2    ;  uncertainty k = 0.356222
        12        11        17        35     9        0.000000        1.472207         3    ;  uncertainty k = 0.287391
        12        11        17        35     9      180.000000        1.800180         4    ;  uncertainty k = 0.190036
        12        19        10        14     9        0.000000       -1.453975         1    ;  uncertainty k = 0.447986
        12        19        10        14     9      180.000000        3.360421         2    ;  uncertainty k = 0.198780
        12        19        10        14     9        0.000000        0.848407         3    ;  uncertainty k = 0.189850
        12        19        10        14     9      180.000000        0.435805         4    ;  uncertainty k = 0.036604
        12        19        10        29     9        0.000000       -0.600193         1    ;  uncertainty k = 0.218608
        12        19        10        29     9      180.000000        1.966965         2    ;  uncertainty k = 0.154440
        12        19        10        29     9        0.000000        0.553661         3    ;  uncertainty k = 0.127024
        12        19        10        29     9      180.000000        0.313797         4    ;  uncertainty k = 0.019730
        12        19        13        18     9        0.000000       -0.165953         1    ;  uncertainty k = 0.169992
        12        19        13        18     9      180.000000       11.757607         2    ;  uncertainty k = 0.401729
        12        19        13        18     9        0.000000       -0.505821         3    ;  uncertainty k = 0.348703
        12        19        13        18     9      180.000000        0.798513         4    ;  uncertainty k = 0.397673
        12        19        13        32     9        0.000000        0.131870         1    ;  uncertainty k = 0.167883
        12        19        13        32     9      180.000000        7.224544         2    ;  uncertainty k = 0.567570
        12        19        13        32     9        0.000000        1.415746         3    ;  uncertainty k = 0.327246
        12        19        13        32     9      180.000000        1.668075         4    ;  uncertainty k = 0.170613
        13        18        17        35     9        0.000000        0.056378         1    ;  uncertainty k = 0.091793
        13        18        17        35     9      180.000000        7.450064         2    ;  uncertainty k = 0.356222
        13        18        17        35     9        0.000000        1.472207         3    ;  uncertainty k = 0.287391
        13        18        17        35     9      180.000000        1.800180         4    ;  uncertainty k = 0.190036
        13        19        10        14     9        0.000000       -1.453975         1    ;  uncertainty k = 0.447986
        13        19        10        14     9      180.000000        3.360421         2    ;  uncertainty k = 0.198780
        13        19        10        14     9        0.000000        0.848407         3    ;  uncertainty k = 0.189850
        13        19        10        14     9      180.000000        0.435805         4    ;  uncertainty k = 0.036604
        13        19        10        29     9        0.000000       -0.600193         1    ;  uncertainty k = 0.218608
        13        19        10        29     9      180.000000        1.966965         2    ;  uncertainty k = 0.154440
        13        19        10        29     9        0.000000        0.553661         3    ;  uncertainty k = 0.127024
        13        19        10        29     9      180.000000        0.313797         4    ;  uncertainty k = 0.019730
        13        19        12        31     9        0.000000        0.131870         1    ;  uncertainty k = 0.167883
        13        19        12        31     9      180.000000        7.224544         2    ;  uncertainty k = 0.567570
        13        19        12        31     9        0.000000        1.415746         3    ;  uncertainty k = 0.327246
        13        19        12        31     9      180.000000        1.668075         4    ;  uncertainty k = 0.170613
        14        10         9        22     9        0.000000       -0.052607         1    ;  uncertainty k = 0.764083
        14        10         9        22     9      180.000000       -0.749437         2    ;  uncertainty k = 0.395318
        14        10         9        22     9        0.000000        1.713416         3    ;  uncertainty k = 0.321039
        14        10         9        22     9      180.000000       -0.561414         4    ;  uncertainty k = 0.195159
        14        10         9        27     9        0.000000       -1.242394         1    ;  uncertainty k = 0.559340
        14        10         9        27     9      180.000000       -0.234284         2    ;  uncertainty k = 0.168601
        14        10         9        27     9        0.000000        1.039378         3    ;  uncertainty k = 0.150261
        14        10         9        27     9      180.000000       -0.102798         4    ;  uncertainty k = 0.150575
        14        10         9        28     9        0.000000       -1.242394         1    ;  uncertainty k = 0.559340
        14        10         9        28     9      180.000000       -0.234284         2    ;  uncertainty k = 0.168601
        14        10         9        28     9        0.000000        1.039378         3    ;  uncertainty k = 0.150261
        14        10         9        28     9      180.000000       -0.102798         4    ;  uncertainty k = 0.150575
        15         8         7        21     9        0.000000       -0.229386         1    ;  uncertainty k = 0.512491
        15         8         7        21     9      180.000000       12.702257         2    ;  uncertainty k = 0.435421
        15         8         7        21     9        0.000000       -1.088173         3    ;  uncertainty k = 0.628575
        15         8         7        21     9      180.000000        1.019472         4    ;  uncertainty k = 0.299655
        15        20        16        21     9        0.000000       -0.733193         1    ;  uncertainty k = 1.179507
        15        20        16        21     9      180.000000       15.832542         2    ;  uncertainty k = 0.388333
        15        20        16        21     9        0.000000       -0.282177         3    ;  uncertainty k = 0.330189
        15        20        16        21     9      180.000000        0.997163         4    ;  uncertainty k = 0.182132
        15        20        16        34     9        0.000000       -0.392488         1    ;  uncertainty k = 0.864220
        15        20        16        34     9      180.000000       12.489467         2    ;  uncertainty k = 0.378782
        15        20        16        34     9        0.000000        1.355690         3    ;  uncertainty k = 0.760379
        15        20        16        34     9      180.000000        0.853020         4    ;  uncertainty k = 0.299132
        15        22         9        27     9        0.000000       -1.147632         1    ;  uncertainty k = 0.263721
        15        22         9        27     9      180.000000       -0.482322         2    ;  uncertainty k = 0.302946
        15        22         9        27     9        0.000000        0.226739         3    ;  uncertainty k = 0.211259
        15        22         9        27     9      180.000000        0.248702         4    ;  uncertainty k = 0.013743
        15        22         9        28     9        0.000000       -1.147632         1    ;  uncertainty k = 0.263721
        15        22         9        28     9      180.000000       -0.482322         2    ;  uncertainty k = 0.302946
        15        22         9        28     9        0.000000        0.226739         3    ;  uncertainty k = 0.211259
        15        22         9        28     9      180.000000        0.248702         4    ;  uncertainty k = 0.013743
        16        20        15        22     9        0.000000       -0.152560         1    ;  uncertainty k = 1.153662
        16        20        15        22     9      180.000000       12.736509         2    ;  uncertainty k = 0.218695
        16        20        15        22     9        0.000000        2.232715         3    ;  uncertainty k = 0.423520
        16        20        15        22     9      180.000000        1.585263         4    ;  uncertainty k = 0.416482
        17        11        12        19     9        0.000000       -0.091981         1    ;  uncertainty k = 0.109878
        17        11        12        19     9      180.000000       13.825977         2    ;  uncertainty k = 0.203920
        17        11        12        19     9        0.000000       -0.976820         3    ;  uncertainty k = 0.497977
        17        11        12        19     9      180.000000        0.702825         4    ;  uncertainty k = 0.246026
        17        11        12        31     9        0.000000        0.043151         1    ;  uncertainty k = 0.053762
        17        11        12        31     9      180.000000        7.853416         2    ;  uncertainty k = 0.298299
        17        11        12        31     9        0.000000        1.416969         3    ;  uncertainty k = 0.297576
        17        11        12        31     9      180.000000        1.844954         4    ;  uncertainty k = 0.168713
        17        18        13        19     9        0.000000       -0.091981         1    ;  uncertainty k = 0.109878
        17        18        13        19     9      180.000000       13.825977         2    ;  uncertainty k = 0.203920
        17        18        13        19     9        0.000000       -0.976820         3    ;  uncertainty k = 0.497977
        17        18        13        19     9      180.000000        0.702825         4    ;  uncertainty k = 0.246026
        17        18        13        32     9        0.000000        0.043151         1    ;  uncertainty k = 0.053762
        17        18        13        32     9      180.000000        7.853416         2    ;  uncertainty k = 0.298299
        17        18        13        32     9        0.000000        1.416969         3    ;  uncertainty k = 0.297576
        17        18        13        32     9      180.000000        1.844954         4    ;  uncertainty k = 0.168713
        18        17        11        30     9        0.000000        0.038009         1    ;  uncertainty k = 0.035822
        18        17        11        30     9      180.000000        7.549305         2    ;  uncertainty k = 0.334350
        18        17        11        30     9        0.000000        1.438249         3    ;  uncertainty k = 0.318741
        18        17        11        30     9      180.000000        1.792783         4    ;  uncertainty k = 0.163179
        19        10         9        22     9        0.000000       -2.195261         1    ;  uncertainty k = 0.395882
        19        10         9        22     9      180.000000       -0.031057         2    ;  uncertainty k = 0.681736
        19        10         9        22     9        0.000000        2.005161         3    ;  uncertainty k = 0.343930
        19        10         9        22     9      180.000000        0.115840         4    ;  uncertainty k = 0.059502
        19        10         9        27     9        0.000000       -0.032425         1    ;  uncertainty k = 0.325911
        19        10         9        27     9      180.000000        0.090710         2    ;  uncertainty k = 0.447956
        19        10         9        27     9        0.000000        0.614218         3    ;  uncertainty k = 0.070661
        19        10         9        27     9      180.000000       -0.058272         4    ;  uncertainty k = 0.097588
        19        10         9        28     9        0.000000       -0.032425         1    ;  uncertainty k = 0.325911
        19        10         9        28     9      180.000000        0.090710         2    ;  uncertainty k = 0.447956
        19        10         9        28     9        0.000000        0.614218         3    ;  uncertainty k = 0.070661
        19        10         9        28     9      180.000000       -0.058272         4    ;  uncertainty k = 0.097588
        19        10        14        33     9        0.000000       15.207439         1    ;  uncertainty k = 0.126759
        19        10        14        33     9      180.000000       -2.891249         2    ;  uncertainty k = 0.433974
        19        10        14        33     9        0.000000        1.036217         3    ;  uncertainty k = 0.050697
        19        10        14        33     9      180.000000        0.184126         4    ;  uncertainty k = 0.080140
        19        12        11        30     9        0.000000        0.047860         1    ;  uncertainty k = 0.232277
        19        12        11        30     9      180.000000        7.569870         2    ;  uncertainty k = 0.397811
        19        12        11        30     9        0.000000        1.467091         3    ;  uncertainty k = 0.255631
        19        12        11        30     9      180.000000        1.771465         4    ;  uncertainty k = 0.128664
        19        13        18        36     9        0.000000        0.047860         1    ;  uncertainty k = 0.232277
        19        13        18        36     9      180.000000        7.569870         2    ;  uncertainty k = 0.397811
        19        13        18        36     9        0.000000        1.467091         3    ;  uncertainty k = 0.255631
        19        13        18        36     9      180.000000        1.771465         4    ;  uncertainty k = 0.128664
        20        15         8        26     9        0.000000        0.255948         1    ;  uncertainty k = 0.507632
        20        15         8        26     9      180.000000        6.820177         2    ;  uncertainty k = 0.462329
        20        15         8        26     9        0.000000        1.333732         3    ;  uncertainty k = 0.380082
        20        15         8        26     9      180.000000        1.369083         4    ;  uncertainty k = 0.175866
        20        15        22        37     9        0.000000       12.912348         1    ;  uncertainty k = 0.293676
        20        15        22        37     9      180.000000        9.801748         2    ;  uncertainty k = 0.250858
        20        15        22        37     9        0.000000        0.647644         3    ;  uncertainty k = 0.160502
        20        15        22        37     9      180.000000       -0.317777         4    ;  uncertainty k = 0.163284
        21         7         8        26     9        0.000000        0.212003         1    ;  uncertainty k = 0.651249
        21         7         8        26     9      180.000000        9.316324         2    ;  uncertainty k = 0.419256
        21         7         8        26     9        0.000000        1.309013         3    ;  uncertainty k = 0.187604
        21         7         8        26     9      180.000000        1.587283         4    ;  uncertainty k = 0.172451
        22         9        10        29     9        0.000000       -0.572508         1    ;  uncertainty k = 0.377115
        22         9        10        29     9      180.000000       -0.600289         2    ;  uncertainty k = 0.341220
        22         9        10        29     9        0.000000        1.087420         3    ;  uncertainty k = 0.209284
        22         9        10        29     9      180.000000       -0.040588         4    ;  uncertainty k = 0.052009
        22        15         8        26     9        0.000000       -0.246319         1    ;  uncertainty k = 0.363631
        22        15         8        26     9      180.000000        5.461218         2    ;  uncertainty k = 0.669402
        22        15         8        26     9        0.000000        0.987872         3    ;  uncertainty k = 0.411669
        22        15         8        26     9      180.000000        0.691505         4    ;  uncertainty k = 0.207028
        23         2         4        38     9        0.000000       -0.099722         1    ;  uncertainty k = 0.187919
        23         2         4        38     9      180.000000        7.737694         2    ;  uncertainty k = 0.364693
        23         2         4        38     9        0.000000       -0.426698         3    ;  uncertainty k = 0.285534
        23         2         4        38     9      180.000000        0.186978         4    ;  uncertainty k = 0.172550
        24         3         5        25     9        0.000000       -0.316024         1    ;  uncertainty k = 0.373928
        24         3         5        25     9      180.000000        8.660934         2    ;  uncertainty k = 0.281253
        24         3         5        25     9        0.000000        0.439167         3    ;  uncertainty k = 0.206827
        24         3         5        25     9      180.000000        1.055198         4    ;  uncertainty k = 0.146407
        25         5         6        39     9        0.000000       -0.032785         1    ;  uncertainty k = 0.100738
        25         5         6        39     9      180.000000        7.866134         2    ;  uncertainty k = 0.278389
        25         5         6        39     9        0.000000       -0.494091         3    ;  uncertainty k = 0.288502
        25         5         6        39     9      180.000000        0.083353         4    ;  uncertainty k = 0.118653
        27         9        10        29     9        0.000000       -0.062118         1    ;  uncertainty k = 0.175980
        27         9        10        29     9      180.000000       -0.346454         2    ;  uncertainty k = 0.237264
        27         9        10        29     9        0.000000       -0.035091         3    ;  uncertainty k = 0.145025
        27         9        10        29     9      180.000000       -0.049706         4    ;  uncertainty k = 0.074111
        27         9        22        37     9        0.000000        2.288821         1    ;  uncertainty k = 0.507795
        27         9        22        37     9      180.000000       -1.939761         2    ;  uncertainty k = 0.413857
        27         9        22        37     9        0.000000        0.268258         3    ;  uncertainty k = 0.084403
        27         9        22        37     9      180.000000        0.114796         4    ;  uncertainty k = 0.076861
        28         9        10        29     9        0.000000       -0.062118         1    ;  uncertainty k = 0.175980
        28         9        10        29     9      180.000000       -0.346454         2    ;  uncertainty k = 0.237264
        28         9        10        29     9        0.000000       -0.035091         3    ;  uncertainty k = 0.145025
        28         9        10        29     9      180.000000       -0.049706         4    ;  uncertainty k = 0.074111
        28         9        22        37     9        0.000000        2.288821         1    ;  uncertainty k = 0.507795
        28         9        22        37     9      180.000000       -1.939761         2    ;  uncertainty k = 0.413857
        28         9        22        37     9        0.000000        0.268258         3    ;  uncertainty k = 0.084403
        28         9        22        37     9      180.000000        0.114796         4    ;  uncertainty k = 0.076861
        29        10        14        33     9        0.000000       11.445025         1    ;  uncertainty k = 0.077908
        29        10        14        33     9      180.000000       -2.625800         2    ;  uncertainty k = 0.375643
        29        10        14        33     9        0.000000        0.698341         3    ;  uncertainty k = 0.074671
        29        10        14        33     9      180.000000        0.156691         4    ;  uncertainty k = 0.100510
        30        11        12        31     9        0.000000       -0.051759         1    ;  uncertainty k = 0.105402
        30        11        12        31     9      180.000000        7.644705         2    ;  uncertainty k = 0.306864
        30        11        12        31     9        0.000000       -0.441178         3    ;  uncertainty k = 0.237620
        30        11        12        31     9      180.000000        0.096993         4    ;  uncertainty k = 0.103181
        30        11        17        35     9        0.000000       -0.014778         1    ;  uncertainty k = 0.078555
        30        11        17        35     9      180.000000        7.498073         2    ;  uncertainty k = 0.337617
        30        11        17        35     9        0.000000       -0.424125         3    ;  uncertainty k = 0.279662
        30        11        17        35     9      180.000000        0.048151         4    ;  uncertainty k = 0.148926
        32        13        18        36     9        0.000000       -0.051759         1    ;  uncertainty k = 0.105402
        32        13        18        36     9      180.000000        7.644705         2    ;  uncertainty k = 0.306864
        32        13        18        36     9        0.000000       -0.441178         3    ;  uncertainty k = 0.237620
        32        13        18        36     9      180.000000        0.096993         4    ;  uncertainty k = 0.103181
        35        17        18        36     9        0.000000       -0.014778         1    ;  uncertainty k = 0.078555
        35        17        18        36     9      180.000000        7.498073         2    ;  uncertainty k = 0.337617
        35        17        18        36     9        0.000000       -0.424125         3    ;  uncertainty k = 0.279662
        35        17        18        36     9      180.000000        0.048151         4    ;  uncertainty k = 0.148926
        38         4         6        39     9        0.000000       -0.050929         1    ;  uncertainty k = 0.130202
        38         4         6        39     9      180.000000        7.587336         2    ;  uncertainty k = 0.412951
        38         4         6        39     9        0.000000       -0.419501         3    ;  uncertainty k = 0.310276
        38         4         6        39     9      180.000000        0.038260         4    ;  uncertainty k = 0.141909

[ dihedrals ] ; impropers
;       ai        aj        ak        al funct           phase               k        pn
         1         2         3         7     4      180.000000       11.546596         2    ;  uncertainty k = 0.139400
         1         3         7         2     4      180.000000       11.546596         2    ;  uncertainty k = 0.139400
         1         7         2         3     4      180.000000       11.546596         2    ;  uncertainty k = 0.139400
         2         1         4        23     4      180.000000        4.287600         2    ;  uncertainty k = 0.054546
         2         4        23         1     4      180.000000        4.287600         2    ;  uncertainty k = 0.054546
         2        23         1         4     4      180.000000        4.287600         2    ;  uncertainty k = 0.054546
         3         1         5        24     4      180.000000       17.483269         2    ;  uncertainty k = 0.071758
         3         5        24         1     4      180.000000       17.483269         2    ;  uncertainty k = 0.071758
         3        24         1         5     4      180.000000       17.483269         2    ;  uncertainty k = 0.071758
         4         2         6        38     4      180.000000        3.469446         2    ;  uncertainty k = 0.137472
         4         6        38         2     4      180.000000        3.469446         2    ;  uncertainty k = 0.137472
         4        38         2         6     4      180.000000        3.469446         2    ;  uncertainty k = 0.137472
         5         3         6        25     4      180.000000        3.315582         2    ;  uncertainty k = 0.127912
         5         6        25         3     4      180.000000        3.315582         2    ;  uncertainty k = 0.127912
         5        25         3         6     4      180.000000        3.315582         2    ;  uncertainty k = 0.127912
         6         4         5        39     4      180.000000        4.510572         2    ;  uncertainty k = 0.143610
         6         5        39         4     4      180.000000        4.510572         2    ;  uncertainty k = 0.143610
         6        39         4         5     4      180.000000        4.510572         2    ;  uncertainty k = 0.143610
         7         1         8        21     4      180.000000       29.233090         2    ;  uncertainty k = 0.069362
         7         8        21         1     4      180.000000       29.233090         2    ;  uncertainty k = 0.069362
         7        21         1         8     4      180.000000       29.233090         2    ;  uncertainty k = 0.069362
         8         7        15        26     4      180.000000        1.839039         2    ;  uncertainty k = 0.411284
         8        15        26         7     4      180.000000        1.839039         2    ;  uncertainty k = 0.411284
         8        26         7        15     4      180.000000        1.839039         2    ;  uncertainty k = 0.411284
        11        12        17        30     4      180.000000        4.234205         2    ;  uncertainty k = 0.081881
        11        17        30        12     4      180.000000        4.234205         2    ;  uncertainty k = 0.081881
        11        30        12        17     4      180.000000        4.234205         2    ;  uncertainty k = 0.081881
        12        11        19        31     4      180.000000        3.983249         2    ;  uncertainty k = 0.116003
        12        19        31        11     4      180.000000        3.983249         2    ;  uncertainty k = 0.116003
        12        31        11        19     4      180.000000        3.983249         2    ;  uncertainty k = 0.116003
        13        18        19        32     4      180.000000        3.983249         2    ;  uncertainty k = 0.116003
        13        19        32        18     4      180.000000        3.983249         2    ;  uncertainty k = 0.116003
        13        32        18        19     4      180.000000        3.983249         2    ;  uncertainty k = 0.116003
        15         8        20        22     4      180.000000       34.967998         2    ;  uncertainty k = 0.079325
        15        20        22         8     4      180.000000       34.967998         2    ;  uncertainty k = 0.079325
        15        22         8        20     4      180.000000       34.967998         2    ;  uncertainty k = 0.079325
        16        20        21        34     4      180.000000       24.164322         2    ;  uncertainty k = 0.060311
        16        21        34        20     4      180.000000       24.164322         2    ;  uncertainty k = 0.060311
        16        34        20        21     4      180.000000       24.164322         2    ;  uncertainty k = 0.060311
        17        11        18        35     4      180.000000        4.404546         2    ;  uncertainty k = 0.145826
        17        18        35        11     4      180.000000        4.404546         2    ;  uncertainty k = 0.145826
        17        35        11        18     4      180.000000        4.404546         2    ;  uncertainty k = 0.145826
        18        13        17        36     4      180.000000        4.234205         2    ;  uncertainty k = 0.081881
        18        17        36        13     4      180.000000        4.234205         2    ;  uncertainty k = 0.081881
        18        36        13        17     4      180.000000        4.234205         2    ;  uncertainty k = 0.081881
        19        10        12        13     4      180.000000       12.157434         2    ;  uncertainty k = 0.087858
        19        12        13        10     4      180.000000       12.157434         2    ;  uncertainty k = 0.087858
        19        13        10        12     4      180.000000       12.157434         2    ;  uncertainty k = 0.087858
        22         9        15        37     4      180.000000        0.223430         2    ;  uncertainty k = 0.499605
        22        15        37         9     4      180.000000        0.223430         2    ;  uncertainty k = 0.499605
        22        37         9        15     4      180.000000        0.223430         2    ;  uncertainty k = 0.499605

[ pairs ]
;       ai        aj funct
         1         6     1
         1        15     1
         1        16     1
         1        25     1
         1        26     1
         1        38     1
         1        40     1
         1        41     1
         1        42     1
         2         5     1
         2         8     1
         2        21     1
         2        24     1
         2        39     1
         3         4     1
         3         8     1
         3        21     1
         3        23     1
         3        39     1
         4         7     1
         4        25     1
         5         7     1
         5        38     1
         5        40     1
         5        41     1
         5        42     1
         6        23     1
         6        24     1
         7        20     1
         7        22     1
         7        23     1
         7        24     1
         7        34     1
         8         9     1
         8        16     1
         8        37     1
         9        12     1
         9        13     1
         9        20     1
         9        33     1
        10        11     1
        10        15     1
        10        18     1
        10        31     1
        10        32     1
        10        37     1
        11        13     1
        11        36     1
        12        14     1
        12        18     1
        12        29     1
        12        32     1
        12        35     1
        13        14     1
        13        29     1
        13        31     1
        13        35     1
        14        22     1
        14        27     1
        14        28     1
        15        21     1
        15        27     1
        15        28     1
        15        34     1
        16        22     1
        17        19     1
        17        31     1
        17        32     1
        18        30     1
        19        22     1
        19        27     1
        19        28     1
        19        30     1
        19        33     1
        19        36     1
        20        26     1
        20        37     1
        21        26     1
        22        26     1
        22        29     1
        23        38     1
        24        25     1
        25        39     1
        27        29     1
        27        37     1
        28        29     1
        28        37     1
        29        33     1
        30        31     1
        30        35     1
        32        36     1
        35        36     1
        38        39     1
