; ITP file created by ByteFF-joint-25, 2025-07-14 11:36:41.541312

[ atomtypes ]
;name           bonded.type        at.num        mass        charge   ptype           sigma         epsilon
 c0bf                                   6      0.0000       0.00000       A     3.31531e-01     4.13248e-01    ;  uncertainty sigma = 0.000007, epsilon = 0.000906
 c1bf                                   6      0.0000       0.00000       A     3.31522e-01     4.13447e-01    ;  uncertainty sigma = 0.000006, epsilon = 0.000820
 c2bf                                   6      0.0000       0.00000       A     3.31525e-01     4.13454e-01    ;  uncertainty sigma = 0.000008, epsilon = 0.000563
 c3bf                                   6      0.0000       0.00000       A     3.31514e-01     4.13225e-01    ;  uncertainty sigma = 0.000008, epsilon = 0.000471
 c4bf                                   6      0.0000       0.00000       A     3.31516e-01     4.13204e-01    ;  uncertainty sigma = 0.000004, epsilon = 0.000540
 c5bf                                   6      0.0000       0.00000       A     3.31523e-01     4.13552e-01    ;  uncertainty sigma = 0.000007, epsilon = 0.000341
 c6bf                                   6      0.0000       0.00000       A     3.31522e-01     4.13381e-01    ;  uncertainty sigma = 0.000016, epsilon = 0.000628
 c7bf                                   6      0.0000       0.00000       A     3.31527e-01     4.13260e-01    ;  uncertainty sigma = 0.000014, epsilon = 0.001138
 c8bf                                   6      0.0000       0.00000       A     3.39762e-01     4.50673e-01    ;  uncertainty sigma = 0.000011, epsilon = 0.001255
 c9bf                                   6      0.0000       0.00000       A     3.39750e-01     4.50544e-01    ;  uncertainty sigma = 0.000007, epsilon = 0.000791
 c10bf                                  6      0.0000       0.00000       A     3.31517e-01     4.13350e-01    ;  uncertainty sigma = 0.000003, epsilon = 0.000541
 c11bf                                  6      0.0000       0.00000       A     3.31519e-01     4.13304e-01    ;  uncertainty sigma = 0.000003, epsilon = 0.000583
 c12bf                                  6      0.0000       0.00000       A     3.31519e-01     4.13304e-01    ;  uncertainty sigma = 0.000003, epsilon = 0.000583
 o13bf                                  8      0.0000       0.00000       A     3.24257e-01     3.88598e-01    ;  uncertainty sigma = 0.000013, epsilon = 0.001596
 c14bf                                  6      0.0000       0.00000       A     3.31516e-01     4.13349e-01    ;  uncertainty sigma = 0.000011, epsilon = 0.000874
 c15bf                                  6      0.0000       0.00000       A     3.31502e-01     4.13579e-01    ;  uncertainty sigma = 0.000011, epsilon = 0.000388
 c16bf                                  6      0.0000       0.00000       A     3.31519e-01     4.13331e-01    ;  uncertainty sigma = 0.000003, epsilon = 0.000569
 c17bf                                  6      0.0000       0.00000       A     3.31517e-01     4.13350e-01    ;  uncertainty sigma = 0.000003, epsilon = 0.000541
 c18bf                                  6      0.0000       0.00000       A     3.31542e-01     4.12960e-01    ;  uncertainty sigma = 0.000004, epsilon = 0.000669
 n19bf                                  7      0.0000       0.00000       A     3.38417e-01     3.93373e-01    ;  uncertainty sigma = 0.000016, epsilon = 0.001202
 n20bf                                  7      0.0000       0.00000       A     3.38417e-01     3.93426e-01    ;  uncertainty sigma = 0.000018, epsilon = 0.000868
 n21bf                                  7      0.0000       0.00000       A     3.27787e-01     6.48850e-01    ;  uncertainty sigma = 0.000034, epsilon = 0.002592
 h22bf                                  1      0.0000       0.00000       A     2.62561e-01     6.71761e-02    ;  uncertainty sigma = 0.000016, epsilon = 0.000555
 h23bf                                  1      0.0000       0.00000       A     2.62565e-01     6.70566e-02    ;  uncertainty sigma = 0.000012, epsilon = 0.000585
 h24bf                                  1      0.0000       0.00000       A     2.62558e-01     6.70738e-02    ;  uncertainty sigma = 0.000007, epsilon = 0.000371
 h25bf                                  1      0.0000       0.00000       A     2.62541e-01     6.69041e-02    ;  uncertainty sigma = 0.000018, epsilon = 0.000969
 h26bf                                  1      0.0000       0.00000       A     2.42232e-01     8.67796e-02    ;  uncertainty sigma = 0.000037, epsilon = 0.000692
 h27bf                                  1      0.0000       0.00000       A     2.42232e-01     8.67796e-02    ;  uncertainty sigma = 0.000037, epsilon = 0.000692
 h28bf                                  1      0.0000       0.00000       A     2.42260e-01     8.69504e-02    ;  uncertainty sigma = 0.000011, epsilon = 0.000481
 h29bf                                  1      0.0000       0.00000       A     2.62558e-01     6.70324e-02    ;  uncertainty sigma = 0.000010, epsilon = 0.000442
 h30bf                                  1      0.0000       0.00000       A     2.62562e-01     6.70739e-02    ;  uncertainty sigma = 0.000004, epsilon = 0.000538
 h31bf                                  1      0.0000       0.00000       A     2.62562e-01     6.70739e-02    ;  uncertainty sigma = 0.000004, epsilon = 0.000538
 h32bf                                  1      0.0000       0.00000       A     5.38011e-02     1.91837e-02    ;  uncertainty sigma = 0.000073, epsilon = 0.000888
 h33bf                                  1      0.0000       0.00000       A     2.44735e-01     6.71447e-02    ;  uncertainty sigma = 0.000026, epsilon = 0.000712
 h34bf                                  1      0.0000       0.00000       A     2.62552e-01     6.70645e-02    ;  uncertainty sigma = 0.000011, epsilon = 0.000453
 h35bf                                  1      0.0000       0.00000       A     2.62558e-01     6.70324e-02    ;  uncertainty sigma = 0.000010, epsilon = 0.000442
 h36bf                                  1      0.0000       0.00000       A     1.10591e-01     4.16159e-02    ;  uncertainty sigma = 0.000130, epsilon = 0.000719
 c37bf                                  6      0.0000       0.00000       A     3.39773e-01     4.50827e-01    ;  uncertainty sigma = 0.000002, epsilon = 0.000530
 o38bf                                  8      0.0000       0.00000       A     3.15618e-01     3.03503e-01    ;  uncertainty sigma = 0.000008, epsilon = 0.000836
 c39bf                                  6      0.0000       0.00000       A     3.39780e-01     4.50985e-01    ;  uncertainty sigma = 0.000005, epsilon = 0.000500
 h40bf                                  1      0.0000       0.00000       A     2.42205e-01     8.67536e-02    ;  uncertainty sigma = 0.000015, epsilon = 0.000624
 h41bf                                  1      0.0000       0.00000       A     2.42205e-01     8.67536e-02    ;  uncertainty sigma = 0.000015, epsilon = 0.000624
 h42bf                                  1      0.0000       0.00000       A     2.42205e-01     8.67536e-02    ;  uncertainty sigma = 0.000015, epsilon = 0.000624
 h43bf                                  1      0.0000       0.00000       A     2.60028e-01     8.67155e-02    ;  uncertainty sigma = 0.000005, epsilon = 0.000425
 h44bf                                  1      0.0000       0.00000       A     2.60028e-01     8.67155e-02    ;  uncertainty sigma = 0.000005, epsilon = 0.000425
 h45bf                                  1      0.0000       0.00000       A     2.60028e-01     8.67156e-02    ;  uncertainty sigma = 0.000005, epsilon = 0.000425

[ moleculetype ]
;name             nrexcl
 MOL                   3

[ atoms ]
;       nr            type      resi   res      atom      cgnr      charge          mass ; qtot
         1            c0bf         1   UNL        c0         1    -0.18405       12.0110 ; qtot   -0.184
         2            c1bf         1   UNL        c1         2    -0.07220       12.0110 ; qtot   -0.256
         3            c2bf         1   UNL        c2         3    -0.06715       12.0110 ; qtot   -0.323
         4            c3bf         1   UNL        c3         4    -0.11581       12.0110 ; qtot   -0.439
         5            c4bf         1   UNL        c4         5    -0.21666       12.0110 ; qtot   -0.656
         6            c5bf         1   UNL        c5         6     0.14307       12.0110 ; qtot   -0.513
         7            c6bf         1   UNL        c6         7     0.53679       12.0110 ; qtot    0.024
         8            c7bf         1   UNL        c7         8    -0.42185       12.0110 ; qtot   -0.398
         9            c8bf         1   UNL        c8         9     0.20508       12.0110 ; qtot   -0.193
        10            c9bf         1   UNL        c9        10     0.17238       12.0110 ; qtot   -0.020
        11           c10bf         1   UNL       c10        11    -0.13212       12.0110 ; qtot   -0.153
        12           c11bf         1   UNL       c11        12    -0.11431       12.0110 ; qtot   -0.267
        13           c12bf         1   UNL       c12        13    -0.11431       12.0110 ; qtot   -0.381
        14           o13bf         1   UNL       o13        14    -0.60202       15.9990 ; qtot   -0.983
        15           c14bf         1   UNL       c14        15     0.69818       12.0110 ; qtot   -0.285
        16           c15bf         1   UNL       c15        16     0.68025       12.0110 ; qtot    0.395
        17           c16bf         1   UNL       c16        17    -0.12191       12.0110 ; qtot    0.273
        18           c17bf         1   UNL       c17        18    -0.13212       12.0110 ; qtot    0.141
        19           c18bf         1   UNL       c18        19    -0.11806       12.0110 ; qtot    0.023
        20           n19bf         1   UNL       n19        20    -0.77724       14.0070 ; qtot   -0.754
        21           n20bf         1   UNL       n20        21    -0.73428       14.0070 ; qtot   -1.488
        22           n21bf         1   UNL       n21        22    -0.87199       14.0070 ; qtot   -2.360
        23           h22bf         1   UNL       h22        23     0.14407        1.0080 ; qtot   -2.216
        24           h23bf         1   UNL       h23        24     0.14715        1.0080 ; qtot   -2.069
        25           h24bf         1   UNL       h24        25     0.13754        1.0080 ; qtot   -1.932
        26           h25bf         1   UNL       h25        26     0.15255        1.0080 ; qtot   -1.779
        27           h26bf         1   UNL       h26        27     0.06384        1.0080 ; qtot   -1.715
        28           h27bf         1   UNL       h27        28     0.06384        1.0080 ; qtot   -1.651
        29           h28bf         1   UNL       h28        29     0.05801        1.0080 ; qtot   -1.593
        30           h29bf         1   UNL       h29        30     0.13206        1.0080 ; qtot   -1.461
        31           h30bf         1   UNL       h30        31     0.13699        1.0080 ; qtot   -1.324
        32           h31bf         1   UNL       h31        32     0.13699        1.0080 ; qtot   -1.187
        33           h32bf         1   UNL       h32        33     0.41310        1.0080 ; qtot   -0.774
        34           h33bf         1   UNL       h33        34     0.05077        1.0080 ; qtot   -0.723
        35           h34bf         1   UNL       h34        35     0.13198        1.0080 ; qtot   -0.591
        36           h35bf         1   UNL       h35        36     0.13206        1.0080 ; qtot   -0.459
        37           h36bf         1   UNL       h36        37     0.44064        1.0080 ; qtot   -0.019
        38           c37bf         1   UNL       c37        38    -0.04028       12.0110 ; qtot   -0.059
        39           o38bf         1   UNL       o38        39    -0.32991       15.9990 ; qtot   -0.389
        40           c39bf         1   UNL       c39        40     0.12041       12.0110 ; qtot   -0.269
        41           h40bf         1   UNL       h40        41     0.04268        1.0080 ; qtot   -0.226
        42           h41bf         1   UNL       h41        42     0.04268        1.0080 ; qtot   -0.183
        43           h42bf         1   UNL       h42        43     0.04268        1.0080 ; qtot   -0.140
        44           h43bf         1   UNL       h43        44     0.04682        1.0080 ; qtot   -0.094
        45           h44bf         1   UNL       h44        45     0.04682        1.0080 ; qtot   -0.047
        46           h45bf         1   UNL       h45        46     0.04684        1.0080 ; qtot   -0.000

[ bonds ]
;       ai        aj funct               r               k
         1         2     1        0.140120   343799.106348    ;  uncertainty r = 0.000007, k = 2.074923
         1         3     1        0.139716   348497.653564    ;  uncertainty r = 0.000035, k = 3.101027
         1         7     1        0.147233   259569.675439    ;  uncertainty r = 0.000050, k = 5.169738
         2         4     1        0.139408   352870.194043    ;  uncertainty r = 0.000023, k = 2.300451
         2        23     1        0.108716   332901.885498    ;  uncertainty r = 0.000030, k = 0.986747
         3         5     1        0.139336   367217.427295    ;  uncertainty r = 0.000051, k = 2.508495
         3        24     1        0.108649   332818.353613    ;  uncertainty r = 0.000023, k = 1.038213
         4         6     1        0.140944   334475.405566    ;  uncertainty r = 0.000059, k = 9.720163
         4        38     1        0.150821   235432.765771    ;  uncertainty r = 0.000019, k = 2.489914
         5         6     1        0.139822   354117.911670    ;  uncertainty r = 0.000019, k = 1.961172
         5        25     1        0.108758   338006.115234    ;  uncertainty r = 0.000024, k = 0.517638
         6        39     1        0.137044   325394.945752    ;  uncertainty r = 0.000045, k = 7.327742
         7         8     1        0.140348   428110.971045    ;  uncertainty r = 0.000064, k = 9.515517
         7        21     1        0.135597   395478.018311    ;  uncertainty r = 0.000037, k = 8.602592
         8        15     1        0.142200   437085.145410    ;  uncertainty r = 0.000074, k = 7.312812
         8        26     1        0.108982   347697.397168    ;  uncertainty r = 0.000060, k = 3.509310
         9        10     1        0.153528   198932.485962    ;  uncertainty r = 0.000113, k = 4.485541
         9        22     1        0.144360   258703.533301    ;  uncertainty r = 0.000127, k = 5.188267
         9        27     1        0.109548   306948.010498    ;  uncertainty r = 0.000056, k = 1.476386
         9        28     1        0.109548   306948.010498    ;  uncertainty r = 0.000056, k = 1.476386
        10        14     1        0.143014   262792.254346    ;  uncertainty r = 0.000086, k = 14.622904
        10        19     1        0.151556   222180.461621    ;  uncertainty r = 0.000089, k = 7.017739
        10        29     1        0.109828   303256.263818    ;  uncertainty r = 0.000046, k = 1.650587
        11        12     1        0.139619   365954.387402    ;  uncertainty r = 0.000008, k = 1.292992
        11        17     1        0.139616   371124.732715    ;  uncertainty r = 0.000020, k = 1.036768
        11        30     1        0.108853   334096.639160    ;  uncertainty r = 0.000011, k = 0.985251
        12        19     1        0.139806   351916.766064    ;  uncertainty r = 0.000010, k = 1.187834
        12        31     1        0.108853   333813.534766    ;  uncertainty r = 0.000015, k = 0.555194
        13        18     1        0.139619   365954.387402    ;  uncertainty r = 0.000008, k = 1.292992
        13        19     1        0.139806   351916.766064    ;  uncertainty r = 0.000010, k = 1.187834
        13        32     1        0.108853   333813.534766    ;  uncertainty r = 0.000015, k = 0.555194
        14        33     1        0.097118   460583.525195    ;  uncertainty r = 0.000045, k = 3.102113
        15        20     1        0.135563   598530.699805    ;  uncertainty r = 0.000139, k = 9.101913
        15        22     1        0.139244   503022.932227    ;  uncertainty r = 0.000156, k = 11.982701
        16        20     1        0.134248   427021.200439    ;  uncertainty r = 0.000126, k = 12.560964
        16        21     1        0.133902   409960.291797    ;  uncertainty r = 0.000038, k = 12.892596
        16        34     1        0.108823   332455.624512    ;  uncertainty r = 0.000016, k = 3.398046
        17        18     1        0.139616   371124.758252    ;  uncertainty r = 0.000020, k = 1.036768
        17        35     1        0.108851   334582.457129    ;  uncertainty r = 0.000012, k = 0.680670
        18        36     1        0.108853   334096.639160    ;  uncertainty r = 0.000011, k = 0.985251
        22        37     1        0.101725   420522.644531    ;  uncertainty r = 0.000069, k = 3.098785
        38        44     1        0.109474   309088.250098    ;  uncertainty r = 0.000017, k = 0.940463
        38        45     1        0.109474   309088.250098    ;  uncertainty r = 0.000017, k = 0.940463
        38        46     1        0.109474   309088.250098    ;  uncertainty r = 0.000017, k = 0.940463
        39        40     1        0.142173   249044.428125    ;  uncertainty r = 0.000056, k = 2.739628
        40        41     1        0.109585   311301.730127    ;  uncertainty r = 0.000018, k = 1.291926
        40        42     1        0.109585   311301.730127    ;  uncertainty r = 0.000018, k = 1.291926
        40        43     1        0.109585   311301.730127    ;  uncertainty r = 0.000018, k = 1.291926

[ angles ]
;       ai        aj        ak funct           theta             cth
         1         2         4     1      124.079117      524.701538    ;  uncertainty theta = 0.002163, k = 0.126029
         1         2        23     1      117.506882      269.048195    ;  uncertainty theta = 0.002663, k = 0.106775
         1         3         5     1      121.468468      520.760491    ;  uncertainty theta = 0.001153, k = 0.099499
         1         3        24     1      118.288063      267.328287    ;  uncertainty theta = 0.003227, k = 0.124130
         1         7         8     1      121.454262      401.131998    ;  uncertainty theta = 0.004937, k = 0.226252
         1         7        21     1      118.319580      476.909859    ;  uncertainty theta = 0.004158, k = 0.151182
         2         1         3     1      120.822731      434.454861    ;  uncertainty theta = 0.002671, k = 0.152105
         2         1         7     1      118.019920      391.358883    ;  uncertainty theta = 0.003297, k = 0.070503
         2         4         6     1      120.114548      459.658328    ;  uncertainty theta = 0.003512, k = 0.110058
         2         4        38     1      120.772423      410.997750    ;  uncertainty theta = 0.002357, k = 0.100663
         3         1         7     1      118.263168      403.442851    ;  uncertainty theta = 0.002955, k = 0.137789
         3         5         6     1      121.002663      515.363064    ;  uncertainty theta = 0.001662, k = 0.095019
         3         5        25     1      120.313766      280.314816    ;  uncertainty theta = 0.001577, k = 0.064354
         4         2        23     1      117.502304      280.941657    ;  uncertainty theta = 0.003389, k = 0.077839
         4         6         5     1      122.941811      381.790447    ;  uncertainty theta = 0.003720, k = 0.072947
         4         6        39     1      116.964966      425.443997    ;  uncertainty theta = 0.002314, k = 0.067630
         4        38        44     1      109.742142      396.715547    ;  uncertainty theta = 0.001119, k = 0.024366
         4        38        45     1      109.742142      396.715547    ;  uncertainty theta = 0.001119, k = 0.024366
         4        38        46     1      109.742142      396.715547    ;  uncertainty theta = 0.001119, k = 0.024366
         5         3        24     1      120.392075      287.439255    ;  uncertainty theta = 0.001607, k = 0.053447
         5         6        39     1      119.840088      421.063552    ;  uncertainty theta = 0.003672, k = 0.116079
         6         4        38     1      118.933693      403.680857    ;  uncertainty theta = 0.001773, k = 0.188896
         6         5        25     1      118.585815      266.754388    ;  uncertainty theta = 0.002027, k = 0.095734
         6        39        40     1      110.805931      510.934386    ;  uncertainty theta = 0.002011, k = 0.072553
         7         8        15     1      117.423264      475.722192    ;  uncertainty theta = 0.006163, k = 0.291536
         7         8        26     1      122.136292      274.865070    ;  uncertainty theta = 0.001926, k = 0.175869
         7        21        16     1      114.123764      411.073339    ;  uncertainty theta = 0.005165, k = 0.198286
         8         7        21     1      121.765846      596.725507    ;  uncertainty theta = 0.004067, k = 0.125601
         8        15        20     1      120.465775      559.577504    ;  uncertainty theta = 0.004274, k = 0.131688
         8        15        22     1      124.405197      635.166262    ;  uncertainty theta = 0.005407, k = 0.116906
         9        10        14     1      108.648598      745.773101    ;  uncertainty theta = 0.001850, k = 0.090465
         9        10        19     1      111.675133      529.233800    ;  uncertainty theta = 0.002433, k = 0.102801
         9        10        29     1      107.655739      397.413157    ;  uncertainty theta = 0.001835, k = 0.063660
         9        22        15     1      115.022720      415.197008    ;  uncertainty theta = 0.003932, k = 0.139541
         9        22        37     1      111.930687      338.512452    ;  uncertainty theta = 0.006639, k = 0.093922
        10         9        22     1      109.072731      588.135334    ;  uncertainty theta = 0.003588, k = 0.076167
        10         9        27     1      108.264954      386.766225    ;  uncertainty theta = 0.001128, k = 0.087129
        10         9        28     1      108.264954      386.766225    ;  uncertainty theta = 0.001128, k = 0.087129
        10        14        33     1      107.778908      462.824962    ;  uncertainty theta = 0.002314, k = 0.060682
        10        19        12     1      119.990318      398.450314    ;  uncertainty theta = 0.001704, k = 0.122614
        10        19        13     1      119.990318      398.450314    ;  uncertainty theta = 0.001704, k = 0.122614
        11        12        19     1      120.930702      517.466172    ;  uncertainty theta = 0.001222, k = 0.047814
        11        12        31     1      120.258339      291.729553    ;  uncertainty theta = 0.002156, k = 0.015437
        11        17        18     1      118.312904      525.474865    ;  uncertainty theta = 0.001259, k = 0.033725
        11        17        35     1      120.606750      289.256635    ;  uncertainty theta = 0.001707, k = 0.007155
        12        11        17     1      119.668961      514.607037    ;  uncertainty theta = 0.000852, k = 0.027695
        12        11        30     1      120.182228      283.193264    ;  uncertainty theta = 0.001483, k = 0.023123
        12        19        13     1      120.620529      467.609435    ;  uncertainty theta = 0.001046, k = 0.044080
        13        18        17     1      119.668961      514.607037    ;  uncertainty theta = 0.000852, k = 0.027695
        13        18        36     1      120.182228      283.193264    ;  uncertainty theta = 0.001483, k = 0.023123
        14        10        19     1      111.132469      757.316130    ;  uncertainty theta = 0.001813, k = 0.056225
        14        10        29     1      107.460892      475.171803    ;  uncertainty theta = 0.003128, k = 0.059555
        15         8        26     1      122.820290      279.161624    ;  uncertainty theta = 0.002177, k = 0.088284
        15        20        16     1      114.208336      402.225401    ;  uncertainty theta = 0.007184, k = 0.116286
        15        22        37     1      114.952065      412.285969    ;  uncertainty theta = 0.001414, k = 0.081088
        17        11        30     1      120.593102      287.981121    ;  uncertainty theta = 0.001462, k = 0.008017
        17        18        36     1      120.593102      287.981121    ;  uncertainty theta = 0.001462, k = 0.008017
        18        13        19     1      120.930702      517.466172    ;  uncertainty theta = 0.001222, k = 0.047814
        18        13        32     1      120.258339      291.729553    ;  uncertainty theta = 0.002156, k = 0.015437
        18        17        35     1      120.606750      289.256635    ;  uncertainty theta = 0.001707, k = 0.007155
        19        10        29     1      107.338806      403.998379    ;  uncertainty theta = 0.003013, k = 0.110102
        19        12        31     1      118.778320      265.740150    ;  uncertainty theta = 0.001504, k = 0.035529
        19        13        32     1      118.778320      265.740150    ;  uncertainty theta = 0.001504, k = 0.035529
        20        15        22     1      122.203979      876.041727    ;  uncertainty theta = 0.006036, k = 0.092665
        20        16        21     1      127.365524      928.346132    ;  uncertainty theta = 0.002641, k = 0.109018
        20        16        34     1      115.958923      303.662438    ;  uncertainty theta = 0.004108, k = 0.062101
        21        16        34     1      116.290024      310.582675    ;  uncertainty theta = 0.004161, k = 0.066237
        22         9        27     1      106.848366      448.950650    ;  uncertainty theta = 0.001286, k = 0.079205
        22         9        28     1      106.848366      448.950650    ;  uncertainty theta = 0.001286, k = 0.079205
        27         9        28     1      106.681496      323.153860    ;  uncertainty theta = 0.001150, k = 0.024224
        39        40        41     1      109.012985      445.790593    ;  uncertainty theta = 0.001297, k = 0.018321
        39        40        42     1      109.012985      445.790593    ;  uncertainty theta = 0.001297, k = 0.018321
        39        40        43     1      109.012985      445.790593    ;  uncertainty theta = 0.001297, k = 0.018321
        41        40        42     1      109.085159      330.320914    ;  uncertainty theta = 0.001597, k = 0.020762
        41        40        43     1      109.085159      330.320914    ;  uncertainty theta = 0.001597, k = 0.020762
        42        40        43     1      109.085159      330.320914    ;  uncertainty theta = 0.001597, k = 0.020762
        44        38        45     1      106.756638      315.286771    ;  uncertainty theta = 0.000973, k = 0.023554
        44        38        46     1      106.756638      315.286771    ;  uncertainty theta = 0.000973, k = 0.023554
        45        38        46     1      106.756638      315.286771    ;  uncertainty theta = 0.000973, k = 0.023554

[ dihedrals ] ; propers for gromacs 4.5 or higher, use funct 9
;       ai        aj        ak        al funct           phase               k        pn
         1         2         4         6     9        0.000000       -0.044959         1    ;  uncertainty k = 0.258867
         1         2         4         6     9      180.000000       10.866924         2    ;  uncertainty k = 0.442173
         1         2         4         6     9        0.000000        0.339866         3    ;  uncertainty k = 0.210710
         1         2         4         6     9      180.000000        1.188049         4    ;  uncertainty k = 0.333631
         1         2         4        38     9        0.000000        0.366577         1    ;  uncertainty k = 0.316189
         1         2         4        38     9      180.000000       10.343036         2    ;  uncertainty k = 0.525084
         1         2         4        38     9        0.000000        1.389301         3    ;  uncertainty k = 0.195658
         1         2         4        38     9      180.000000        1.828679         4    ;  uncertainty k = 0.293183
         1         3         5         6     9        0.000000       -0.053049         1    ;  uncertainty k = 0.261238
         1         3         5         6     9      180.000000       13.161829         2    ;  uncertainty k = 0.266835
         1         3         5         6     9        0.000000       -0.694738         3    ;  uncertainty k = 0.361604
         1         3         5         6     9      180.000000        0.913717         4    ;  uncertainty k = 0.294535
         1         3         5        25     9        0.000000        0.111325         1    ;  uncertainty k = 0.134300
         1         3         5        25     9      180.000000        7.963192         2    ;  uncertainty k = 0.400258
         1         3         5        25     9        0.000000        1.414373         3    ;  uncertainty k = 0.226731
         1         3         5        25     9      180.000000        1.870219         4    ;  uncertainty k = 0.148626
         1         7         8        15     9        0.000000       -0.220941         1    ;  uncertainty k = 0.580494
         1         7         8        15     9      180.000000        7.714512         2    ;  uncertainty k = 0.938181
         1         7         8        15     9        0.000000        0.656959         3    ;  uncertainty k = 0.286724
         1         7         8        15     9      180.000000        1.146920         4    ;  uncertainty k = 0.351377
         1         7         8        26     9        0.000000       -0.150372         1    ;  uncertainty k = 1.006450
         1         7         8        26     9      180.000000        6.848417         2    ;  uncertainty k = 0.495728
         1         7         8        26     9        0.000000        0.708230         3    ;  uncertainty k = 0.291879
         1         7         8        26     9      180.000000        0.946194         4    ;  uncertainty k = 0.211647
         1         7        21        16     9        0.000000        0.073036         1    ;  uncertainty k = 0.605524
         1         7        21        16     9      180.000000       14.393299         2    ;  uncertainty k = 0.379039
         1         7        21        16     9        0.000000        2.090809         3    ;  uncertainty k = 0.348515
         1         7        21        16     9      180.000000        1.550448         4    ;  uncertainty k = 0.418230
         2         1         3         5     9        0.000000        0.094224         1    ;  uncertainty k = 0.051357
         2         1         3         5     9      180.000000       11.621680         2    ;  uncertainty k = 0.283279
         2         1         3         5     9        0.000000       -0.810819         3    ;  uncertainty k = 0.305108
         2         1         3         5     9      180.000000        0.863294         4    ;  uncertainty k = 0.252164
         2         1         3        24     9        0.000000        0.075062         1    ;  uncertainty k = 0.135463
         2         1         3        24     9      180.000000        7.036323         2    ;  uncertainty k = 0.447286
         2         1         3        24     9        0.000000        1.304018         3    ;  uncertainty k = 0.248215
         2         1         3        24     9      180.000000        1.596825         4    ;  uncertainty k = 0.227069
         2         1         7         8     9        0.000000       -0.280329         1    ;  uncertainty k = 0.616512
         2         1         7         8     9      180.000000        4.150628         2    ;  uncertainty k = 0.309263
         2         1         7         8     9        0.000000        0.482133         3    ;  uncertainty k = 0.185406
         2         1         7         8     9      180.000000       -0.069077         4    ;  uncertainty k = 0.037040
         2         1         7        21     9        0.000000        0.955062         1    ;  uncertainty k = 0.667850
         2         1         7        21     9      180.000000        5.476089         2    ;  uncertainty k = 0.173035
         2         1         7        21     9        0.000000        0.641009         3    ;  uncertainty k = 0.193574
         2         1         7        21     9      180.000000        0.096577         4    ;  uncertainty k = 0.042780
         2         4         6         5     9        0.000000       -0.162512         1    ;  uncertainty k = 0.532935
         2         4         6         5     9      180.000000        6.511489         2    ;  uncertainty k = 0.998498
         2         4         6         5     9        0.000000        0.270231         3    ;  uncertainty k = 0.295672
         2         4         6         5     9      180.000000        1.250308         4    ;  uncertainty k = 0.385371
         2         4         6        39     9        0.000000        0.345300         1    ;  uncertainty k = 0.244317
         2         4         6        39     9      180.000000        9.606786         2    ;  uncertainty k = 0.331340
         2         4         6        39     9        0.000000        1.283977         3    ;  uncertainty k = 0.361401
         2         4         6        39     9      180.000000        1.627957         4    ;  uncertainty k = 0.128834
         2         4        38        44     9        0.000000        0.071448         1    ;  uncertainty k = 0.091915
         2         4        38        44     9      180.000000        1.422676         2    ;  uncertainty k = 0.256897
         2         4        38        44     9        0.000000        0.286298         3    ;  uncertainty k = 0.039826
         2         4        38        44     9      180.000000        0.210365         4    ;  uncertainty k = 0.056105
         2         4        38        45     9        0.000000        0.071448         1    ;  uncertainty k = 0.091915
         2         4        38        45     9      180.000000        1.422676         2    ;  uncertainty k = 0.256897
         2         4        38        45     9        0.000000        0.286298         3    ;  uncertainty k = 0.039826
         2         4        38        45     9      180.000000        0.210365         4    ;  uncertainty k = 0.056105
         2         4        38        46     9        0.000000        0.071448         1    ;  uncertainty k = 0.091915
         2         4        38        46     9      180.000000        1.422676         2    ;  uncertainty k = 0.256897
         2         4        38        46     9        0.000000        0.286298         3    ;  uncertainty k = 0.039826
         2         4        38        46     9      180.000000        0.210365         4    ;  uncertainty k = 0.056105
         3         1         2         4     9        0.000000        0.236754         1    ;  uncertainty k = 0.145726
         3         1         2         4     9      180.000000       10.299045         2    ;  uncertainty k = 0.149935
         3         1         2         4     9        0.000000       -0.489530         3    ;  uncertainty k = 0.248963
         3         1         2         4     9      180.000000        1.022932         4    ;  uncertainty k = 0.213396
         3         1         2        23     9        0.000000        0.099549         1    ;  uncertainty k = 0.200186
         3         1         2        23     9      180.000000        6.991492         2    ;  uncertainty k = 0.376594
         3         1         2        23     9        0.000000        1.310891         3    ;  uncertainty k = 0.202757
         3         1         2        23     9      180.000000        1.609557         4    ;  uncertainty k = 0.242639
         3         1         7         8     9        0.000000       -0.406547         1    ;  uncertainty k = 0.534712
         3         1         7         8     9      180.000000        4.121061         2    ;  uncertainty k = 0.233219
         3         1         7         8     9        0.000000        0.496555         3    ;  uncertainty k = 0.155511
         3         1         7         8     9      180.000000       -0.105165         4    ;  uncertainty k = 0.050152
         3         1         7        21     9        0.000000        1.251829         1    ;  uncertainty k = 0.688430
         3         1         7        21     9      180.000000        5.331860         2    ;  uncertainty k = 0.122491
         3         1         7        21     9        0.000000        0.608447         3    ;  uncertainty k = 0.165386
         3         1         7        21     9      180.000000        0.102648         4    ;  uncertainty k = 0.037798
         3         5         6         4     9        0.000000        0.213721         1    ;  uncertainty k = 0.173310
         3         5         6         4     9      180.000000        7.790521         2    ;  uncertainty k = 0.491695
         3         5         6         4     9        0.000000        0.363820         3    ;  uncertainty k = 0.283037
         3         5         6         4     9      180.000000        1.437044         4    ;  uncertainty k = 0.169326
         3         5         6        39     9        0.000000        0.050041         1    ;  uncertainty k = 0.359233
         3         5         6        39     9      180.000000       10.911190         2    ;  uncertainty k = 0.322750
         3         5         6        39     9        0.000000        1.344532         3    ;  uncertainty k = 0.308963
         3         5         6        39     9      180.000000        1.655359         4    ;  uncertainty k = 0.207076
         4         2         1         7     9        0.000000        0.294692         1    ;  uncertainty k = 0.157370
         4         2         1         7     9      180.000000        8.161418         2    ;  uncertainty k = 0.373326
         4         2         1         7     9        0.000000        1.187422         3    ;  uncertainty k = 0.180465
         4         2         1         7     9      180.000000        1.735331         4    ;  uncertainty k = 0.076802
         4         6         5        25     9        0.000000        0.227387         1    ;  uncertainty k = 0.234681
         4         6         5        25     9      180.000000        6.027084         2    ;  uncertainty k = 0.507372
         4         6         5        25     9        0.000000        1.471570         3    ;  uncertainty k = 0.289087
         4         6         5        25     9      180.000000        1.634833         4    ;  uncertainty k = 0.052972
         4         6        39        40     9        0.000000       -0.479529         1    ;  uncertainty k = 0.326087
         4         6        39        40     9      180.000000        6.794197         2    ;  uncertainty k = 0.104438
         4         6        39        40     9        0.000000        1.432244         3    ;  uncertainty k = 0.168444
         4         6        39        40     9      180.000000        0.245419         4    ;  uncertainty k = 0.071794
         5         3         1         7     9        0.000000        0.265937         1    ;  uncertainty k = 0.472964
         5         3         1         7     9      180.000000        9.125620         2    ;  uncertainty k = 0.523210
         5         3         1         7     9        0.000000        1.117090         3    ;  uncertainty k = 0.258718
         5         3         1         7     9      180.000000        1.753032         4    ;  uncertainty k = 0.164614
         5         6         4        38     9        0.000000        0.372265         1    ;  uncertainty k = 0.415876
         5         6         4        38     9      180.000000        6.867321         2    ;  uncertainty k = 0.497413
         5         6         4        38     9        0.000000        1.024815         3    ;  uncertainty k = 0.306883
         5         6         4        38     9      180.000000        1.672598         4    ;  uncertainty k = 0.288928
         5         6        39        40     9        0.000000        1.553258         1    ;  uncertainty k = 0.243908
         5         6        39        40     9      180.000000        7.265322         2    ;  uncertainty k = 0.163592
         5         6        39        40     9        0.000000        0.157619         3    ;  uncertainty k = 0.142245
         5         6        39        40     9      180.000000        0.130449         4    ;  uncertainty k = 0.054746
         6         4         2        23     9        0.000000        0.126979         1    ;  uncertainty k = 0.127813
         6         4         2        23     9      180.000000        8.155246         2    ;  uncertainty k = 0.172942
         6         4         2        23     9        0.000000        1.350809         3    ;  uncertainty k = 0.400781
         6         4         2        23     9      180.000000        1.705455         4    ;  uncertainty k = 0.054893
         6         4        38        44     9        0.000000        0.182020         1    ;  uncertainty k = 0.275309
         6         4        38        44     9      180.000000        1.990412         2    ;  uncertainty k = 0.281417
         6         4        38        44     9        0.000000        0.404165         3    ;  uncertainty k = 0.023722
         6         4        38        44     9      180.000000        0.347414         4    ;  uncertainty k = 0.029899
         6         4        38        45     9        0.000000        0.182020         1    ;  uncertainty k = 0.275309
         6         4        38        45     9      180.000000        1.990412         2    ;  uncertainty k = 0.281417
         6         4        38        45     9        0.000000        0.404165         3    ;  uncertainty k = 0.023722
         6         4        38        45     9      180.000000        0.347414         4    ;  uncertainty k = 0.029899
         6         4        38        46     9        0.000000        0.182020         1    ;  uncertainty k = 0.275309
         6         4        38        46     9      180.000000        1.990412         2    ;  uncertainty k = 0.281417
         6         4        38        46     9        0.000000        0.404165         3    ;  uncertainty k = 0.023722
         6         4        38        46     9      180.000000        0.347414         4    ;  uncertainty k = 0.029899
         6         5         3        24     9        0.000000       -0.013261         1    ;  uncertainty k = 0.325276
         6         5         3        24     9      180.000000        7.793534         2    ;  uncertainty k = 0.269773
         6         5         3        24     9        0.000000        1.222083         3    ;  uncertainty k = 0.305944
         6         5         3        24     9      180.000000        1.740137         4    ;  uncertainty k = 0.091335
         6        39        40        41     9        0.000000        0.872564         1    ;  uncertainty k = 0.162653
         6        39        40        41     9      180.000000       -1.708470         2    ;  uncertainty k = 0.179396
         6        39        40        41     9        0.000000        1.000476         3    ;  uncertainty k = 0.041925
         6        39        40        41     9      180.000000        0.235506         4    ;  uncertainty k = 0.038635
         6        39        40        42     9        0.000000        0.872564         1    ;  uncertainty k = 0.162653
         6        39        40        42     9      180.000000       -1.708470         2    ;  uncertainty k = 0.179396
         6        39        40        42     9        0.000000        1.000476         3    ;  uncertainty k = 0.041925
         6        39        40        42     9      180.000000        0.235506         4    ;  uncertainty k = 0.038635
         6        39        40        43     9        0.000000        0.872564         1    ;  uncertainty k = 0.162653
         6        39        40        43     9      180.000000       -1.708470         2    ;  uncertainty k = 0.179396
         6        39        40        43     9        0.000000        1.000476         3    ;  uncertainty k = 0.041925
         6        39        40        43     9      180.000000        0.235506         4    ;  uncertainty k = 0.038635
         7         1         2        23     9        0.000000       -0.378555         1    ;  uncertainty k = 0.439034
         7         1         2        23     9      180.000000        7.388563         2    ;  uncertainty k = 0.257032
         7         1         2        23     9        0.000000        0.704772         3    ;  uncertainty k = 0.068095
         7         1         2        23     9      180.000000        1.136090         4    ;  uncertainty k = 0.130234
         7         1         3        24     9        0.000000       -0.360205         1    ;  uncertainty k = 0.389303
         7         1         3        24     9      180.000000        7.237097         2    ;  uncertainty k = 0.292339
         7         1         3        24     9        0.000000        0.714925         3    ;  uncertainty k = 0.085103
         7         1         3        24     9      180.000000        1.140262         4    ;  uncertainty k = 0.078629
         7         8        15        20     9        0.000000       -0.500133         1    ;  uncertainty k = 0.439040
         7         8        15        20     9      180.000000        7.834468         2    ;  uncertainty k = 0.794802
         7         8        15        20     9        0.000000       -0.902125         3    ;  uncertainty k = 0.537798
         7         8        15        20     9      180.000000        1.182676         4    ;  uncertainty k = 0.320344
         7         8        15        22     9        0.000000       -0.965370         1    ;  uncertainty k = 0.759248
         7         8        15        22     9      180.000000        6.451864         2    ;  uncertainty k = 0.459721
         7         8        15        22     9        0.000000        0.063391         3    ;  uncertainty k = 0.343169
         7         8        15        22     9      180.000000        0.905959         4    ;  uncertainty k = 0.177698
         7        21        16        20     9        0.000000       -0.819129         1    ;  uncertainty k = 0.644873
         7        21        16        20     9      180.000000       16.551521         2    ;  uncertainty k = 0.382986
         7        21        16        20     9        0.000000        0.076416         3    ;  uncertainty k = 0.570044
         7        21        16        20     9      180.000000        1.171091         4    ;  uncertainty k = 0.289628
         7        21        16        34     9        0.000000       -0.422172         1    ;  uncertainty k = 0.379756
         7        21        16        34     9      180.000000       12.360556         2    ;  uncertainty k = 0.398014
         7        21        16        34     9        0.000000        1.725694         3    ;  uncertainty k = 0.673646
         7        21        16        34     9      180.000000        1.287781         4    ;  uncertainty k = 0.424421
         8         7        21        16     9        0.000000       -0.256090         1    ;  uncertainty k = 0.862245
         8         7        21        16     9      180.000000       13.280856         2    ;  uncertainty k = 0.530960
         8         7        21        16     9        0.000000        0.312819         3    ;  uncertainty k = 0.972868
         8         7        21        16     9      180.000000        1.131435         4    ;  uncertainty k = 0.376839
         8        15        20        16     9        0.000000       -0.350078         1    ;  uncertainty k = 0.812325
         8        15        20        16     9      180.000000        9.930014         2    ;  uncertainty k = 0.557509
         8        15        20        16     9        0.000000        0.516622         3    ;  uncertainty k = 0.789553
         8        15        20        16     9      180.000000        1.058186         4    ;  uncertainty k = 0.142047
         8        15        22         9     9        0.000000        5.603689         1    ;  uncertainty k = 0.487731
         8        15        22         9     9      180.000000        9.173858         2    ;  uncertainty k = 0.234225
         8        15        22         9     9        0.000000        0.682452         3    ;  uncertainty k = 0.250442
         8        15        22         9     9      180.000000       -0.440404         4    ;  uncertainty k = 0.169398
         8        15        22        37     9        0.000000        4.297370         1    ;  uncertainty k = 0.414563
         8        15        22        37     9      180.000000        7.947808         2    ;  uncertainty k = 0.147068
         8        15        22        37     9        0.000000        1.249630         3    ;  uncertainty k = 0.211856
         8        15        22        37     9      180.000000       -0.412992         4    ;  uncertainty k = 0.196225
         9        10        14        33     9        0.000000       16.539194         1    ;  uncertainty k = 0.182172
         9        10        14        33     9      180.000000       -3.181446         2    ;  uncertainty k = 0.394315
         9        10        14        33     9        0.000000        1.050863         3    ;  uncertainty k = 0.081907
         9        10        14        33     9      180.000000        0.368805         4    ;  uncertainty k = 0.156069
         9        10        19        12     9        0.000000       -0.273818         1    ;  uncertainty k = 0.106175
         9        10        19        12     9      180.000000        2.079481         2    ;  uncertainty k = 0.182501
         9        10        19        12     9        0.000000        0.512262         3    ;  uncertainty k = 0.147544
         9        10        19        12     9      180.000000        0.343982         4    ;  uncertainty k = 0.021980
         9        10        19        13     9        0.000000       -0.273818         1    ;  uncertainty k = 0.106175
         9        10        19        13     9      180.000000        2.079481         2    ;  uncertainty k = 0.182501
         9        10        19        13     9        0.000000        0.512262         3    ;  uncertainty k = 0.147544
         9        10        19        13     9      180.000000        0.343982         4    ;  uncertainty k = 0.021980
         9        22        15        20     9        0.000000        8.533711         1    ;  uncertainty k = 0.435190
         9        22        15        20     9      180.000000       12.802851         2    ;  uncertainty k = 0.140763
         9        22        15        20     9        0.000000        1.500694         3    ;  uncertainty k = 0.229157
         9        22        15        20     9      180.000000       -0.498831         4    ;  uncertainty k = 0.087310
        10         9        22        15     9        0.000000       -0.181203         1    ;  uncertainty k = 0.437855
        10         9        22        15     9      180.000000       -0.656643         2    ;  uncertainty k = 0.612261
        10         9        22        15     9        0.000000        0.233868         3    ;  uncertainty k = 0.313268
        10         9        22        15     9      180.000000        0.414120         4    ;  uncertainty k = 0.035681
        10         9        22        37     9        0.000000        3.680901         1    ;  uncertainty k = 0.713382
        10         9        22        37     9      180.000000       -3.627771         2    ;  uncertainty k = 0.381036
        10         9        22        37     9        0.000000        0.657609         3    ;  uncertainty k = 0.120801
        10         9        22        37     9      180.000000       -0.046604         4    ;  uncertainty k = 0.144754
        10        19        12        11     9        0.000000        0.277494         1    ;  uncertainty k = 0.259279
        10        19        12        11     9      180.000000        9.380655         2    ;  uncertainty k = 0.580889
        10        19        12        11     9        0.000000        1.260903         3    ;  uncertainty k = 0.297020
        10        19        12        11     9      180.000000        1.849205         4    ;  uncertainty k = 0.223533
        10        19        12        31     9        0.000000       -0.044601         1    ;  uncertainty k = 0.495487
        10        19        12        31     9      180.000000        7.557641         2    ;  uncertainty k = 0.152609
        10        19        12        31     9        0.000000        0.648505         3    ;  uncertainty k = 0.330112
        10        19        12        31     9      180.000000        0.986671         4    ;  uncertainty k = 0.169058
        10        19        13        18     9        0.000000        0.277494         1    ;  uncertainty k = 0.259279
        10        19        13        18     9      180.000000        9.380655         2    ;  uncertainty k = 0.580889
        10        19        13        18     9        0.000000        1.260903         3    ;  uncertainty k = 0.297020
        10        19        13        18     9      180.000000        1.849205         4    ;  uncertainty k = 0.223533
        10        19        13        32     9        0.000000       -0.044601         1    ;  uncertainty k = 0.495487
        10        19        13        32     9      180.000000        7.557641         2    ;  uncertainty k = 0.152609
        10        19        13        32     9        0.000000        0.648505         3    ;  uncertainty k = 0.330112
        10        19        13        32     9      180.000000        0.986671         4    ;  uncertainty k = 0.169058
        11        12        19        13     9        0.000000       -0.165953         1    ;  uncertainty k = 0.169992
        11        12        19        13     9      180.000000       11.757607         2    ;  uncertainty k = 0.401729
        11        12        19        13     9        0.000000       -0.505821         3    ;  uncertainty k = 0.348703
        11        12        19        13     9      180.000000        0.798513         4    ;  uncertainty k = 0.397673
        11        17        18        13     9        0.000000       -0.003189         1    ;  uncertainty k = 0.038440
        11        17        18        13     9      180.000000       15.016788         2    ;  uncertainty k = 0.249663
        11        17        18        13     9        0.000000       -1.210513         3    ;  uncertainty k = 0.492875
        11        17        18        13     9      180.000000        0.498916         4    ;  uncertainty k = 0.293179
        11        17        18        36     9        0.000000        0.038009         1    ;  uncertainty k = 0.035822
        11        17        18        36     9      180.000000        7.549305         2    ;  uncertainty k = 0.334350
        11        17        18        36     9        0.000000        1.438249         3    ;  uncertainty k = 0.318741
        11        17        18        36     9      180.000000        1.792783         4    ;  uncertainty k = 0.163179
        12        11        17        18     9        0.000000       -0.003189         1    ;  uncertainty k = 0.038440
        12        11        17        18     9      180.000000       15.016788         2    ;  uncertainty k = 0.249663
        12        11        17        18     9        0.000000       -1.210513         3    ;  uncertainty k = 0.492875
        12        11        17        18     9      180.000000        0.498916         4    ;  uncertainty k = 0.293179
        12        11        17        35     9        0.000000        0.056378         1    ;  uncertainty k = 0.091793
        12        11        17        35     9      180.000000        7.450064         2    ;  uncertainty k = 0.356222
        12        11        17        35     9        0.000000        1.472207         3    ;  uncertainty k = 0.287391
        12        11        17        35     9      180.000000        1.800180         4    ;  uncertainty k = 0.190036
        12        19        10        14     9        0.000000       -1.453975         1    ;  uncertainty k = 0.447986
        12        19        10        14     9      180.000000        3.360421         2    ;  uncertainty k = 0.198780
        12        19        10        14     9        0.000000        0.848407         3    ;  uncertainty k = 0.189850
        12        19        10        14     9      180.000000        0.435805         4    ;  uncertainty k = 0.036604
        12        19        10        29     9        0.000000       -0.600193         1    ;  uncertainty k = 0.218608
        12        19        10        29     9      180.000000        1.966965         2    ;  uncertainty k = 0.154440
        12        19        10        29     9        0.000000        0.553661         3    ;  uncertainty k = 0.127024
        12        19        10        29     9      180.000000        0.313797         4    ;  uncertainty k = 0.019730
        12        19        13        18     9        0.000000       -0.165953         1    ;  uncertainty k = 0.169992
        12        19        13        18     9      180.000000       11.757607         2    ;  uncertainty k = 0.401729
        12        19        13        18     9        0.000000       -0.505821         3    ;  uncertainty k = 0.348703
        12        19        13        18     9      180.000000        0.798513         4    ;  uncertainty k = 0.397673
        12        19        13        32     9        0.000000        0.131870         1    ;  uncertainty k = 0.167883
        12        19        13        32     9      180.000000        7.224544         2    ;  uncertainty k = 0.567570
        12        19        13        32     9        0.000000        1.415746         3    ;  uncertainty k = 0.327246
        12        19        13        32     9      180.000000        1.668075         4    ;  uncertainty k = 0.170613
        13        18        17        35     9        0.000000        0.056378         1    ;  uncertainty k = 0.091793
        13        18        17        35     9      180.000000        7.450064         2    ;  uncertainty k = 0.356222
        13        18        17        35     9        0.000000        1.472207         3    ;  uncertainty k = 0.287391
        13        18        17        35     9      180.000000        1.800180         4    ;  uncertainty k = 0.190036
        13        19        10        14     9        0.000000       -1.453975         1    ;  uncertainty k = 0.447986
        13        19        10        14     9      180.000000        3.360421         2    ;  uncertainty k = 0.198780
        13        19        10        14     9        0.000000        0.848407         3    ;  uncertainty k = 0.189850
        13        19        10        14     9      180.000000        0.435805         4    ;  uncertainty k = 0.036604
        13        19        10        29     9        0.000000       -0.600193         1    ;  uncertainty k = 0.218608
        13        19        10        29     9      180.000000        1.966965         2    ;  uncertainty k = 0.154440
        13        19        10        29     9        0.000000        0.553661         3    ;  uncertainty k = 0.127024
        13        19        10        29     9      180.000000        0.313797         4    ;  uncertainty k = 0.019730
        13        19        12        31     9        0.000000        0.131870         1    ;  uncertainty k = 0.167883
        13        19        12        31     9      180.000000        7.224544         2    ;  uncertainty k = 0.567570
        13        19        12        31     9        0.000000        1.415746         3    ;  uncertainty k = 0.327246
        13        19        12        31     9      180.000000        1.668075         4    ;  uncertainty k = 0.170613
        14        10         9        22     9        0.000000       -0.052607         1    ;  uncertainty k = 0.764083
        14        10         9        22     9      180.000000       -0.749437         2    ;  uncertainty k = 0.395318
        14        10         9        22     9        0.000000        1.713416         3    ;  uncertainty k = 0.321039
        14        10         9        22     9      180.000000       -0.561414         4    ;  uncertainty k = 0.195159
        14        10         9        27     9        0.000000       -1.242394         1    ;  uncertainty k = 0.559340
        14        10         9        27     9      180.000000       -0.234284         2    ;  uncertainty k = 0.168601
        14        10         9        27     9        0.000000        1.039378         3    ;  uncertainty k = 0.150261
        14        10         9        27     9      180.000000       -0.102798         4    ;  uncertainty k = 0.150575
        14        10         9        28     9        0.000000       -1.242394         1    ;  uncertainty k = 0.559340
        14        10         9        28     9      180.000000       -0.234284         2    ;  uncertainty k = 0.168601
        14        10         9        28     9        0.000000        1.039378         3    ;  uncertainty k = 0.150261
        14        10         9        28     9      180.000000       -0.102798         4    ;  uncertainty k = 0.150575
        15         8         7        21     9        0.000000       -0.248525         1    ;  uncertainty k = 0.478878
        15         8         7        21     9      180.000000       12.542350         2    ;  uncertainty k = 0.533528
        15         8         7        21     9        0.000000       -1.085268         3    ;  uncertainty k = 0.696342
        15         8         7        21     9      180.000000        1.025470         4    ;  uncertainty k = 0.330640
        15        20        16        21     9        0.000000       -0.727031         1    ;  uncertainty k = 1.154526
        15        20        16        21     9      180.000000       15.842485         2    ;  uncertainty k = 0.398145
        15        20        16        21     9        0.000000       -0.257081         3    ;  uncertainty k = 0.319591
        15        20        16        21     9      180.000000        0.992483         4    ;  uncertainty k = 0.176270
        15        20        16        34     9        0.000000       -0.392488         1    ;  uncertainty k = 0.864220
        15        20        16        34     9      180.000000       12.489467         2    ;  uncertainty k = 0.378782
        15        20        16        34     9        0.000000        1.355690         3    ;  uncertainty k = 0.760379
        15        20        16        34     9      180.000000        0.853020         4    ;  uncertainty k = 0.299132
        15        22         9        27     9        0.000000       -1.147632         1    ;  uncertainty k = 0.263721
        15        22         9        27     9      180.000000       -0.482322         2    ;  uncertainty k = 0.302946
        15        22         9        27     9        0.000000        0.226739         3    ;  uncertainty k = 0.211259
        15        22         9        27     9      180.000000        0.248702         4    ;  uncertainty k = 0.013743
        15        22         9        28     9        0.000000       -1.147632         1    ;  uncertainty k = 0.263721
        15        22         9        28     9      180.000000       -0.482322         2    ;  uncertainty k = 0.302946
        15        22         9        28     9        0.000000        0.226739         3    ;  uncertainty k = 0.211259
        15        22         9        28     9      180.000000        0.248702         4    ;  uncertainty k = 0.013743
        16        20        15        22     9        0.000000       -0.152560         1    ;  uncertainty k = 1.153662
        16        20        15        22     9      180.000000       12.736509         2    ;  uncertainty k = 0.218695
        16        20        15        22     9        0.000000        2.232715         3    ;  uncertainty k = 0.423520
        16        20        15        22     9      180.000000        1.585263         4    ;  uncertainty k = 0.416482
        17        11        12        19     9        0.000000       -0.091981         1    ;  uncertainty k = 0.109878
        17        11        12        19     9      180.000000       13.825977         2    ;  uncertainty k = 0.203920
        17        11        12        19     9        0.000000       -0.976820         3    ;  uncertainty k = 0.497977
        17        11        12        19     9      180.000000        0.702825         4    ;  uncertainty k = 0.246026
        17        11        12        31     9        0.000000        0.043151         1    ;  uncertainty k = 0.053762
        17        11        12        31     9      180.000000        7.853416         2    ;  uncertainty k = 0.298299
        17        11        12        31     9        0.000000        1.416969         3    ;  uncertainty k = 0.297576
        17        11        12        31     9      180.000000        1.844954         4    ;  uncertainty k = 0.168713
        17        18        13        19     9        0.000000       -0.091981         1    ;  uncertainty k = 0.109878
        17        18        13        19     9      180.000000       13.825977         2    ;  uncertainty k = 0.203920
        17        18        13        19     9        0.000000       -0.976820         3    ;  uncertainty k = 0.497977
        17        18        13        19     9      180.000000        0.702825         4    ;  uncertainty k = 0.246026
        17        18        13        32     9        0.000000        0.043151         1    ;  uncertainty k = 0.053762
        17        18        13        32     9      180.000000        7.853416         2    ;  uncertainty k = 0.298299
        17        18        13        32     9        0.000000        1.416969         3    ;  uncertainty k = 0.297576
        17        18        13        32     9      180.000000        1.844954         4    ;  uncertainty k = 0.168713
        18        17        11        30     9        0.000000        0.038009         1    ;  uncertainty k = 0.035822
        18        17        11        30     9      180.000000        7.549305         2    ;  uncertainty k = 0.334350
        18        17        11        30     9        0.000000        1.438249         3    ;  uncertainty k = 0.318741
        18        17        11        30     9      180.000000        1.792783         4    ;  uncertainty k = 0.163179
        19        10         9        22     9        0.000000       -2.195261         1    ;  uncertainty k = 0.395882
        19        10         9        22     9      180.000000       -0.031057         2    ;  uncertainty k = 0.681736
        19        10         9        22     9        0.000000        2.005161         3    ;  uncertainty k = 0.343930
        19        10         9        22     9      180.000000        0.115840         4    ;  uncertainty k = 0.059502
        19        10         9        27     9        0.000000       -0.032425         1    ;  uncertainty k = 0.325911
        19        10         9        27     9      180.000000        0.090710         2    ;  uncertainty k = 0.447956
        19        10         9        27     9        0.000000        0.614218         3    ;  uncertainty k = 0.070661
        19        10         9        27     9      180.000000       -0.058272         4    ;  uncertainty k = 0.097588
        19        10         9        28     9        0.000000       -0.032425         1    ;  uncertainty k = 0.325911
        19        10         9        28     9      180.000000        0.090710         2    ;  uncertainty k = 0.447956
        19        10         9        28     9        0.000000        0.614218         3    ;  uncertainty k = 0.070661
        19        10         9        28     9      180.000000       -0.058272         4    ;  uncertainty k = 0.097588
        19        10        14        33     9        0.000000       15.207439         1    ;  uncertainty k = 0.126759
        19        10        14        33     9      180.000000       -2.891249         2    ;  uncertainty k = 0.433974
        19        10        14        33     9        0.000000        1.036217         3    ;  uncertainty k = 0.050697
        19        10        14        33     9      180.000000        0.184126         4    ;  uncertainty k = 0.080140
        19        12        11        30     9        0.000000        0.047860         1    ;  uncertainty k = 0.232277
        19        12        11        30     9      180.000000        7.569870         2    ;  uncertainty k = 0.397811
        19        12        11        30     9        0.000000        1.467091         3    ;  uncertainty k = 0.255631
        19        12        11        30     9      180.000000        1.771465         4    ;  uncertainty k = 0.128664
        19        13        18        36     9        0.000000        0.047860         1    ;  uncertainty k = 0.232277
        19        13        18        36     9      180.000000        7.569870         2    ;  uncertainty k = 0.397811
        19        13        18        36     9        0.000000        1.467091         3    ;  uncertainty k = 0.255631
        19        13        18        36     9      180.000000        1.771465         4    ;  uncertainty k = 0.128664
        20        15         8        26     9        0.000000        0.249111         1    ;  uncertainty k = 0.450714
        20        15         8        26     9      180.000000        6.845142         2    ;  uncertainty k = 0.457090
        20        15         8        26     9        0.000000        1.342062         3    ;  uncertainty k = 0.374432
        20        15         8        26     9      180.000000        1.372476         4    ;  uncertainty k = 0.171953
        20        15        22        37     9        0.000000       12.912348         1    ;  uncertainty k = 0.293676
        20        15        22        37     9      180.000000        9.801748         2    ;  uncertainty k = 0.250858
        20        15        22        37     9        0.000000        0.647644         3    ;  uncertainty k = 0.160502
        20        15        22        37     9      180.000000       -0.317777         4    ;  uncertainty k = 0.163284
        21         7         8        26     9        0.000000        0.159529         1    ;  uncertainty k = 0.624829
        21         7         8        26     9      180.000000        9.178246         2    ;  uncertainty k = 0.437937
        21         7         8        26     9        0.000000        1.383696         3    ;  uncertainty k = 0.250431
        21         7         8        26     9      180.000000        1.567768         4    ;  uncertainty k = 0.154595
        22         9        10        29     9        0.000000       -0.572508         1    ;  uncertainty k = 0.377115
        22         9        10        29     9      180.000000       -0.600289         2    ;  uncertainty k = 0.341220
        22         9        10        29     9        0.000000        1.087420         3    ;  uncertainty k = 0.209284
        22         9        10        29     9      180.000000       -0.040588         4    ;  uncertainty k = 0.052009
        22        15         8        26     9        0.000000       -0.296826         1    ;  uncertainty k = 0.345651
        22        15         8        26     9      180.000000        5.479218         2    ;  uncertainty k = 0.647782
        22        15         8        26     9        0.000000        0.987843         3    ;  uncertainty k = 0.396911
        22        15         8        26     9      180.000000        0.695542         4    ;  uncertainty k = 0.197095
        23         2         4        38     9        0.000000       -0.208488         1    ;  uncertainty k = 0.084652
        23         2         4        38     9      180.000000        8.256971         2    ;  uncertainty k = 0.392037
        23         2         4        38     9        0.000000        0.509557         3    ;  uncertainty k = 0.303632
        23         2         4        38     9      180.000000        1.195168         4    ;  uncertainty k = 0.225675
        24         3         5        25     9        0.000000       -0.125541         1    ;  uncertainty k = 0.115148
        24         3         5        25     9      180.000000        7.648086         2    ;  uncertainty k = 0.405716
        24         3         5        25     9        0.000000       -0.382730         3    ;  uncertainty k = 0.210600
        24         3         5        25     9      180.000000        0.242417         4    ;  uncertainty k = 0.158127
        25         5         6        39     9        0.000000       -0.028280         1    ;  uncertainty k = 0.198765
        25         5         6        39     9      180.000000        9.029645         2    ;  uncertainty k = 0.377094
        25         5         6        39     9        0.000000        0.800899         3    ;  uncertainty k = 0.136884
        25         5         6        39     9      180.000000        1.120746         4    ;  uncertainty k = 0.258482
        27         9        10        29     9        0.000000       -0.062118         1    ;  uncertainty k = 0.175980
        27         9        10        29     9      180.000000       -0.346454         2    ;  uncertainty k = 0.237264
        27         9        10        29     9        0.000000       -0.035091         3    ;  uncertainty k = 0.145025
        27         9        10        29     9      180.000000       -0.049706         4    ;  uncertainty k = 0.074111
        27         9        22        37     9        0.000000        2.288821         1    ;  uncertainty k = 0.507795
        27         9        22        37     9      180.000000       -1.939761         2    ;  uncertainty k = 0.413857
        27         9        22        37     9        0.000000        0.268258         3    ;  uncertainty k = 0.084403
        27         9        22        37     9      180.000000        0.114796         4    ;  uncertainty k = 0.076861
        28         9        10        29     9        0.000000       -0.062118         1    ;  uncertainty k = 0.175980
        28         9        10        29     9      180.000000       -0.346454         2    ;  uncertainty k = 0.237264
        28         9        10        29     9        0.000000       -0.035091         3    ;  uncertainty k = 0.145025
        28         9        10        29     9      180.000000       -0.049706         4    ;  uncertainty k = 0.074111
        28         9        22        37     9        0.000000        2.288821         1    ;  uncertainty k = 0.507795
        28         9        22        37     9      180.000000       -1.939761         2    ;  uncertainty k = 0.413857
        28         9        22        37     9        0.000000        0.268258         3    ;  uncertainty k = 0.084403
        28         9        22        37     9      180.000000        0.114796         4    ;  uncertainty k = 0.076861
        29        10        14        33     9        0.000000       11.445024         1    ;  uncertainty k = 0.077908
        29        10        14        33     9      180.000000       -2.625800         2    ;  uncertainty k = 0.375643
        29        10        14        33     9        0.000000        0.698341         3    ;  uncertainty k = 0.074671
        29        10        14        33     9      180.000000        0.156691         4    ;  uncertainty k = 0.100510
        30        11        12        31     9        0.000000       -0.051759         1    ;  uncertainty k = 0.105402
        30        11        12        31     9      180.000000        7.644705         2    ;  uncertainty k = 0.306864
        30        11        12        31     9        0.000000       -0.441178         3    ;  uncertainty k = 0.237620
        30        11        12        31     9      180.000000        0.096993         4    ;  uncertainty k = 0.103181
        30        11        17        35     9        0.000000       -0.014778         1    ;  uncertainty k = 0.078555
        30        11        17        35     9      180.000000        7.498073         2    ;  uncertainty k = 0.337617
        30        11        17        35     9        0.000000       -0.424125         3    ;  uncertainty k = 0.279662
        30        11        17        35     9      180.000000        0.048151         4    ;  uncertainty k = 0.148926
        32        13        18        36     9        0.000000       -0.051759         1    ;  uncertainty k = 0.105402
        32        13        18        36     9      180.000000        7.644705         2    ;  uncertainty k = 0.306864
        32        13        18        36     9        0.000000       -0.441178         3    ;  uncertainty k = 0.237620
        32        13        18        36     9      180.000000        0.096993         4    ;  uncertainty k = 0.103181
        35        17        18        36     9        0.000000       -0.014778         1    ;  uncertainty k = 0.078555
        35        17        18        36     9      180.000000        7.498073         2    ;  uncertainty k = 0.337617
        35        17        18        36     9        0.000000       -0.424125         3    ;  uncertainty k = 0.279662
        35        17        18        36     9      180.000000        0.048151         4    ;  uncertainty k = 0.148926
        38         4         6        39     9        0.000000       -0.239836         1    ;  uncertainty k = 0.765378
        38         4         6        39     9      180.000000       12.337254         2    ;  uncertainty k = 0.528977
        38         4         6        39     9        0.000000        0.691179         3    ;  uncertainty k = 0.388647
        38         4         6        39     9      180.000000        1.173664         4    ;  uncertainty k = 0.332422

[ dihedrals ] ; impropers
;       ai        aj        ak        al funct           phase               k        pn
         1         2         3         7     4      180.000000        9.217058         2    ;  uncertainty k = 0.098914
         1         3         7         2     4      180.000000        9.217058         2    ;  uncertainty k = 0.098914
         1         7         2         3     4      180.000000        9.217058         2    ;  uncertainty k = 0.098914
         2         1         4        23     4      180.000000        4.000523         2    ;  uncertainty k = 0.227709
         2         4        23         1     4      180.000000        4.000523         2    ;  uncertainty k = 0.227709
         2        23         1         4     4      180.000000        4.000523         2    ;  uncertainty k = 0.227709
         3         1         5        24     4      180.000000        4.007981         2    ;  uncertainty k = 0.067981
         3         5        24         1     4      180.000000        4.007981         2    ;  uncertainty k = 0.067981
         3        24         1         5     4      180.000000        4.007981         2    ;  uncertainty k = 0.067981
         4         2         6        38     4      180.000000       12.582892         2    ;  uncertainty k = 0.092843
         4         6        38         2     4      180.000000       12.582892         2    ;  uncertainty k = 0.092843
         4        38         2         6     4      180.000000       12.582892         2    ;  uncertainty k = 0.092843
         5         3         6        25     4      180.000000        1.717508         2    ;  uncertainty k = 0.391457
         5         6        25         3     4      180.000000        1.717508         2    ;  uncertainty k = 0.391457
         5        25         3         6     4      180.000000        1.717508         2    ;  uncertainty k = 0.391457
         6         4         5        39     4      180.000000       18.610639         2    ;  uncertainty k = 0.049573
         6         5        39         4     4      180.000000       18.610639         2    ;  uncertainty k = 0.049573
         6        39         4         5     4      180.000000       18.610639         2    ;  uncertainty k = 0.049573
         7         1         8        21     4      180.000000       27.644224         2    ;  uncertainty k = 0.034491
         7         8        21         1     4      180.000000       27.644224         2    ;  uncertainty k = 0.034491
         7        21         1         8     4      180.000000       27.644224         2    ;  uncertainty k = 0.034491
         8         7        15        26     4      180.000000        1.775014         2    ;  uncertainty k = 0.439146
         8        15        26         7     4      180.000000        1.775014         2    ;  uncertainty k = 0.439146
         8        26         7        15     4      180.000000        1.775014         2    ;  uncertainty k = 0.439146
        11        12        17        30     4      180.000000        4.234205         2    ;  uncertainty k = 0.081881
        11        17        30        12     4      180.000000        4.234205         2    ;  uncertainty k = 0.081881
        11        30        12        17     4      180.000000        4.234205         2    ;  uncertainty k = 0.081881
        12        11        19        31     4      180.000000        3.983249         2    ;  uncertainty k = 0.116003
        12        19        31        11     4      180.000000        3.983249         2    ;  uncertainty k = 0.116003
        12        31        11        19     4      180.000000        3.983249         2    ;  uncertainty k = 0.116003
        13        18        19        32     4      180.000000        3.983249         2    ;  uncertainty k = 0.116003
        13        19        32        18     4      180.000000        3.983249         2    ;  uncertainty k = 0.116003
        13        32        18        19     4      180.000000        3.983249         2    ;  uncertainty k = 0.116003
        15         8        20        22     4      180.000000       34.921827         2    ;  uncertainty k = 0.079106
        15        20        22         8     4      180.000000       34.921827         2    ;  uncertainty k = 0.079106
        15        22         8        20     4      180.000000       34.921827         2    ;  uncertainty k = 0.079106
        16        20        21        34     4      180.000000       24.227487         2    ;  uncertainty k = 0.059569
        16        21        34        20     4      180.000000       24.227487         2    ;  uncertainty k = 0.059569
        16        34        20        21     4      180.000000       24.227487         2    ;  uncertainty k = 0.059569
        17        11        18        35     4      180.000000        4.404546         2    ;  uncertainty k = 0.145826
        17        18        35        11     4      180.000000        4.404546         2    ;  uncertainty k = 0.145826
        17        35        11        18     4      180.000000        4.404546         2    ;  uncertainty k = 0.145826
        18        13        17        36     4      180.000000        4.234205         2    ;  uncertainty k = 0.081881
        18        17        36        13     4      180.000000        4.234205         2    ;  uncertainty k = 0.081881
        18        36        13        17     4      180.000000        4.234205         2    ;  uncertainty k = 0.081881
        19        10        12        13     4      180.000000       12.157434         2    ;  uncertainty k = 0.087858
        19        12        13        10     4      180.000000       12.157434         2    ;  uncertainty k = 0.087858
        19        13        10        12     4      180.000000       12.157434         2    ;  uncertainty k = 0.087858
        22         9        15        37     4      180.000000        0.223430         2    ;  uncertainty k = 0.499605
        22        15        37         9     4      180.000000        0.223430         2    ;  uncertainty k = 0.499605
        22        37         9        15     4      180.000000        0.223430         2    ;  uncertainty k = 0.499605

[ pairs ]
;       ai        aj funct
         1         6     1
         1        15     1
         1        16     1
         1        25     1
         1        26     1
         1        38     1
         2         5     1
         2         8     1
         2        21     1
         2        24     1
         2        39     1
         2        44     1
         2        45     1
         2        46     1
         3         4     1
         3         8     1
         3        21     1
         3        23     1
         3        39     1
         4         7     1
         4        25     1
         4        40     1
         5         7     1
         5        38     1
         5        40     1
         6        23     1
         6        24     1
         6        41     1
         6        42     1
         6        43     1
         6        44     1
         6        45     1
         6        46     1
         7        20     1
         7        22     1
         7        23     1
         7        24     1
         7        34     1
         8         9     1
         8        16     1
         8        37     1
         9        12     1
         9        13     1
         9        20     1
         9        33     1
        10        11     1
        10        15     1
        10        18     1
        10        31     1
        10        32     1
        10        37     1
        11        13     1
        11        36     1
        12        14     1
        12        18     1
        12        29     1
        12        32     1
        12        35     1
        13        14     1
        13        29     1
        13        31     1
        13        35     1
        14        22     1
        14        27     1
        14        28     1
        15        21     1
        15        27     1
        15        28     1
        15        34     1
        16        22     1
        17        19     1
        17        31     1
        17        32     1
        18        30     1
        19        22     1
        19        27     1
        19        28     1
        19        30     1
        19        33     1
        19        36     1
        20        26     1
        20        37     1
        21        26     1
        22        26     1
        22        29     1
        23        38     1
        24        25     1
        25        39     1
        27        29     1
        27        37     1
        28        29     1
        28        37     1
        29        33     1
        30        31     1
        30        35     1
        32        36     1
        35        36     1
        38        39     1
