; ITP file created by ByteFF-joint-25, 2025-07-14 11:36:41.147943

[ atomtypes ]
;name           bonded.type        at.num        mass        charge   ptype           sigma         epsilon
 c0bf                                   6      0.0000       0.00000       A     3.31522e-01     4.13265e-01    ;  uncertainty sigma = 0.000010, epsilon = 0.001035
 c1bf                                   6      0.0000       0.00000       A     3.31512e-01     4.13198e-01    ;  uncertainty sigma = 0.000012, epsilon = 0.000882
 c2bf                                   6      0.0000       0.00000       A     3.31525e-01     4.13454e-01    ;  uncertainty sigma = 0.000008, epsilon = 0.000563
 c3bf                                   6      0.0000       0.00000       A     3.31510e-01     4.13918e-01    ;  uncertainty sigma = 0.000012, epsilon = 0.001329
 c4bf                                   6      0.0000       0.00000       A     3.31519e-01     4.13164e-01    ;  uncertainty sigma = 0.000005, epsilon = 0.000413
 c5bf                                   6      0.0000       0.00000       A     3.31510e-01     4.13617e-01    ;  uncertainty sigma = 0.000010, epsilon = 0.001134
 c6bf                                   6      0.0000       0.00000       A     3.31522e-01     4.13381e-01    ;  uncertainty sigma = 0.000016, epsilon = 0.000628
 c7bf                                   6      0.0000       0.00000       A     3.31527e-01     4.13260e-01    ;  uncertainty sigma = 0.000014, epsilon = 0.001138
 c8bf                                   6      0.0000       0.00000       A     3.39762e-01     4.50673e-01    ;  uncertainty sigma = 0.000011, epsilon = 0.001255
 c9bf                                   6      0.0000       0.00000       A     3.39750e-01     4.50544e-01    ;  uncertainty sigma = 0.000007, epsilon = 0.000791
 c10bf                                  6      0.0000       0.00000       A     3.31517e-01     4.13350e-01    ;  uncertainty sigma = 0.000003, epsilon = 0.000541
 c11bf                                  6      0.0000       0.00000       A     3.31519e-01     4.13304e-01    ;  uncertainty sigma = 0.000003, epsilon = 0.000583
 c12bf                                  6      0.0000       0.00000       A     3.31519e-01     4.13304e-01    ;  uncertainty sigma = 0.000003, epsilon = 0.000583
 o13bf                                  8      0.0000       0.00000       A     3.24257e-01     3.88598e-01    ;  uncertainty sigma = 0.000013, epsilon = 0.001596
 c14bf                                  6      0.0000       0.00000       A     3.31516e-01     4.13349e-01    ;  uncertainty sigma = 0.000011, epsilon = 0.000874
 c15bf                                  6      0.0000       0.00000       A     3.31502e-01     4.13579e-01    ;  uncertainty sigma = 0.000011, epsilon = 0.000388
 c16bf                                  6      0.0000       0.00000       A     3.31519e-01     4.13331e-01    ;  uncertainty sigma = 0.000003, epsilon = 0.000569
 c17bf                                  6      0.0000       0.00000       A     3.31517e-01     4.13350e-01    ;  uncertainty sigma = 0.000003, epsilon = 0.000541
 c18bf                                  6      0.0000       0.00000       A     3.31542e-01     4.12960e-01    ;  uncertainty sigma = 0.000004, epsilon = 0.000669
 n19bf                                  7      0.0000       0.00000       A     3.38417e-01     3.93373e-01    ;  uncertainty sigma = 0.000016, epsilon = 0.001202
 n20bf                                  7      0.0000       0.00000       A     3.38417e-01     3.93426e-01    ;  uncertainty sigma = 0.000018, epsilon = 0.000868
 n21bf                                  7      0.0000       0.00000       A     3.27787e-01     6.48850e-01    ;  uncertainty sigma = 0.000034, epsilon = 0.002592
 h22bf                                  1      0.0000       0.00000       A     2.62569e-01     6.74627e-02    ;  uncertainty sigma = 0.000015, epsilon = 0.000917
 h23bf                                  1      0.0000       0.00000       A     2.62565e-01     6.70566e-02    ;  uncertainty sigma = 0.000012, epsilon = 0.000585
 h24bf                                  1      0.0000       0.00000       A     2.62558e-01     6.70738e-02    ;  uncertainty sigma = 0.000007, epsilon = 0.000371
 h25bf                                  1      0.0000       0.00000       A     2.62541e-01     6.69041e-02    ;  uncertainty sigma = 0.000018, epsilon = 0.000969
 h26bf                                  1      0.0000       0.00000       A     2.42232e-01     8.67796e-02    ;  uncertainty sigma = 0.000037, epsilon = 0.000692
 h27bf                                  1      0.0000       0.00000       A     2.42232e-01     8.67796e-02    ;  uncertainty sigma = 0.000037, epsilon = 0.000692
 h28bf                                  1      0.0000       0.00000       A     2.42260e-01     8.69504e-02    ;  uncertainty sigma = 0.000011, epsilon = 0.000481
 h29bf                                  1      0.0000       0.00000       A     2.62558e-01     6.70324e-02    ;  uncertainty sigma = 0.000010, epsilon = 0.000442
 h30bf                                  1      0.0000       0.00000       A     2.62562e-01     6.70739e-02    ;  uncertainty sigma = 0.000004, epsilon = 0.000538
 h31bf                                  1      0.0000       0.00000       A     2.62562e-01     6.70739e-02    ;  uncertainty sigma = 0.000004, epsilon = 0.000538
 h32bf                                  1      0.0000       0.00000       A     5.38011e-02     1.91837e-02    ;  uncertainty sigma = 0.000073, epsilon = 0.000888
 h33bf                                  1      0.0000       0.00000       A     2.44735e-01     6.71447e-02    ;  uncertainty sigma = 0.000026, epsilon = 0.000712
 h34bf                                  1      0.0000       0.00000       A     2.62552e-01     6.70645e-02    ;  uncertainty sigma = 0.000011, epsilon = 0.000453
 h35bf                                  1      0.0000       0.00000       A     2.62558e-01     6.70324e-02    ;  uncertainty sigma = 0.000010, epsilon = 0.000442
 h36bf                                  1      0.0000       0.00000       A     1.10591e-01     4.16159e-02    ;  uncertainty sigma = 0.000130, epsilon = 0.000719
 c37bf                                  6      0.0000       0.00000       A     3.39787e-01     4.50491e-01    ;  uncertainty sigma = 0.000013, epsilon = 0.000751
 o38bf                                  8      0.0000       0.00000       A     3.15612e-01     3.03222e-01    ;  uncertainty sigma = 0.000028, epsilon = 0.000977
 c39bf                                  6      0.0000       0.00000       A     3.39777e-01     4.50647e-01    ;  uncertainty sigma = 0.000007, epsilon = 0.000626
 h40bf                                  1      0.0000       0.00000       A     2.42221e-01     8.67884e-02    ;  uncertainty sigma = 0.000018, epsilon = 0.000403
 h41bf                                  1      0.0000       0.00000       A     2.42221e-01     8.67884e-02    ;  uncertainty sigma = 0.000018, epsilon = 0.000403
 c42bf                                  6      0.0000       0.00000       A     3.39778e-01     4.51009e-01    ;  uncertainty sigma = 0.000006, epsilon = 0.000505
 f43bf                                  9      0.0000       0.00000       A     3.03422e-01     3.48077e-01    ;  uncertainty sigma = 0.000014, epsilon = 0.000848
 f44bf                                  9      0.0000       0.00000       A     3.03422e-01     3.48077e-01    ;  uncertainty sigma = 0.000014, epsilon = 0.000848
 f45bf                                  9      0.0000       0.00000       A     3.03422e-01     3.48077e-01    ;  uncertainty sigma = 0.000014, epsilon = 0.000848
 h46bf                                  1      0.0000       0.00000       A     2.60025e-01     8.66247e-02    ;  uncertainty sigma = 0.000011, epsilon = 0.000873
 h47bf                                  1      0.0000       0.00000       A     2.60025e-01     8.66247e-02    ;  uncertainty sigma = 0.000011, epsilon = 0.000873
 h48bf                                  1      0.0000       0.00000       A     2.60025e-01     8.66248e-02    ;  uncertainty sigma = 0.000011, epsilon = 0.000874

[ moleculetype ]
;name             nrexcl
 MOL                   3

[ atoms ]
;       nr            type      resi   res      atom      cgnr      charge          mass ; qtot
         1            c0bf         1   UNL        c0         1    -0.17783       12.0110 ; qtot   -0.178
         2            c1bf         1   UNL        c1         2    -0.01645       12.0110 ; qtot   -0.194
         3            c2bf         1   UNL        c2         3    -0.04822       12.0110 ; qtot   -0.242
         4            c3bf         1   UNL        c3         4    -0.22756       12.0110 ; qtot   -0.470
         5            c4bf         1   UNL        c4         5    -0.21354       12.0110 ; qtot   -0.684
         6            c5bf         1   UNL        c5         6     0.20526       12.0110 ; qtot   -0.478
         7            c6bf         1   UNL        c6         7     0.53133       12.0110 ; qtot    0.053
         8            c7bf         1   UNL        c7         8    -0.42185       12.0110 ; qtot   -0.369
         9            c8bf         1   UNL        c8         9     0.20508       12.0110 ; qtot   -0.164
        10            c9bf         1   UNL        c9        10     0.17238       12.0110 ; qtot    0.009
        11           c10bf         1   UNL       c10        11    -0.13212       12.0110 ; qtot   -0.124
        12           c11bf         1   UNL       c11        12    -0.11431       12.0110 ; qtot   -0.238
        13           c12bf         1   UNL       c12        13    -0.11431       12.0110 ; qtot   -0.352
        14           o13bf         1   UNL       o13        14    -0.60202       15.9990 ; qtot   -0.954
        15           c14bf         1   UNL       c14        15     0.69818       12.0110 ; qtot   -0.256
        16           c15bf         1   UNL       c15        16     0.68025       12.0110 ; qtot    0.424
        17           c16bf         1   UNL       c16        17    -0.12191       12.0110 ; qtot    0.302
        18           c17bf         1   UNL       c17        18    -0.13212       12.0110 ; qtot    0.170
        19           c18bf         1   UNL       c18        19    -0.11806       12.0110 ; qtot    0.052
        20           n19bf         1   UNL       n19        20    -0.77724       14.0070 ; qtot   -0.725
        21           n20bf         1   UNL       n20        21    -0.73428       14.0070 ; qtot   -1.459
        22           n21bf         1   UNL       n21        22    -0.87199       14.0070 ; qtot   -2.331
        23           h22bf         1   UNL       h22        23     0.16716        1.0080 ; qtot   -2.164
        24           h23bf         1   UNL       h23        24     0.14715        1.0080 ; qtot   -2.017
        25           h24bf         1   UNL       h24        25     0.14877        1.0080 ; qtot   -1.868
        26           h25bf         1   UNL       h25        26     0.15255        1.0080 ; qtot   -1.716
        27           h26bf         1   UNL       h26        27     0.06384        1.0080 ; qtot   -1.652
        28           h27bf         1   UNL       h27        28     0.06384        1.0080 ; qtot   -1.588
        29           h28bf         1   UNL       h28        29     0.05801        1.0080 ; qtot   -1.530
        30           h29bf         1   UNL       h29        30     0.13206        1.0080 ; qtot   -1.398
        31           h30bf         1   UNL       h30        31     0.13699        1.0080 ; qtot   -1.261
        32           h31bf         1   UNL       h31        32     0.13699        1.0080 ; qtot   -1.124
        33           h32bf         1   UNL       h32        33     0.41310        1.0080 ; qtot   -0.711
        34           h33bf         1   UNL       h33        34     0.05077        1.0080 ; qtot   -0.660
        35           h34bf         1   UNL       h34        35     0.13198        1.0080 ; qtot   -0.528
        36           h35bf         1   UNL       h35        36     0.13206        1.0080 ; qtot   -0.396
        37           h36bf         1   UNL       h36        37     0.44064        1.0080 ; qtot    0.045
        38           c37bf         1   UNL       c37        38     0.72103       12.0110 ; qtot    0.766
        39           o38bf         1   UNL       o38        39    -0.33190       15.9990 ; qtot    0.434
        40           c39bf         1   UNL       c39        40     0.13837       12.0110 ; qtot    0.572
        41           h40bf         1   UNL       h40        41     0.04170        1.0080 ; qtot    0.614
        42           h41bf         1   UNL       h41        42     0.04170        1.0080 ; qtot    0.655
        43           c42bf         1   UNL       c42        43    -0.11011       12.0110 ; qtot    0.545
        44           f43bf         1   UNL       f43        44    -0.22730       18.9980 ; qtot    0.318
        45           f44bf         1   UNL       f44        45    -0.22730       18.9980 ; qtot    0.091
        46           f45bf         1   UNL       f45        46    -0.22730       18.9980 ; qtot   -0.137
        47           h46bf         1   UNL       h46        47     0.04551        1.0080 ; qtot   -0.091
        48           h47bf         1   UNL       h47        48     0.04551        1.0080 ; qtot   -0.046
        49           h48bf         1   UNL       h48        49     0.04551        1.0080 ; qtot   -0.000

[ bonds ]
;       ai        aj funct               r               k
         1         2     1        0.139360   341105.988330    ;  uncertainty r = 0.000045, k = 3.526505
         1         3     1        0.139670   345447.475684    ;  uncertainty r = 0.000083, k = 3.125534
         1         7     1        0.147291   259953.932324    ;  uncertainty r = 0.000053, k = 5.621998
         2         4     1        0.138499   341562.208789    ;  uncertainty r = 0.000087, k = 11.098756
         2        23     1        0.108486   331994.730762    ;  uncertainty r = 0.000050, k = 2.964586
         3         5     1        0.139004   368183.138623    ;  uncertainty r = 0.000056, k = 3.154058
         3        24     1        0.108649   332818.353613    ;  uncertainty r = 0.000023, k = 1.038213
         4         6     1        0.140343   339093.536426    ;  uncertainty r = 0.000080, k = 11.840433
         4        38     1        0.150020   223687.048926    ;  uncertainty r = 0.000131, k = 3.060222
         5         6     1        0.139784   352449.240332    ;  uncertainty r = 0.000075, k = 5.435745
         5        25     1        0.108751   336783.704883    ;  uncertainty r = 0.000025, k = 0.965014
         6        39     1        0.135961   319829.771191    ;  uncertainty r = 0.000121, k = 16.635393
         7         8     1        0.140348   428110.971045    ;  uncertainty r = 0.000064, k = 9.515517
         7        21     1        0.135597   395478.018311    ;  uncertainty r = 0.000037, k = 8.602592
         8        15     1        0.142200   437085.145410    ;  uncertainty r = 0.000074, k = 7.312812
         8        26     1        0.108982   347697.397168    ;  uncertainty r = 0.000060, k = 3.509310
         9        10     1        0.153528   198932.485962    ;  uncertainty r = 0.000113, k = 4.485541
         9        22     1        0.144360   258703.533301    ;  uncertainty r = 0.000127, k = 5.188267
         9        27     1        0.109548   306948.010498    ;  uncertainty r = 0.000056, k = 1.476386
         9        28     1        0.109548   306948.010498    ;  uncertainty r = 0.000056, k = 1.476386
        10        14     1        0.143014   262792.254346    ;  uncertainty r = 0.000086, k = 14.622904
        10        19     1        0.151556   222180.461621    ;  uncertainty r = 0.000089, k = 7.017739
        10        29     1        0.109828   303256.263818    ;  uncertainty r = 0.000046, k = 1.650587
        11        12     1        0.139619   365954.387402    ;  uncertainty r = 0.000008, k = 1.292992
        11        17     1        0.139616   371124.732715    ;  uncertainty r = 0.000020, k = 1.036768
        11        30     1        0.108853   334096.639160    ;  uncertainty r = 0.000011, k = 0.985251
        12        19     1        0.139806   351916.766064    ;  uncertainty r = 0.000010, k = 1.187834
        12        31     1        0.108853   333813.534766    ;  uncertainty r = 0.000015, k = 0.555194
        13        18     1        0.139619   365954.387402    ;  uncertainty r = 0.000008, k = 1.292992
        13        19     1        0.139806   351916.766064    ;  uncertainty r = 0.000010, k = 1.187834
        13        32     1        0.108853   333813.534766    ;  uncertainty r = 0.000015, k = 0.555194
        14        33     1        0.097118   460583.525195    ;  uncertainty r = 0.000045, k = 3.102113
        15        20     1        0.135563   598530.699805    ;  uncertainty r = 0.000139, k = 9.101913
        15        22     1        0.139244   503022.932227    ;  uncertainty r = 0.000156, k = 11.982701
        16        20     1        0.134248   427021.200439    ;  uncertainty r = 0.000126, k = 12.560964
        16        21     1        0.133902   409960.291797    ;  uncertainty r = 0.000038, k = 12.892596
        16        34     1        0.108823   332455.624512    ;  uncertainty r = 0.000016, k = 3.398046
        17        18     1        0.139616   371124.758252    ;  uncertainty r = 0.000020, k = 1.036768
        17        35     1        0.108851   334582.457129    ;  uncertainty r = 0.000012, k = 0.680670
        18        36     1        0.108853   334096.639160    ;  uncertainty r = 0.000011, k = 0.985251
        22        37     1        0.101725   420522.644531    ;  uncertainty r = 0.000069, k = 3.098785
        38        44     1        0.135432   283658.600879    ;  uncertainty r = 0.000078, k = 5.096734
        38        45     1        0.135432   283658.600879    ;  uncertainty r = 0.000078, k = 5.096734
        38        46     1        0.135432   283658.600879    ;  uncertainty r = 0.000078, k = 5.096734
        39        40     1        0.143291   232962.918701    ;  uncertainty r = 0.000100, k = 3.392310
        40        41     1        0.109722   308207.832715    ;  uncertainty r = 0.000034, k = 1.673481
        40        42     1        0.109722   308207.832715    ;  uncertainty r = 0.000034, k = 1.673481
        40        43     1        0.152683   226739.984814    ;  uncertainty r = 0.000068, k = 2.249403
        43        47     1        0.109577   311430.309473    ;  uncertainty r = 0.000012, k = 1.777145
        43        48     1        0.109577   311430.335010    ;  uncertainty r = 0.000012, k = 1.777135
        43        49     1        0.109577   311430.309473    ;  uncertainty r = 0.000012, k = 1.777145

[ angles ]
;       ai        aj        ak funct           theta             cth
         1         2         4     1      123.500633      517.712605    ;  uncertainty theta = 0.002731, k = 0.192074
         1         2        23     1      117.903793      263.517942    ;  uncertainty theta = 0.002792, k = 0.109715
         1         3         5     1      121.231567      521.379415    ;  uncertainty theta = 0.002186, k = 0.064452
         1         3        24     1      117.939651      266.227845    ;  uncertainty theta = 0.003229, k = 0.130776
         1         7         8     1      120.890404      400.912347    ;  uncertainty theta = 0.005282, k = 0.201789
         1         7        21     1      117.897560      472.004882    ;  uncertainty theta = 0.004771, k = 0.167397
         2         1         3     1      120.626389      434.696347    ;  uncertainty theta = 0.001854, k = 0.164616
         2         1         7     1      117.416031      397.320361    ;  uncertainty theta = 0.003427, k = 0.109737
         2         4         6     1      124.043213      455.443684    ;  uncertainty theta = 0.004739, k = 0.138598
         2         4        38     1      116.369347      366.002512    ;  uncertainty theta = 0.005429, k = 0.218600
         3         1         7     1      118.419968      400.456286    ;  uncertainty theta = 0.003189, k = 0.129568
         3         5         6     1      121.218651      514.628776    ;  uncertainty theta = 0.001677, k = 0.145133
         3         5        25     1      120.579384      283.426801    ;  uncertainty theta = 0.001329, k = 0.080820
         4         2        23     1      116.473732      264.143314    ;  uncertainty theta = 0.002385, k = 0.097256
         4         6         5     1      122.420914      367.662871    ;  uncertainty theta = 0.005963, k = 0.186251
         4         6        39     1      116.414284      458.023826    ;  uncertainty theta = 0.003145, k = 0.092079
         4        38        44     1      112.503883      646.757876    ;  uncertainty theta = 0.001082, k = 0.034879
         4        38        45     1      112.503883      646.757876    ;  uncertainty theta = 0.001082, k = 0.034879
         4        38        46     1      112.503883      646.757876    ;  uncertainty theta = 0.001082, k = 0.034879
         5         3        24     1      119.888649      284.921583    ;  uncertainty theta = 0.001792, k = 0.039220
         5         6        39     1      120.229698      435.462939    ;  uncertainty theta = 0.004466, k = 0.115832
         6         4        38     1      116.487099      362.507950    ;  uncertainty theta = 0.005631, k = 0.328423
         6         5        25     1      118.239014      271.413985    ;  uncertainty theta = 0.002017, k = 0.076428
         6        39        40     1      110.815346      491.568926    ;  uncertainty theta = 0.001793, k = 0.043439
         7         8        15     1      117.423264      475.722192    ;  uncertainty theta = 0.006163, k = 0.291536
         7         8        26     1      122.136292      274.865070    ;  uncertainty theta = 0.001926, k = 0.175869
         7        21        16     1      114.123764      411.073339    ;  uncertainty theta = 0.005165, k = 0.198286
         8         7        21     1      121.765846      596.725507    ;  uncertainty theta = 0.004067, k = 0.125601
         8        15        20     1      120.465775      559.577504    ;  uncertainty theta = 0.004274, k = 0.131688
         8        15        22     1      124.405197      635.166262    ;  uncertainty theta = 0.005407, k = 0.116906
         9        10        14     1      108.648598      745.773101    ;  uncertainty theta = 0.001850, k = 0.090465
         9        10        19     1      111.675133      529.233800    ;  uncertainty theta = 0.002433, k = 0.102801
         9        10        29     1      107.655739      397.413157    ;  uncertainty theta = 0.001835, k = 0.063660
         9        22        15     1      115.022720      415.197008    ;  uncertainty theta = 0.003932, k = 0.139541
         9        22        37     1      111.930687      338.512452    ;  uncertainty theta = 0.006639, k = 0.093922
        10         9        22     1      109.072731      588.135334    ;  uncertainty theta = 0.003588, k = 0.076167
        10         9        27     1      108.264954      386.766225    ;  uncertainty theta = 0.001128, k = 0.087129
        10         9        28     1      108.264954      386.766225    ;  uncertainty theta = 0.001128, k = 0.087129
        10        14        33     1      107.778908      462.824962    ;  uncertainty theta = 0.002314, k = 0.060682
        10        19        12     1      119.990318      398.450314    ;  uncertainty theta = 0.001704, k = 0.122614
        10        19        13     1      119.990318      398.450314    ;  uncertainty theta = 0.001704, k = 0.122614
        11        12        19     1      120.930702      517.466172    ;  uncertainty theta = 0.001222, k = 0.047814
        11        12        31     1      120.258339      291.729553    ;  uncertainty theta = 0.002156, k = 0.015437
        11        17        18     1      118.312904      525.474865    ;  uncertainty theta = 0.001259, k = 0.033725
        11        17        35     1      120.606750      289.256635    ;  uncertainty theta = 0.001707, k = 0.007155
        12        11        17     1      119.668961      514.607037    ;  uncertainty theta = 0.000852, k = 0.027695
        12        11        30     1      120.182228      283.193264    ;  uncertainty theta = 0.001483, k = 0.023123
        12        19        13     1      120.620529      467.609435    ;  uncertainty theta = 0.001046, k = 0.044080
        13        18        17     1      119.668961      514.607037    ;  uncertainty theta = 0.000852, k = 0.027695
        13        18        36     1      120.182228      283.193264    ;  uncertainty theta = 0.001483, k = 0.023123
        14        10        19     1      111.132469      757.316130    ;  uncertainty theta = 0.001813, k = 0.056225
        14        10        29     1      107.460892      475.171803    ;  uncertainty theta = 0.003128, k = 0.059555
        15         8        26     1      122.820290      279.161624    ;  uncertainty theta = 0.002177, k = 0.088284
        15        20        16     1      114.208336      402.225401    ;  uncertainty theta = 0.007184, k = 0.116286
        15        22        37     1      114.952065      412.285969    ;  uncertainty theta = 0.001414, k = 0.081088
        17        11        30     1      120.593102      287.981121    ;  uncertainty theta = 0.001462, k = 0.008017
        17        18        36     1      120.593102      287.981121    ;  uncertainty theta = 0.001462, k = 0.008017
        18        13        19     1      120.930702      517.466172    ;  uncertainty theta = 0.001222, k = 0.047814
        18        13        32     1      120.258339      291.729553    ;  uncertainty theta = 0.002156, k = 0.015437
        18        17        35     1      120.606750      289.256635    ;  uncertainty theta = 0.001707, k = 0.007155
        19        10        29     1      107.338806      403.998379    ;  uncertainty theta = 0.003013, k = 0.110102
        19        12        31     1      118.778320      265.740150    ;  uncertainty theta = 0.001504, k = 0.035529
        19        13        32     1      118.778320      265.740150    ;  uncertainty theta = 0.001504, k = 0.035529
        20        15        22     1      122.203979      876.041727    ;  uncertainty theta = 0.006036, k = 0.092665
        20        16        21     1      127.365524      928.346132    ;  uncertainty theta = 0.002641, k = 0.109018
        20        16        34     1      115.958923      303.662438    ;  uncertainty theta = 0.004108, k = 0.062101
        21        16        34     1      116.290024      310.582675    ;  uncertainty theta = 0.004161, k = 0.066237
        22         9        27     1      106.848366      448.950650    ;  uncertainty theta = 0.001286, k = 0.079205
        22         9        28     1      106.848366      448.950650    ;  uncertainty theta = 0.001286, k = 0.079205
        27         9        28     1      106.681496      323.153860    ;  uncertainty theta = 0.001150, k = 0.024224
        39        40        41     1      106.690964      427.013220    ;  uncertainty theta = 0.001170, k = 0.034000
        39        40        42     1      106.690964      427.013220    ;  uncertainty theta = 0.001170, k = 0.034000
        39        40        43     1      109.341812      625.563735    ;  uncertainty theta = 0.000864, k = 0.048127
        40        43        47     1      107.948387      408.660338    ;  uncertainty theta = 0.001538, k = 0.030924
        40        43        48     1      107.948387      408.660338    ;  uncertainty theta = 0.001538, k = 0.030924
        40        43        49     1      107.948387      408.660338    ;  uncertainty theta = 0.001538, k = 0.030924
        41        40        42     1      107.257874      327.808477    ;  uncertainty theta = 0.001319, k = 0.022862
        41        40        43     1      110.357468      423.061608    ;  uncertainty theta = 0.000813, k = 0.030293
        42        40        43     1      110.357468      423.061608    ;  uncertainty theta = 0.000813, k = 0.030293
        44        38        45     1      108.018845      811.369444    ;  uncertainty theta = 0.001256, k = 0.041154
        44        38        46     1      108.018845      811.369444    ;  uncertainty theta = 0.001256, k = 0.041154
        45        38        46     1      108.018845      811.369444    ;  uncertainty theta = 0.001256, k = 0.041154
        47        43        48     1      105.427452      313.948307    ;  uncertainty theta = 0.002179, k = 0.009445
        47        43        49     1      105.427452      313.948307    ;  uncertainty theta = 0.002179, k = 0.009445
        48        43        49     1      105.427452      313.948307    ;  uncertainty theta = 0.002179, k = 0.009445

[ dihedrals ] ; propers for gromacs 4.5 or higher, use funct 9
;       ai        aj        ak        al funct           phase               k        pn
         1         2         4         6     9        0.000000       -0.104997         1    ;  uncertainty k = 0.081805
         1         2         4         6     9      180.000000       10.375516         2    ;  uncertainty k = 0.405792
         1         2         4         6     9        0.000000        0.363104         3    ;  uncertainty k = 0.158249
         1         2         4         6     9      180.000000        1.253752         4    ;  uncertainty k = 0.341256
         1         2         4        38     9        0.000000        0.368477         1    ;  uncertainty k = 0.519766
         1         2         4        38     9      180.000000       10.512711         2    ;  uncertainty k = 0.524066
         1         2         4        38     9        0.000000        1.622975         3    ;  uncertainty k = 0.290823
         1         2         4        38     9      180.000000        1.925404         4    ;  uncertainty k = 0.369573
         1         3         5         6     9        0.000000       -0.020288         1    ;  uncertainty k = 0.311038
         1         3         5         6     9      180.000000       12.946434         2    ;  uncertainty k = 0.317571
         1         3         5         6     9        0.000000       -0.511776         3    ;  uncertainty k = 0.313029
         1         3         5         6     9      180.000000        0.970436         4    ;  uncertainty k = 0.269221
         1         3         5        25     9        0.000000        0.074903         1    ;  uncertainty k = 0.175450
         1         3         5        25     9      180.000000        8.140398         2    ;  uncertainty k = 0.427105
         1         3         5        25     9        0.000000        1.386016         3    ;  uncertainty k = 0.204162
         1         3         5        25     9      180.000000        1.880348         4    ;  uncertainty k = 0.147461
         1         7         8        15     9        0.000000       -0.251051         1    ;  uncertainty k = 0.623421
         1         7         8        15     9      180.000000        7.811517         2    ;  uncertainty k = 0.934561
         1         7         8        15     9        0.000000        0.644248         3    ;  uncertainty k = 0.309154
         1         7         8        15     9      180.000000        1.109298         4    ;  uncertainty k = 0.336646
         1         7         8        26     9        0.000000       -0.161711         1    ;  uncertainty k = 1.076388
         1         7         8        26     9      180.000000        6.994665         2    ;  uncertainty k = 0.527658
         1         7         8        26     9        0.000000        0.730636         3    ;  uncertainty k = 0.290254
         1         7         8        26     9      180.000000        0.949233         4    ;  uncertainty k = 0.223568
         1         7        21        16     9        0.000000        0.015617         1    ;  uncertainty k = 0.581713
         1         7        21        16     9      180.000000       14.504168         2    ;  uncertainty k = 0.390945
         1         7        21        16     9        0.000000        2.049372         3    ;  uncertainty k = 0.368009
         1         7        21        16     9      180.000000        1.541948         4    ;  uncertainty k = 0.436206
         2         1         3         5     9        0.000000        0.086576         1    ;  uncertainty k = 0.136661
         2         1         3         5     9      180.000000       10.939026         2    ;  uncertainty k = 0.382038
         2         1         3         5     9        0.000000       -0.629723         3    ;  uncertainty k = 0.284162
         2         1         3         5     9      180.000000        0.972552         4    ;  uncertainty k = 0.248316
         2         1         3        24     9        0.000000        0.198279         1    ;  uncertainty k = 0.064608
         2         1         3        24     9      180.000000        7.099640         2    ;  uncertainty k = 0.416639
         2         1         3        24     9        0.000000        1.267270         3    ;  uncertainty k = 0.278050
         2         1         3        24     9      180.000000        1.590203         4    ;  uncertainty k = 0.243814
         2         1         7         8     9        0.000000       -0.366698         1    ;  uncertainty k = 0.513119
         2         1         7         8     9      180.000000        4.027774         2    ;  uncertainty k = 0.299152
         2         1         7         8     9        0.000000        0.522325         3    ;  uncertainty k = 0.172801
         2         1         7         8     9      180.000000       -0.110648         4    ;  uncertainty k = 0.059722
         2         1         7        21     9        0.000000        1.503221         1    ;  uncertainty k = 0.625396
         2         1         7        21     9      180.000000        5.159826         2    ;  uncertainty k = 0.144401
         2         1         7        21     9        0.000000        0.649136         3    ;  uncertainty k = 0.222315
         2         1         7        21     9      180.000000        0.097717         4    ;  uncertainty k = 0.043864
         2         4         6         5     9        0.000000       -0.142312         1    ;  uncertainty k = 0.581272
         2         4         6         5     9      180.000000        6.367492         2    ;  uncertainty k = 0.542832
         2         4         6         5     9        0.000000        0.377456         3    ;  uncertainty k = 0.258292
         2         4         6         5     9      180.000000        1.279676         4    ;  uncertainty k = 0.225218
         2         4         6        39     9        0.000000        0.175403         1    ;  uncertainty k = 0.383431
         2         4         6        39     9      180.000000       10.026931         2    ;  uncertainty k = 0.337433
         2         4         6        39     9        0.000000        1.037037         3    ;  uncertainty k = 0.274255
         2         4         6        39     9      180.000000        1.528297         4    ;  uncertainty k = 0.146537
         2         4        38        44     9        0.000000       -0.321181         1    ;  uncertainty k = 0.256874
         2         4        38        44     9      180.000000        2.649883         2    ;  uncertainty k = 0.326077
         2         4        38        44     9        0.000000        0.174248         3    ;  uncertainty k = 0.040871
         2         4        38        44     9      180.000000        0.154584         4    ;  uncertainty k = 0.027470
         2         4        38        45     9        0.000000       -0.321181         1    ;  uncertainty k = 0.256874
         2         4        38        45     9      180.000000        2.649883         2    ;  uncertainty k = 0.326077
         2         4        38        45     9        0.000000        0.174248         3    ;  uncertainty k = 0.040871
         2         4        38        45     9      180.000000        0.154584         4    ;  uncertainty k = 0.027470
         2         4        38        46     9        0.000000       -0.321181         1    ;  uncertainty k = 0.256874
         2         4        38        46     9      180.000000        2.649883         2    ;  uncertainty k = 0.326077
         2         4        38        46     9        0.000000        0.174248         3    ;  uncertainty k = 0.040871
         2         4        38        46     9      180.000000        0.154584         4    ;  uncertainty k = 0.027470
         3         1         2         4     9        0.000000        0.165613         1    ;  uncertainty k = 0.525944
         3         1         2         4     9      180.000000        9.307801         2    ;  uncertainty k = 0.358880
         3         1         2         4     9        0.000000       -0.009155         3    ;  uncertainty k = 0.211265
         3         1         2         4     9      180.000000        1.110028         4    ;  uncertainty k = 0.271477
         3         1         2        23     9        0.000000        0.136018         1    ;  uncertainty k = 0.222487
         3         1         2        23     9      180.000000        7.058875         2    ;  uncertainty k = 0.453118
         3         1         2        23     9        0.000000        1.275683         3    ;  uncertainty k = 0.129374
         3         1         2        23     9      180.000000        1.603056         4    ;  uncertainty k = 0.293938
         3         1         7         8     9        0.000000       -0.397553         1    ;  uncertainty k = 0.509438
         3         1         7         8     9      180.000000        4.092244         2    ;  uncertainty k = 0.235077
         3         1         7         8     9        0.000000        0.511962         3    ;  uncertainty k = 0.155128
         3         1         7         8     9      180.000000       -0.121363         4    ;  uncertainty k = 0.044591
         3         1         7        21     9        0.000000        1.102703         1    ;  uncertainty k = 0.675120
         3         1         7        21     9      180.000000        5.287003         2    ;  uncertainty k = 0.086842
         3         1         7        21     9        0.000000        0.627654         3    ;  uncertainty k = 0.175182
         3         1         7        21     9      180.000000        0.110435         4    ;  uncertainty k = 0.040526
         3         5         6         4     9        0.000000        0.138674         1    ;  uncertainty k = 0.432296
         3         5         6         4     9      180.000000        7.148337         2    ;  uncertainty k = 0.526582
         3         5         6         4     9        0.000000        0.581989         3    ;  uncertainty k = 0.387465
         3         5         6         4     9      180.000000        1.434287         4    ;  uncertainty k = 0.213016
         3         5         6        39     9        0.000000       -0.069702         1    ;  uncertainty k = 0.181232
         3         5         6        39     9      180.000000       10.749872         2    ;  uncertainty k = 0.258007
         3         5         6        39     9        0.000000        1.276878         3    ;  uncertainty k = 0.179984
         3         5         6        39     9      180.000000        1.598362         4    ;  uncertainty k = 0.122564
         4         2         1         7     9        0.000000        0.317926         1    ;  uncertainty k = 0.355928
         4         2         1         7     9      180.000000        8.061763         2    ;  uncertainty k = 0.703580
         4         2         1         7     9        0.000000        1.269082         3    ;  uncertainty k = 0.341590
         4         2         1         7     9      180.000000        1.763102         4    ;  uncertainty k = 0.240888
         4         6         5        25     9        0.000000        0.125162         1    ;  uncertainty k = 0.354315
         4         6         5        25     9      180.000000        6.027232         2    ;  uncertainty k = 0.350110
         4         6         5        25     9        0.000000        1.427927         3    ;  uncertainty k = 0.367035
         4         6         5        25     9      180.000000        1.629676         4    ;  uncertainty k = 0.163392
         4         6        39        40     9        0.000000       -3.996555         1    ;  uncertainty k = 1.133741
         4         6        39        40     9      180.000000        9.589385         2    ;  uncertainty k = 0.316440
         4         6        39        40     9        0.000000       -0.425753         3    ;  uncertainty k = 0.428925
         4         6        39        40     9      180.000000        0.366402         4    ;  uncertainty k = 0.163641
         5         3         1         7     9        0.000000        0.301638         1    ;  uncertainty k = 0.508298
         5         3         1         7     9      180.000000        9.024347         2    ;  uncertainty k = 0.600735
         5         3         1         7     9        0.000000        1.205468         3    ;  uncertainty k = 0.366960
         5         3         1         7     9      180.000000        1.786602         4    ;  uncertainty k = 0.201048
         5         6         4        38     9        0.000000        0.479349         1    ;  uncertainty k = 0.288775
         5         6         4        38     9      180.000000        7.663621         2    ;  uncertainty k = 0.349054
         5         6         4        38     9        0.000000        1.343085         3    ;  uncertainty k = 0.326800
         5         6         4        38     9      180.000000        1.800191         4    ;  uncertainty k = 0.166673
         5         6        39        40     9        0.000000        2.822518         1    ;  uncertainty k = 0.219146
         5         6        39        40     9      180.000000        7.721767         2    ;  uncertainty k = 0.138558
         5         6        39        40     9        0.000000        0.240035         3    ;  uncertainty k = 0.182625
         5         6        39        40     9      180.000000        0.040464         4    ;  uncertainty k = 0.058870
         6         4         2        23     9        0.000000       -0.015312         1    ;  uncertainty k = 0.354778
         6         4         2        23     9      180.000000        8.444420         2    ;  uncertainty k = 0.219324
         6         4         2        23     9        0.000000        1.147166         3    ;  uncertainty k = 0.431191
         6         4         2        23     9      180.000000        1.624779         4    ;  uncertainty k = 0.081095
         6         4        38        44     9        0.000000        0.306319         1    ;  uncertainty k = 0.384301
         6         4        38        44     9      180.000000        2.663832         2    ;  uncertainty k = 0.529385
         6         4        38        44     9        0.000000        0.989031         3    ;  uncertainty k = 0.172497
         6         4        38        44     9      180.000000        0.237930         4    ;  uncertainty k = 0.076815
         6         4        38        45     9        0.000000        0.306319         1    ;  uncertainty k = 0.384301
         6         4        38        45     9      180.000000        2.663832         2    ;  uncertainty k = 0.529385
         6         4        38        45     9        0.000000        0.989031         3    ;  uncertainty k = 0.172497
         6         4        38        45     9      180.000000        0.237930         4    ;  uncertainty k = 0.076815
         6         4        38        46     9        0.000000        0.306319         1    ;  uncertainty k = 0.384301
         6         4        38        46     9      180.000000        2.663832         2    ;  uncertainty k = 0.529385
         6         4        38        46     9        0.000000        0.989031         3    ;  uncertainty k = 0.172497
         6         4        38        46     9      180.000000        0.237930         4    ;  uncertainty k = 0.076815
         6         5         3        24     9        0.000000       -0.024132         1    ;  uncertainty k = 0.330450
         6         5         3        24     9      180.000000        7.900748         2    ;  uncertainty k = 0.288998
         6         5         3        24     9        0.000000        1.266845         3    ;  uncertainty k = 0.218072
         6         5         3        24     9      180.000000        1.711723         4    ;  uncertainty k = 0.078729
         6        39        40        41     9        0.000000        1.005473         1    ;  uncertainty k = 0.454899
         6        39        40        41     9      180.000000       -1.786118         2    ;  uncertainty k = 0.386308
         6        39        40        41     9        0.000000        0.678507         3    ;  uncertainty k = 0.108943
         6        39        40        41     9      180.000000        0.275683         4    ;  uncertainty k = 0.057272
         6        39        40        42     9        0.000000        1.005473         1    ;  uncertainty k = 0.454899
         6        39        40        42     9      180.000000       -1.786118         2    ;  uncertainty k = 0.386308
         6        39        40        42     9        0.000000        0.678507         3    ;  uncertainty k = 0.108943
         6        39        40        42     9      180.000000        0.275683         4    ;  uncertainty k = 0.057272
         6        39        40        43     9        0.000000       -0.852527         1    ;  uncertainty k = 0.563445
         6        39        40        43     9      180.000000       -0.163346         2    ;  uncertainty k = 0.306462
         6        39        40        43     9        0.000000        0.744507         3    ;  uncertainty k = 0.119628
         6        39        40        43     9      180.000000        0.456607         4    ;  uncertainty k = 0.041002
         7         1         2        23     9        0.000000       -0.194616         1    ;  uncertainty k = 0.335561
         7         1         2        23     9      180.000000        7.352720         2    ;  uncertainty k = 0.244449
         7         1         2        23     9        0.000000        0.775110         3    ;  uncertainty k = 0.125193
         7         1         2        23     9      180.000000        1.250903         4    ;  uncertainty k = 0.098377
         7         1         3        24     9        0.000000       -0.337154         1    ;  uncertainty k = 0.429717
         7         1         3        24     9      180.000000        7.327856         2    ;  uncertainty k = 0.324712
         7         1         3        24     9        0.000000        0.714621         3    ;  uncertainty k = 0.097965
         7         1         3        24     9      180.000000        1.152633         4    ;  uncertainty k = 0.073074
         7         8        15        20     9        0.000000       -0.500133         1    ;  uncertainty k = 0.439040
         7         8        15        20     9      180.000000        7.834468         2    ;  uncertainty k = 0.794802
         7         8        15        20     9        0.000000       -0.902125         3    ;  uncertainty k = 0.537798
         7         8        15        20     9      180.000000        1.182676         4    ;  uncertainty k = 0.320344
         7         8        15        22     9        0.000000       -0.965370         1    ;  uncertainty k = 0.759248
         7         8        15        22     9      180.000000        6.451864         2    ;  uncertainty k = 0.459721
         7         8        15        22     9        0.000000        0.063391         3    ;  uncertainty k = 0.343169
         7         8        15        22     9      180.000000        0.905959         4    ;  uncertainty k = 0.177698
         7        21        16        20     9        0.000000       -0.819129         1    ;  uncertainty k = 0.644873
         7        21        16        20     9      180.000000       16.551521         2    ;  uncertainty k = 0.382986
         7        21        16        20     9        0.000000        0.076416         3    ;  uncertainty k = 0.570044
         7        21        16        20     9      180.000000        1.171091         4    ;  uncertainty k = 0.289628
         7        21        16        34     9        0.000000       -0.422172         1    ;  uncertainty k = 0.379756
         7        21        16        34     9      180.000000       12.360556         2    ;  uncertainty k = 0.398014
         7        21        16        34     9        0.000000        1.725694         3    ;  uncertainty k = 0.673646
         7        21        16        34     9      180.000000        1.287781         4    ;  uncertainty k = 0.424421
         8         7        21        16     9        0.000000       -0.256090         1    ;  uncertainty k = 0.862245
         8         7        21        16     9      180.000000       13.280856         2    ;  uncertainty k = 0.530960
         8         7        21        16     9        0.000000        0.312819         3    ;  uncertainty k = 0.972868
         8         7        21        16     9      180.000000        1.131435         4    ;  uncertainty k = 0.376839
         8        15        20        16     9        0.000000       -0.350078         1    ;  uncertainty k = 0.812325
         8        15        20        16     9      180.000000        9.930014         2    ;  uncertainty k = 0.557509
         8        15        20        16     9        0.000000        0.516622         3    ;  uncertainty k = 0.789553
         8        15        20        16     9      180.000000        1.058186         4    ;  uncertainty k = 0.142047
         8        15        22         9     9        0.000000        5.603689         1    ;  uncertainty k = 0.487731
         8        15        22         9     9      180.000000        9.173858         2    ;  uncertainty k = 0.234225
         8        15        22         9     9        0.000000        0.682452         3    ;  uncertainty k = 0.250442
         8        15        22         9     9      180.000000       -0.440404         4    ;  uncertainty k = 0.169398
         8        15        22        37     9        0.000000        4.297370         1    ;  uncertainty k = 0.414563
         8        15        22        37     9      180.000000        7.947808         2    ;  uncertainty k = 0.147068
         8        15        22        37     9        0.000000        1.249630         3    ;  uncertainty k = 0.211856
         8        15        22        37     9      180.000000       -0.412992         4    ;  uncertainty k = 0.196225
         9        10        14        33     9        0.000000       16.539194         1    ;  uncertainty k = 0.182172
         9        10        14        33     9      180.000000       -3.181446         2    ;  uncertainty k = 0.394315
         9        10        14        33     9        0.000000        1.050863         3    ;  uncertainty k = 0.081907
         9        10        14        33     9      180.000000        0.368805         4    ;  uncertainty k = 0.156069
         9        10        19        12     9        0.000000       -0.273818         1    ;  uncertainty k = 0.106175
         9        10        19        12     9      180.000000        2.079481         2    ;  uncertainty k = 0.182501
         9        10        19        12     9        0.000000        0.512262         3    ;  uncertainty k = 0.147544
         9        10        19        12     9      180.000000        0.343982         4    ;  uncertainty k = 0.021980
         9        10        19        13     9        0.000000       -0.273818         1    ;  uncertainty k = 0.106175
         9        10        19        13     9      180.000000        2.079481         2    ;  uncertainty k = 0.182501
         9        10        19        13     9        0.000000        0.512262         3    ;  uncertainty k = 0.147544
         9        10        19        13     9      180.000000        0.343982         4    ;  uncertainty k = 0.021980
         9        22        15        20     9        0.000000        8.533711         1    ;  uncertainty k = 0.435190
         9        22        15        20     9      180.000000       12.802851         2    ;  uncertainty k = 0.140763
         9        22        15        20     9        0.000000        1.500694         3    ;  uncertainty k = 0.229157
         9        22        15        20     9      180.000000       -0.498831         4    ;  uncertainty k = 0.087310
        10         9        22        15     9        0.000000       -0.181203         1    ;  uncertainty k = 0.437855
        10         9        22        15     9      180.000000       -0.656643         2    ;  uncertainty k = 0.612261
        10         9        22        15     9        0.000000        0.233868         3    ;  uncertainty k = 0.313268
        10         9        22        15     9      180.000000        0.414120         4    ;  uncertainty k = 0.035681
        10         9        22        37     9        0.000000        3.680901         1    ;  uncertainty k = 0.713382
        10         9        22        37     9      180.000000       -3.627771         2    ;  uncertainty k = 0.381036
        10         9        22        37     9        0.000000        0.657609         3    ;  uncertainty k = 0.120801
        10         9        22        37     9      180.000000       -0.046604         4    ;  uncertainty k = 0.144754
        10        19        12        11     9        0.000000        0.277494         1    ;  uncertainty k = 0.259279
        10        19        12        11     9      180.000000        9.380655         2    ;  uncertainty k = 0.580889
        10        19        12        11     9        0.000000        1.260903         3    ;  uncertainty k = 0.297020
        10        19        12        11     9      180.000000        1.849205         4    ;  uncertainty k = 0.223533
        10        19        12        31     9        0.000000       -0.044601         1    ;  uncertainty k = 0.495487
        10        19        12        31     9      180.000000        7.557641         2    ;  uncertainty k = 0.152609
        10        19        12        31     9        0.000000        0.648505         3    ;  uncertainty k = 0.330112
        10        19        12        31     9      180.000000        0.986671         4    ;  uncertainty k = 0.169058
        10        19        13        18     9        0.000000        0.277494         1    ;  uncertainty k = 0.259279
        10        19        13        18     9      180.000000        9.380655         2    ;  uncertainty k = 0.580889
        10        19        13        18     9        0.000000        1.260903         3    ;  uncertainty k = 0.297020
        10        19        13        18     9      180.000000        1.849205         4    ;  uncertainty k = 0.223533
        10        19        13        32     9        0.000000       -0.044601         1    ;  uncertainty k = 0.495487
        10        19        13        32     9      180.000000        7.557641         2    ;  uncertainty k = 0.152609
        10        19        13        32     9        0.000000        0.648505         3    ;  uncertainty k = 0.330112
        10        19        13        32     9      180.000000        0.986671         4    ;  uncertainty k = 0.169058
        11        12        19        13     9        0.000000       -0.165953         1    ;  uncertainty k = 0.169992
        11        12        19        13     9      180.000000       11.757607         2    ;  uncertainty k = 0.401729
        11        12        19        13     9        0.000000       -0.505821         3    ;  uncertainty k = 0.348703
        11        12        19        13     9      180.000000        0.798513         4    ;  uncertainty k = 0.397673
        11        17        18        13     9        0.000000       -0.003189         1    ;  uncertainty k = 0.038440
        11        17        18        13     9      180.000000       15.016788         2    ;  uncertainty k = 0.249663
        11        17        18        13     9        0.000000       -1.210513         3    ;  uncertainty k = 0.492875
        11        17        18        13     9      180.000000        0.498916         4    ;  uncertainty k = 0.293179
        11        17        18        36     9        0.000000        0.038009         1    ;  uncertainty k = 0.035822
        11        17        18        36     9      180.000000        7.549305         2    ;  uncertainty k = 0.334350
        11        17        18        36     9        0.000000        1.438249         3    ;  uncertainty k = 0.318741
        11        17        18        36     9      180.000000        1.792783         4    ;  uncertainty k = 0.163179
        12        11        17        18     9        0.000000       -0.003189         1    ;  uncertainty k = 0.038440
        12        11        17        18     9      180.000000       15.016788         2    ;  uncertainty k = 0.249663
        12        11        17        18     9        0.000000       -1.210513         3    ;  uncertainty k = 0.492875
        12        11        17        18     9      180.000000        0.498916         4    ;  uncertainty k = 0.293179
        12        11        17        35     9        0.000000        0.056378         1    ;  uncertainty k = 0.091793
        12        11        17        35     9      180.000000        7.450064         2    ;  uncertainty k = 0.356222
        12        11        17        35     9        0.000000        1.472207         3    ;  uncertainty k = 0.287391
        12        11        17        35     9      180.000000        1.800180         4    ;  uncertainty k = 0.190036
        12        19        10        14     9        0.000000       -1.453975         1    ;  uncertainty k = 0.447986
        12        19        10        14     9      180.000000        3.360421         2    ;  uncertainty k = 0.198780
        12        19        10        14     9        0.000000        0.848407         3    ;  uncertainty k = 0.189850
        12        19        10        14     9      180.000000        0.435805         4    ;  uncertainty k = 0.036604
        12        19        10        29     9        0.000000       -0.600193         1    ;  uncertainty k = 0.218608
        12        19        10        29     9      180.000000        1.966965         2    ;  uncertainty k = 0.154440
        12        19        10        29     9        0.000000        0.553661         3    ;  uncertainty k = 0.127024
        12        19        10        29     9      180.000000        0.313797         4    ;  uncertainty k = 0.019730
        12        19        13        18     9        0.000000       -0.165953         1    ;  uncertainty k = 0.169992
        12        19        13        18     9      180.000000       11.757607         2    ;  uncertainty k = 0.401729
        12        19        13        18     9        0.000000       -0.505821         3    ;  uncertainty k = 0.348703
        12        19        13        18     9      180.000000        0.798513         4    ;  uncertainty k = 0.397673
        12        19        13        32     9        0.000000        0.131870         1    ;  uncertainty k = 0.167883
        12        19        13        32     9      180.000000        7.224544         2    ;  uncertainty k = 0.567570
        12        19        13        32     9        0.000000        1.415746         3    ;  uncertainty k = 0.327246
        12        19        13        32     9      180.000000        1.668075         4    ;  uncertainty k = 0.170613
        13        18        17        35     9        0.000000        0.056378         1    ;  uncertainty k = 0.091793
        13        18        17        35     9      180.000000        7.450064         2    ;  uncertainty k = 0.356222
        13        18        17        35     9        0.000000        1.472207         3    ;  uncertainty k = 0.287391
        13        18        17        35     9      180.000000        1.800180         4    ;  uncertainty k = 0.190036
        13        19        10        14     9        0.000000       -1.453975         1    ;  uncertainty k = 0.447986
        13        19        10        14     9      180.000000        3.360421         2    ;  uncertainty k = 0.198780
        13        19        10        14     9        0.000000        0.848407         3    ;  uncertainty k = 0.189850
        13        19        10        14     9      180.000000        0.435805         4    ;  uncertainty k = 0.036604
        13        19        10        29     9        0.000000       -0.600193         1    ;  uncertainty k = 0.218608
        13        19        10        29     9      180.000000        1.966965         2    ;  uncertainty k = 0.154440
        13        19        10        29     9        0.000000        0.553661         3    ;  uncertainty k = 0.127024
        13        19        10        29     9      180.000000        0.313797         4    ;  uncertainty k = 0.019730
        13        19        12        31     9        0.000000        0.131870         1    ;  uncertainty k = 0.167883
        13        19        12        31     9      180.000000        7.224544         2    ;  uncertainty k = 0.567570
        13        19        12        31     9        0.000000        1.415746         3    ;  uncertainty k = 0.327246
        13        19        12        31     9      180.000000        1.668075         4    ;  uncertainty k = 0.170613
        14        10         9        22     9        0.000000       -0.052607         1    ;  uncertainty k = 0.764083
        14        10         9        22     9      180.000000       -0.749437         2    ;  uncertainty k = 0.395318
        14        10         9        22     9        0.000000        1.713416         3    ;  uncertainty k = 0.321039
        14        10         9        22     9      180.000000       -0.561414         4    ;  uncertainty k = 0.195159
        14        10         9        27     9        0.000000       -1.242394         1    ;  uncertainty k = 0.559340
        14        10         9        27     9      180.000000       -0.234284         2    ;  uncertainty k = 0.168601
        14        10         9        27     9        0.000000        1.039378         3    ;  uncertainty k = 0.150261
        14        10         9        27     9      180.000000       -0.102798         4    ;  uncertainty k = 0.150575
        14        10         9        28     9        0.000000       -1.242394         1    ;  uncertainty k = 0.559340
        14        10         9        28     9      180.000000       -0.234284         2    ;  uncertainty k = 0.168601
        14        10         9        28     9        0.000000        1.039378         3    ;  uncertainty k = 0.150261
        14        10         9        28     9      180.000000       -0.102798         4    ;  uncertainty k = 0.150575
        15         8         7        21     9        0.000000       -0.248525         1    ;  uncertainty k = 0.478878
        15         8         7        21     9      180.000000       12.542350         2    ;  uncertainty k = 0.533528
        15         8         7        21     9        0.000000       -1.085268         3    ;  uncertainty k = 0.696342
        15         8         7        21     9      180.000000        1.025470         4    ;  uncertainty k = 0.330640
        15        20        16        21     9        0.000000       -0.727031         1    ;  uncertainty k = 1.154526
        15        20        16        21     9      180.000000       15.842485         2    ;  uncertainty k = 0.398145
        15        20        16        21     9        0.000000       -0.257081         3    ;  uncertainty k = 0.319591
        15        20        16        21     9      180.000000        0.992483         4    ;  uncertainty k = 0.176270
        15        20        16        34     9        0.000000       -0.392488         1    ;  uncertainty k = 0.864220
        15        20        16        34     9      180.000000       12.489467         2    ;  uncertainty k = 0.378782
        15        20        16        34     9        0.000000        1.355690         3    ;  uncertainty k = 0.760379
        15        20        16        34     9      180.000000        0.853020         4    ;  uncertainty k = 0.299132
        15        22         9        27     9        0.000000       -1.147632         1    ;  uncertainty k = 0.263721
        15        22         9        27     9      180.000000       -0.482322         2    ;  uncertainty k = 0.302946
        15        22         9        27     9        0.000000        0.226739         3    ;  uncertainty k = 0.211259
        15        22         9        27     9      180.000000        0.248702         4    ;  uncertainty k = 0.013743
        15        22         9        28     9        0.000000       -1.147632         1    ;  uncertainty k = 0.263721
        15        22         9        28     9      180.000000       -0.482322         2    ;  uncertainty k = 0.302946
        15        22         9        28     9        0.000000        0.226739         3    ;  uncertainty k = 0.211259
        15        22         9        28     9      180.000000        0.248702         4    ;  uncertainty k = 0.013743
        16        20        15        22     9        0.000000       -0.152560         1    ;  uncertainty k = 1.153662
        16        20        15        22     9      180.000000       12.736509         2    ;  uncertainty k = 0.218695
        16        20        15        22     9        0.000000        2.232715         3    ;  uncertainty k = 0.423520
        16        20        15        22     9      180.000000        1.585263         4    ;  uncertainty k = 0.416482
        17        11        12        19     9        0.000000       -0.091981         1    ;  uncertainty k = 0.109878
        17        11        12        19     9      180.000000       13.825977         2    ;  uncertainty k = 0.203920
        17        11        12        19     9        0.000000       -0.976820         3    ;  uncertainty k = 0.497977
        17        11        12        19     9      180.000000        0.702825         4    ;  uncertainty k = 0.246026
        17        11        12        31     9        0.000000        0.043151         1    ;  uncertainty k = 0.053762
        17        11        12        31     9      180.000000        7.853416         2    ;  uncertainty k = 0.298299
        17        11        12        31     9        0.000000        1.416969         3    ;  uncertainty k = 0.297576
        17        11        12        31     9      180.000000        1.844954         4    ;  uncertainty k = 0.168713
        17        18        13        19     9        0.000000       -0.091981         1    ;  uncertainty k = 0.109878
        17        18        13        19     9      180.000000       13.825977         2    ;  uncertainty k = 0.203920
        17        18        13        19     9        0.000000       -0.976820         3    ;  uncertainty k = 0.497977
        17        18        13        19     9      180.000000        0.702825         4    ;  uncertainty k = 0.246026
        17        18        13        32     9        0.000000        0.043151         1    ;  uncertainty k = 0.053762
        17        18        13        32     9      180.000000        7.853416         2    ;  uncertainty k = 0.298299
        17        18        13        32     9        0.000000        1.416969         3    ;  uncertainty k = 0.297576
        17        18        13        32     9      180.000000        1.844954         4    ;  uncertainty k = 0.168713
        18        17        11        30     9        0.000000        0.038009         1    ;  uncertainty k = 0.035822
        18        17        11        30     9      180.000000        7.549305         2    ;  uncertainty k = 0.334350
        18        17        11        30     9        0.000000        1.438249         3    ;  uncertainty k = 0.318741
        18        17        11        30     9      180.000000        1.792783         4    ;  uncertainty k = 0.163179
        19        10         9        22     9        0.000000       -2.195261         1    ;  uncertainty k = 0.395882
        19        10         9        22     9      180.000000       -0.031057         2    ;  uncertainty k = 0.681736
        19        10         9        22     9        0.000000        2.005161         3    ;  uncertainty k = 0.343930
        19        10         9        22     9      180.000000        0.115840         4    ;  uncertainty k = 0.059502
        19        10         9        27     9        0.000000       -0.032425         1    ;  uncertainty k = 0.325911
        19        10         9        27     9      180.000000        0.090710         2    ;  uncertainty k = 0.447956
        19        10         9        27     9        0.000000        0.614218         3    ;  uncertainty k = 0.070661
        19        10         9        27     9      180.000000       -0.058272         4    ;  uncertainty k = 0.097588
        19        10         9        28     9        0.000000       -0.032425         1    ;  uncertainty k = 0.325911
        19        10         9        28     9      180.000000        0.090710         2    ;  uncertainty k = 0.447956
        19        10         9        28     9        0.000000        0.614218         3    ;  uncertainty k = 0.070661
        19        10         9        28     9      180.000000       -0.058272         4    ;  uncertainty k = 0.097588
        19        10        14        33     9        0.000000       15.207439         1    ;  uncertainty k = 0.126759
        19        10        14        33     9      180.000000       -2.891249         2    ;  uncertainty k = 0.433974
        19        10        14        33     9        0.000000        1.036217         3    ;  uncertainty k = 0.050697
        19        10        14        33     9      180.000000        0.184126         4    ;  uncertainty k = 0.080140
        19        12        11        30     9        0.000000        0.047860         1    ;  uncertainty k = 0.232277
        19        12        11        30     9      180.000000        7.569870         2    ;  uncertainty k = 0.397811
        19        12        11        30     9        0.000000        1.467091         3    ;  uncertainty k = 0.255631
        19        12        11        30     9      180.000000        1.771465         4    ;  uncertainty k = 0.128664
        19        13        18        36     9        0.000000        0.047860         1    ;  uncertainty k = 0.232277
        19        13        18        36     9      180.000000        7.569870         2    ;  uncertainty k = 0.397811
        19        13        18        36     9        0.000000        1.467091         3    ;  uncertainty k = 0.255631
        19        13        18        36     9      180.000000        1.771465         4    ;  uncertainty k = 0.128664
        20        15         8        26     9        0.000000        0.249111         1    ;  uncertainty k = 0.450714
        20        15         8        26     9      180.000000        6.845142         2    ;  uncertainty k = 0.457090
        20        15         8        26     9        0.000000        1.342062         3    ;  uncertainty k = 0.374432
        20        15         8        26     9      180.000000        1.372476         4    ;  uncertainty k = 0.171953
        20        15        22        37     9        0.000000       12.912348         1    ;  uncertainty k = 0.293676
        20        15        22        37     9      180.000000        9.801748         2    ;  uncertainty k = 0.250858
        20        15        22        37     9        0.000000        0.647644         3    ;  uncertainty k = 0.160502
        20        15        22        37     9      180.000000       -0.317777         4    ;  uncertainty k = 0.163284
        21         7         8        26     9        0.000000        0.159529         1    ;  uncertainty k = 0.624829
        21         7         8        26     9      180.000000        9.178246         2    ;  uncertainty k = 0.437937
        21         7         8        26     9        0.000000        1.383696         3    ;  uncertainty k = 0.250431
        21         7         8        26     9      180.000000        1.567768         4    ;  uncertainty k = 0.154595
        22         9        10        29     9        0.000000       -0.572508         1    ;  uncertainty k = 0.377115
        22         9        10        29     9      180.000000       -0.600289         2    ;  uncertainty k = 0.341220
        22         9        10        29     9        0.000000        1.087420         3    ;  uncertainty k = 0.209284
        22         9        10        29     9      180.000000       -0.040588         4    ;  uncertainty k = 0.052009
        22        15         8        26     9        0.000000       -0.296826         1    ;  uncertainty k = 0.345651
        22        15         8        26     9      180.000000        5.479218         2    ;  uncertainty k = 0.647782
        22        15         8        26     9        0.000000        0.987843         3    ;  uncertainty k = 0.396911
        22        15         8        26     9      180.000000        0.695542         4    ;  uncertainty k = 0.197095
        23         2         4        38     9        0.000000        0.290875         1    ;  uncertainty k = 0.421208
        23         2         4        38     9      180.000000        9.195084         2    ;  uncertainty k = 0.606282
        23         2         4        38     9        0.000000        0.699137         3    ;  uncertainty k = 0.119001
        23         2         4        38     9      180.000000        1.222759         4    ;  uncertainty k = 0.274957
        24         3         5        25     9        0.000000       -0.070234         1    ;  uncertainty k = 0.306626
        24         3         5        25     9      180.000000        7.978885         2    ;  uncertainty k = 0.413672
        24         3         5        25     9        0.000000       -0.420684         3    ;  uncertainty k = 0.282756
        24         3         5        25     9      180.000000        0.267828         4    ;  uncertainty k = 0.207883
        25         5         6        39     9        0.000000       -0.123498         1    ;  uncertainty k = 0.300483
        25         5         6        39     9      180.000000        9.009959         2    ;  uncertainty k = 0.460745
        25         5         6        39     9        0.000000        0.644052         3    ;  uncertainty k = 0.050829
        25         5         6        39     9      180.000000        1.139575         4    ;  uncertainty k = 0.306100
        27         9        10        29     9        0.000000       -0.062118         1    ;  uncertainty k = 0.175980
        27         9        10        29     9      180.000000       -0.346454         2    ;  uncertainty k = 0.237264
        27         9        10        29     9        0.000000       -0.035091         3    ;  uncertainty k = 0.145025
        27         9        10        29     9      180.000000       -0.049706         4    ;  uncertainty k = 0.074111
        27         9        22        37     9        0.000000        2.288821         1    ;  uncertainty k = 0.507795
        27         9        22        37     9      180.000000       -1.939761         2    ;  uncertainty k = 0.413857
        27         9        22        37     9        0.000000        0.268258         3    ;  uncertainty k = 0.084403
        27         9        22        37     9      180.000000        0.114796         4    ;  uncertainty k = 0.076861
        28         9        10        29     9        0.000000       -0.062118         1    ;  uncertainty k = 0.175980
        28         9        10        29     9      180.000000       -0.346454         2    ;  uncertainty k = 0.237264
        28         9        10        29     9        0.000000       -0.035091         3    ;  uncertainty k = 0.145025
        28         9        10        29     9      180.000000       -0.049706         4    ;  uncertainty k = 0.074111
        28         9        22        37     9        0.000000        2.288821         1    ;  uncertainty k = 0.507795
        28         9        22        37     9      180.000000       -1.939761         2    ;  uncertainty k = 0.413857
        28         9        22        37     9        0.000000        0.268258         3    ;  uncertainty k = 0.084403
        28         9        22        37     9      180.000000        0.114796         4    ;  uncertainty k = 0.076861
        29        10        14        33     9        0.000000       11.445024         1    ;  uncertainty k = 0.077908
        29        10        14        33     9      180.000000       -2.625800         2    ;  uncertainty k = 0.375643
        29        10        14        33     9        0.000000        0.698341         3    ;  uncertainty k = 0.074671
        29        10        14        33     9      180.000000        0.156691         4    ;  uncertainty k = 0.100510
        30        11        12        31     9        0.000000       -0.051759         1    ;  uncertainty k = 0.105402
        30        11        12        31     9      180.000000        7.644705         2    ;  uncertainty k = 0.306864
        30        11        12        31     9        0.000000       -0.441178         3    ;  uncertainty k = 0.237620
        30        11        12        31     9      180.000000        0.096993         4    ;  uncertainty k = 0.103181
        30        11        17        35     9        0.000000       -0.014778         1    ;  uncertainty k = 0.078555
        30        11        17        35     9      180.000000        7.498073         2    ;  uncertainty k = 0.337617
        30        11        17        35     9        0.000000       -0.424125         3    ;  uncertainty k = 0.279662
        30        11        17        35     9      180.000000        0.048151         4    ;  uncertainty k = 0.148926
        32        13        18        36     9        0.000000       -0.051759         1    ;  uncertainty k = 0.105402
        32        13        18        36     9      180.000000        7.644705         2    ;  uncertainty k = 0.306864
        32        13        18        36     9        0.000000       -0.441178         3    ;  uncertainty k = 0.237620
        32        13        18        36     9      180.000000        0.096993         4    ;  uncertainty k = 0.103181
        35        17        18        36     9        0.000000       -0.014778         1    ;  uncertainty k = 0.078555
        35        17        18        36     9      180.000000        7.498073         2    ;  uncertainty k = 0.337617
        35        17        18        36     9        0.000000       -0.424125         3    ;  uncertainty k = 0.279662
        35        17        18        36     9      180.000000        0.048151         4    ;  uncertainty k = 0.148926
        38         4         6        39     9        0.000000       -0.145149         1    ;  uncertainty k = 1.124146
        38         4         6        39     9      180.000000       12.562013         2    ;  uncertainty k = 0.588577
        38         4         6        39     9        0.000000        0.839888         3    ;  uncertainty k = 0.268364
        38         4         6        39     9      180.000000        1.318682         4    ;  uncertainty k = 0.346527
        39        40        43        47     9        0.000000       -0.696380         1    ;  uncertainty k = 0.236539
        39        40        43        47     9      180.000000       -2.667121         2    ;  uncertainty k = 0.267783
        39        40        43        47     9        0.000000        1.571924         3    ;  uncertainty k = 0.065269
        39        40        43        47     9      180.000000       -0.231729         4    ;  uncertainty k = 0.108628
        39        40        43        48     9        0.000000       -0.696380         1    ;  uncertainty k = 0.236539
        39        40        43        48     9      180.000000       -2.667121         2    ;  uncertainty k = 0.267783
        39        40        43        48     9        0.000000        1.571924         3    ;  uncertainty k = 0.065269
        39        40        43        48     9      180.000000       -0.231729         4    ;  uncertainty k = 0.108628
        39        40        43        49     9        0.000000       -0.696380         1    ;  uncertainty k = 0.236539
        39        40        43        49     9      180.000000       -2.667121         2    ;  uncertainty k = 0.267783
        39        40        43        49     9        0.000000        1.571924         3    ;  uncertainty k = 0.065269
        39        40        43        49     9      180.000000       -0.231729         4    ;  uncertainty k = 0.108628
        41        40        43        47     9        0.000000       -0.034683         1    ;  uncertainty k = 0.192806
        41        40        43        47     9      180.000000       -0.180423         2    ;  uncertainty k = 0.237698
        41        40        43        47     9        0.000000        0.669024         3    ;  uncertainty k = 0.024461
        41        40        43        47     9      180.000000       -0.075210         4    ;  uncertainty k = 0.065207
        41        40        43        48     9        0.000000       -0.034683         1    ;  uncertainty k = 0.192806
        41        40        43        48     9      180.000000       -0.180423         2    ;  uncertainty k = 0.237698
        41        40        43        48     9        0.000000        0.669024         3    ;  uncertainty k = 0.024461
        41        40        43        48     9      180.000000       -0.075210         4    ;  uncertainty k = 0.065207
        41        40        43        49     9        0.000000       -0.034683         1    ;  uncertainty k = 0.192806
        41        40        43        49     9      180.000000       -0.180423         2    ;  uncertainty k = 0.237698
        41        40        43        49     9        0.000000        0.669024         3    ;  uncertainty k = 0.024461
        41        40        43        49     9      180.000000       -0.075210         4    ;  uncertainty k = 0.065207
        42        40        43        47     9        0.000000       -0.034683         1    ;  uncertainty k = 0.192806
        42        40        43        47     9      180.000000       -0.180423         2    ;  uncertainty k = 0.237698
        42        40        43        47     9        0.000000        0.669024         3    ;  uncertainty k = 0.024461
        42        40        43        47     9      180.000000       -0.075210         4    ;  uncertainty k = 0.065207
        42        40        43        48     9        0.000000       -0.034683         1    ;  uncertainty k = 0.192806
        42        40        43        48     9      180.000000       -0.180423         2    ;  uncertainty k = 0.237698
        42        40        43        48     9        0.000000        0.669024         3    ;  uncertainty k = 0.024461
        42        40        43        48     9      180.000000       -0.075210         4    ;  uncertainty k = 0.065207
        42        40        43        49     9        0.000000       -0.034683         1    ;  uncertainty k = 0.192806
        42        40        43        49     9      180.000000       -0.180423         2    ;  uncertainty k = 0.237698
        42        40        43        49     9        0.000000        0.669024         3    ;  uncertainty k = 0.024461
        42        40        43        49     9      180.000000       -0.075210         4    ;  uncertainty k = 0.065207

[ dihedrals ] ; impropers
;       ai        aj        ak        al funct           phase               k        pn
         1         2         3         7     4      180.000000        8.842140         2    ;  uncertainty k = 0.141595
         1         3         7         2     4      180.000000        8.842140         2    ;  uncertainty k = 0.141595
         1         7         2         3     4      180.000000        8.842140         2    ;  uncertainty k = 0.141595
         2         1         4        23     4      180.000000        5.157940         2    ;  uncertainty k = 0.152856
         2         4        23         1     4      180.000000        5.157940         2    ;  uncertainty k = 0.152856
         2        23         1         4     4      180.000000        5.157940         2    ;  uncertainty k = 0.152856
         3         1         5        24     4      180.000000        4.832974         2    ;  uncertainty k = 0.056223
         3         5        24         1     4      180.000000        4.832974         2    ;  uncertainty k = 0.056223
         3        24         1         5     4      180.000000        4.832974         2    ;  uncertainty k = 0.056223
         4         2         6        38     4      180.000000        6.598085         2    ;  uncertainty k = 0.095896
         4         6        38         2     4      180.000000        6.598085         2    ;  uncertainty k = 0.095896
         4        38         2         6     4      180.000000        6.598085         2    ;  uncertainty k = 0.095896
         5         3         6        25     4      180.000000        1.566957         2    ;  uncertainty k = 0.474880
         5         6        25         3     4      180.000000        1.566957         2    ;  uncertainty k = 0.474880
         5        25         3         6     4      180.000000        1.566957         2    ;  uncertainty k = 0.474880
         6         4         5        39     4      180.000000       21.458918         2    ;  uncertainty k = 0.118348
         6         5        39         4     4      180.000000       21.458918         2    ;  uncertainty k = 0.118348
         6        39         4         5     4      180.000000       21.458918         2    ;  uncertainty k = 0.118348
         7         1         8        21     4      180.000000       27.578588         2    ;  uncertainty k = 0.030920
         7         8        21         1     4      180.000000       27.578588         2    ;  uncertainty k = 0.030920
         7        21         1         8     4      180.000000       27.578588         2    ;  uncertainty k = 0.030920
         8         7        15        26     4      180.000000        1.775014         2    ;  uncertainty k = 0.439146
         8        15        26         7     4      180.000000        1.775014         2    ;  uncertainty k = 0.439146
         8        26         7        15     4      180.000000        1.775014         2    ;  uncertainty k = 0.439146
        11        12        17        30     4      180.000000        4.234205         2    ;  uncertainty k = 0.081881
        11        17        30        12     4      180.000000        4.234205         2    ;  uncertainty k = 0.081881
        11        30        12        17     4      180.000000        4.234205         2    ;  uncertainty k = 0.081881
        12        11        19        31     4      180.000000        3.983249         2    ;  uncertainty k = 0.116003
        12        19        31        11     4      180.000000        3.983249         2    ;  uncertainty k = 0.116003
        12        31        11        19     4      180.000000        3.983249         2    ;  uncertainty k = 0.116003
        13        18        19        32     4      180.000000        3.983249         2    ;  uncertainty k = 0.116003
        13        19        32        18     4      180.000000        3.983249         2    ;  uncertainty k = 0.116003
        13        32        18        19     4      180.000000        3.983249         2    ;  uncertainty k = 0.116003
        15         8        20        22     4      180.000000       34.921827         2    ;  uncertainty k = 0.079106
        15        20        22         8     4      180.000000       34.921827         2    ;  uncertainty k = 0.079106
        15        22         8        20     4      180.000000       34.921827         2    ;  uncertainty k = 0.079106
        16        20        21        34     4      180.000000       24.227487         2    ;  uncertainty k = 0.059569
        16        21        34        20     4      180.000000       24.227487         2    ;  uncertainty k = 0.059569
        16        34        20        21     4      180.000000       24.227487         2    ;  uncertainty k = 0.059569
        17        11        18        35     4      180.000000        4.404546         2    ;  uncertainty k = 0.145826
        17        18        35        11     4      180.000000        4.404546         2    ;  uncertainty k = 0.145826
        17        35        11        18     4      180.000000        4.404546         2    ;  uncertainty k = 0.145826
        18        13        17        36     4      180.000000        4.234205         2    ;  uncertainty k = 0.081881
        18        17        36        13     4      180.000000        4.234205         2    ;  uncertainty k = 0.081881
        18        36        13        17     4      180.000000        4.234205         2    ;  uncertainty k = 0.081881
        19        10        12        13     4      180.000000       12.157434         2    ;  uncertainty k = 0.087858
        19        12        13        10     4      180.000000       12.157434         2    ;  uncertainty k = 0.087858
        19        13        10        12     4      180.000000       12.157434         2    ;  uncertainty k = 0.087858
        22         9        15        37     4      180.000000        0.223430         2    ;  uncertainty k = 0.499605
        22        15        37         9     4      180.000000        0.223430         2    ;  uncertainty k = 0.499605
        22        37         9        15     4      180.000000        0.223430         2    ;  uncertainty k = 0.499605

[ pairs ]
;       ai        aj funct
         1         6     1
         1        15     1
         1        16     1
         1        25     1
         1        26     1
         1        38     1
         2         5     1
         2         8     1
         2        21     1
         2        24     1
         2        39     1
         2        44     1
         2        45     1
         2        46     1
         3         4     1
         3         8     1
         3        21     1
         3        23     1
         3        39     1
         4         7     1
         4        25     1
         4        40     1
         5         7     1
         5        38     1
         5        40     1
         6        23     1
         6        24     1
         6        41     1
         6        42     1
         6        43     1
         6        44     1
         6        45     1
         6        46     1
         7        20     1
         7        22     1
         7        23     1
         7        24     1
         7        34     1
         8         9     1
         8        16     1
         8        37     1
         9        12     1
         9        13     1
         9        20     1
         9        33     1
        10        11     1
        10        15     1
        10        18     1
        10        31     1
        10        32     1
        10        37     1
        11        13     1
        11        36     1
        12        14     1
        12        18     1
        12        29     1
        12        32     1
        12        35     1
        13        14     1
        13        29     1
        13        31     1
        13        35     1
        14        22     1
        14        27     1
        14        28     1
        15        21     1
        15        27     1
        15        28     1
        15        34     1
        16        22     1
        17        19     1
        17        31     1
        17        32     1
        18        30     1
        19        22     1
        19        27     1
        19        28     1
        19        30     1
        19        33     1
        19        36     1
        20        26     1
        20        37     1
        21        26     1
        22        26     1
        22        29     1
        23        38     1
        24        25     1
        25        39     1
        27        29     1
        27        37     1
        28        29     1
        28        37     1
        29        33     1
        30        31     1
        30        35     1
        32        36     1
        35        36     1
        38        39     1
        39        47     1
        39        48     1
        39        49     1
        41        47     1
        41        48     1
        41        49     1
        42        47     1
        42        48     1
        42        49     1
