; ITP file created by ByteFF-joint-25, 2025-07-14 11:36:44.670810

[ atomtypes ]
;name           bonded.type        at.num        mass        charge   ptype           sigma         epsilon
 c0bf                                   6      0.0000       0.00000       A     3.31529e-01     4.13254e-01    ;  uncertainty sigma = 0.000008, epsilon = 0.000790
 c1bf                                   6      0.0000       0.00000       A     3.31522e-01     4.13513e-01    ;  uncertainty sigma = 0.000009, epsilon = 0.000692
 c2bf                                   6      0.0000       0.00000       A     3.31523e-01     4.13459e-01    ;  uncertainty sigma = 0.000009, epsilon = 0.000576
 c3bf                                   6      0.0000       0.00000       A     3.31527e-01     4.13696e-01    ;  uncertainty sigma = 0.000003, epsilon = 0.000614
 c4bf                                   6      0.0000       0.00000       A     3.31520e-01     4.13198e-01    ;  uncertainty sigma = 0.000002, epsilon = 0.000566
 c5bf                                   6      0.0000       0.00000       A     3.31516e-01     4.13318e-01    ;  uncertainty sigma = 0.000009, epsilon = 0.000835
 c6bf                                   6      0.0000       0.00000       A     3.31521e-01     4.13338e-01    ;  uncertainty sigma = 0.000016, epsilon = 0.000691
 c7bf                                   6      0.0000       0.00000       A     3.31527e-01     4.13260e-01    ;  uncertainty sigma = 0.000014, epsilon = 0.001138
 c8bf                                   6      0.0000       0.00000       A     3.39762e-01     4.50673e-01    ;  uncertainty sigma = 0.000011, epsilon = 0.001255
 c9bf                                   6      0.0000       0.00000       A     3.39750e-01     4.50544e-01    ;  uncertainty sigma = 0.000007, epsilon = 0.000791
 c10bf                                  6      0.0000       0.00000       A     3.31517e-01     4.13350e-01    ;  uncertainty sigma = 0.000003, epsilon = 0.000541
 c11bf                                  6      0.0000       0.00000       A     3.31519e-01     4.13304e-01    ;  uncertainty sigma = 0.000003, epsilon = 0.000583
 c12bf                                  6      0.0000       0.00000       A     3.31519e-01     4.13304e-01    ;  uncertainty sigma = 0.000003, epsilon = 0.000583
 o13bf                                  8      0.0000       0.00000       A     3.24257e-01     3.88598e-01    ;  uncertainty sigma = 0.000013, epsilon = 0.001596
 c14bf                                  6      0.0000       0.00000       A     3.31516e-01     4.13349e-01    ;  uncertainty sigma = 0.000011, epsilon = 0.000874
 c15bf                                  6      0.0000       0.00000       A     3.31502e-01     4.13579e-01    ;  uncertainty sigma = 0.000011, epsilon = 0.000388
 c16bf                                  6      0.0000       0.00000       A     3.31519e-01     4.13331e-01    ;  uncertainty sigma = 0.000003, epsilon = 0.000569
 c17bf                                  6      0.0000       0.00000       A     3.31517e-01     4.13350e-01    ;  uncertainty sigma = 0.000003, epsilon = 0.000541
 c18bf                                  6      0.0000       0.00000       A     3.31542e-01     4.12960e-01    ;  uncertainty sigma = 0.000004, epsilon = 0.000669
 n19bf                                  7      0.0000       0.00000       A     3.38417e-01     3.93373e-01    ;  uncertainty sigma = 0.000016, epsilon = 0.001202
 n20bf                                  7      0.0000       0.00000       A     3.38417e-01     3.93426e-01    ;  uncertainty sigma = 0.000018, epsilon = 0.000868
 n21bf                                  7      0.0000       0.00000       A     3.27787e-01     6.48850e-01    ;  uncertainty sigma = 0.000034, epsilon = 0.002592
 h22bf                                  1      0.0000       0.00000       A     2.62567e-01     6.71888e-02    ;  uncertainty sigma = 0.000016, epsilon = 0.000630
 h23bf                                  1      0.0000       0.00000       A     2.62565e-01     6.70566e-02    ;  uncertainty sigma = 0.000012, epsilon = 0.000585
 h24bf                                  1      0.0000       0.00000       A     2.62553e-01     6.70409e-02    ;  uncertainty sigma = 0.000005, epsilon = 0.000407
 h25bf                                  1      0.0000       0.00000       A     2.62541e-01     6.69041e-02    ;  uncertainty sigma = 0.000018, epsilon = 0.000969
 h26bf                                  1      0.0000       0.00000       A     2.42232e-01     8.67796e-02    ;  uncertainty sigma = 0.000037, epsilon = 0.000692
 h27bf                                  1      0.0000       0.00000       A     2.42232e-01     8.67796e-02    ;  uncertainty sigma = 0.000037, epsilon = 0.000692
 h28bf                                  1      0.0000       0.00000       A     2.42260e-01     8.69504e-02    ;  uncertainty sigma = 0.000011, epsilon = 0.000481
 h29bf                                  1      0.0000       0.00000       A     2.62558e-01     6.70324e-02    ;  uncertainty sigma = 0.000010, epsilon = 0.000442
 h30bf                                  1      0.0000       0.00000       A     2.62562e-01     6.70739e-02    ;  uncertainty sigma = 0.000004, epsilon = 0.000538
 h31bf                                  1      0.0000       0.00000       A     2.62562e-01     6.70739e-02    ;  uncertainty sigma = 0.000004, epsilon = 0.000538
 h32bf                                  1      0.0000       0.00000       A     5.38011e-02     1.91837e-02    ;  uncertainty sigma = 0.000073, epsilon = 0.000888
 h33bf                                  1      0.0000       0.00000       A     2.44735e-01     6.71447e-02    ;  uncertainty sigma = 0.000026, epsilon = 0.000712
 h34bf                                  1      0.0000       0.00000       A     2.62552e-01     6.70645e-02    ;  uncertainty sigma = 0.000011, epsilon = 0.000453
 h35bf                                  1      0.0000       0.00000       A     2.62558e-01     6.70324e-02    ;  uncertainty sigma = 0.000010, epsilon = 0.000442
 h36bf                                  1      0.0000       0.00000       A     1.10591e-01     4.16159e-02    ;  uncertainty sigma = 0.000130, epsilon = 0.000719
 cl37bf                                17      0.0000       0.00000       A     3.46618e-01     1.10447e+00    ;  uncertainty sigma = 0.000023, epsilon = 0.000324
 o38bf                                  8      0.0000       0.00000       A     3.15619e-01     3.03658e-01    ;  uncertainty sigma = 0.000022, epsilon = 0.000849
 c39bf                                  6      0.0000       0.00000       A     3.39774e-01     4.50539e-01    ;  uncertainty sigma = 0.000008, epsilon = 0.000586
 h40bf                                  1      0.0000       0.00000       A     2.42221e-01     8.67884e-02    ;  uncertainty sigma = 0.000018, epsilon = 0.000403
 h41bf                                  1      0.0000       0.00000       A     2.42221e-01     8.67884e-02    ;  uncertainty sigma = 0.000018, epsilon = 0.000403
 c42bf                                  6      0.0000       0.00000       A     3.39778e-01     4.51009e-01    ;  uncertainty sigma = 0.000006, epsilon = 0.000505
 h43bf                                  1      0.0000       0.00000       A     2.60025e-01     8.66247e-02    ;  uncertainty sigma = 0.000011, epsilon = 0.000873
 h44bf                                  1      0.0000       0.00000       A     2.60025e-01     8.66248e-02    ;  uncertainty sigma = 0.000011, epsilon = 0.000874
 h45bf                                  1      0.0000       0.00000       A     2.60025e-01     8.66248e-02    ;  uncertainty sigma = 0.000011, epsilon = 0.000874

[ moleculetype ]
;name             nrexcl
 MOL                   3

[ atoms ]
;       nr            type      resi   res      atom      cgnr      charge          mass ; qtot
         1            c0bf         1   UNL        c0         1    -0.17439       12.0110 ; qtot   -0.174
         2            c1bf         1   UNL        c1         2    -0.06210       12.0110 ; qtot   -0.236
         3            c2bf         1   UNL        c2         3    -0.06358       12.0110 ; qtot   -0.300
         4            c3bf         1   UNL        c3         4    -0.01061       12.0110 ; qtot   -0.311
         5            c4bf         1   UNL        c4         5    -0.19691       12.0110 ; qtot   -0.508
         6            c5bf         1   UNL        c5         6     0.15442       12.0110 ; qtot   -0.353
         7            c6bf         1   UNL        c6         7     0.53201       12.0110 ; qtot    0.179
         8            c7bf         1   UNL        c7         8    -0.41864       12.0110 ; qtot   -0.240
         9            c8bf         1   UNL        c8         9     0.20508       12.0110 ; qtot   -0.035
        10            c9bf         1   UNL        c9        10     0.17238       12.0110 ; qtot    0.138
        11           c10bf         1   UNL       c10        11    -0.13212       12.0110 ; qtot    0.006
        12           c11bf         1   UNL       c11        12    -0.11431       12.0110 ; qtot   -0.109
        13           c12bf         1   UNL       c12        13    -0.11431       12.0110 ; qtot   -0.223
        14           o13bf         1   UNL       o13        14    -0.60202       15.9990 ; qtot   -0.825
        15           c14bf         1   UNL       c14        15     0.69818       12.0110 ; qtot   -0.127
        16           c15bf         1   UNL       c15        16     0.68025       12.0110 ; qtot    0.553
        17           c16bf         1   UNL       c16        17    -0.12191       12.0110 ; qtot    0.431
        18           c17bf         1   UNL       c17        18    -0.13212       12.0110 ; qtot    0.299
        19           c18bf         1   UNL       c18        19    -0.11806       12.0110 ; qtot    0.181
        20           n19bf         1   UNL       n19        20    -0.77724       14.0070 ; qtot   -0.596
        21           n20bf         1   UNL       n20        21    -0.73236       14.0070 ; qtot   -1.328
        22           n21bf         1   UNL       n21        22    -0.87199       14.0070 ; qtot   -2.200
        23           h22bf         1   UNL       h22        23     0.16215        1.0080 ; qtot   -2.038
        24           h23bf         1   UNL       h23        24     0.15046        1.0080 ; qtot   -1.888
        25           h24bf         1   UNL       h24        25     0.14660        1.0080 ; qtot   -1.741
        26           h25bf         1   UNL       h25        26     0.15255        1.0080 ; qtot   -1.589
        27           h26bf         1   UNL       h26        27     0.06384        1.0080 ; qtot   -1.525
        28           h27bf         1   UNL       h27        28     0.06384        1.0080 ; qtot   -1.461
        29           h28bf         1   UNL       h28        29     0.05801        1.0080 ; qtot   -1.403
        30           h29bf         1   UNL       h29        30     0.13206        1.0080 ; qtot   -1.271
        31           h30bf         1   UNL       h30        31     0.13699        1.0080 ; qtot   -1.134
        32           h31bf         1   UNL       h31        32     0.13699        1.0080 ; qtot   -0.997
        33           h32bf         1   UNL       h32        33     0.41310        1.0080 ; qtot   -0.584
        34           h33bf         1   UNL       h33        34     0.05077        1.0080 ; qtot   -0.533
        35           h34bf         1   UNL       h34        35     0.13198        1.0080 ; qtot   -0.401
        36           h35bf         1   UNL       h35        36     0.13206        1.0080 ; qtot   -0.269
        37           h36bf         1   UNL       h36        37     0.44064        1.0080 ; qtot    0.172
        38          cl37bf         1   UNL      cl37        38    -0.09908       35.4530 ; qtot    0.073
        39           o38bf         1   UNL       o38        39    -0.32128       15.9990 ; qtot   -0.249
        40           c39bf         1   UNL       c39        40     0.13423       12.0110 ; qtot   -0.114
        41           h40bf         1   UNL       h40        41     0.04391        1.0080 ; qtot   -0.071
        42           h41bf         1   UNL       h41        42     0.04391        1.0080 ; qtot   -0.027
        43           c42bf         1   UNL       c42        43    -0.10989       12.0110 ; qtot   -0.137
        44           h43bf         1   UNL       h43        44     0.04551        1.0080 ; qtot   -0.091
        45           h44bf         1   UNL       h44        45     0.04551        1.0080 ; qtot   -0.045
        46           h45bf         1   UNL       h45        46     0.04549        1.0080 ; qtot   -0.000

[ bonds ]
;       ai        aj funct               r               k
         1         2     1        0.139662   349419.415527    ;  uncertainty r = 0.000015, k = 3.397395
         1         3     1        0.139706   346147.294629    ;  uncertainty r = 0.000054, k = 2.741602
         1         7     1        0.147353   261901.647656    ;  uncertainty r = 0.000050, k = 6.045284
         2         4     1        0.139021   351869.241504    ;  uncertainty r = 0.000020, k = 3.058797
         2        23     1        0.108610   333904.114893    ;  uncertainty r = 0.000018, k = 1.053475
         3         5     1        0.139082   366810.212549    ;  uncertainty r = 0.000041, k = 2.188457
         3        24     1        0.108635   332922.545020    ;  uncertainty r = 0.000027, k = 0.592683
         4         6     1        0.140042   343505.123145    ;  uncertainty r = 0.000059, k = 2.855276
         4        38     1        0.174999   191859.140796    ;  uncertainty r = 0.000087, k = 5.673883
         5         6     1        0.139818   356333.587891    ;  uncertainty r = 0.000066, k = 3.473581
         5        25     1        0.108760   337381.324316    ;  uncertainty r = 0.000030, k = 0.958897
         6        39     1        0.136040   316413.212402    ;  uncertainty r = 0.000052, k = 8.154604
         7         8     1        0.140261   426638.680078    ;  uncertainty r = 0.000058, k = 10.008238
         7        21     1        0.135550   395656.497168    ;  uncertainty r = 0.000046, k = 8.778963
         8        15     1        0.142200   437085.145410    ;  uncertainty r = 0.000074, k = 7.312812
         8        26     1        0.108982   347697.397168    ;  uncertainty r = 0.000060, k = 3.509310
         9        10     1        0.153528   198932.485962    ;  uncertainty r = 0.000113, k = 4.485541
         9        22     1        0.144360   258703.533301    ;  uncertainty r = 0.000127, k = 5.188267
         9        27     1        0.109548   306948.010498    ;  uncertainty r = 0.000056, k = 1.476386
         9        28     1        0.109548   306948.010498    ;  uncertainty r = 0.000056, k = 1.476386
        10        14     1        0.143014   262792.254346    ;  uncertainty r = 0.000086, k = 14.622904
        10        19     1        0.151556   222180.461621    ;  uncertainty r = 0.000089, k = 7.017739
        10        29     1        0.109828   303256.263818    ;  uncertainty r = 0.000046, k = 1.650587
        11        12     1        0.139619   365954.387402    ;  uncertainty r = 0.000008, k = 1.292992
        11        17     1        0.139616   371124.732715    ;  uncertainty r = 0.000020, k = 1.036768
        11        30     1        0.108853   334096.639160    ;  uncertainty r = 0.000011, k = 0.985251
        12        19     1        0.139806   351916.766064    ;  uncertainty r = 0.000010, k = 1.187834
        12        31     1        0.108853   333813.534766    ;  uncertainty r = 0.000015, k = 0.555194
        13        18     1        0.139619   365954.387402    ;  uncertainty r = 0.000008, k = 1.292992
        13        19     1        0.139806   351916.766064    ;  uncertainty r = 0.000010, k = 1.187834
        13        32     1        0.108853   333813.534766    ;  uncertainty r = 0.000015, k = 0.555194
        14        33     1        0.097118   460583.525195    ;  uncertainty r = 0.000045, k = 3.102113
        15        20     1        0.135563   598530.699805    ;  uncertainty r = 0.000139, k = 9.101913
        15        22     1        0.139244   503022.932227    ;  uncertainty r = 0.000156, k = 11.982701
        16        20     1        0.134248   427021.200439    ;  uncertainty r = 0.000126, k = 12.560964
        16        21     1        0.133902   409960.291797    ;  uncertainty r = 0.000038, k = 12.892596
        16        34     1        0.108823   332455.624512    ;  uncertainty r = 0.000016, k = 3.398046
        17        18     1        0.139616   371124.758252    ;  uncertainty r = 0.000020, k = 1.036768
        17        35     1        0.108851   334582.457129    ;  uncertainty r = 0.000012, k = 0.680670
        18        36     1        0.108853   334096.639160    ;  uncertainty r = 0.000011, k = 0.985251
        22        37     1        0.101725   420522.644531    ;  uncertainty r = 0.000069, k = 3.098785
        39        40     1        0.143312   234481.891504    ;  uncertainty r = 0.000059, k = 2.433863
        40        41     1        0.109690   308287.942627    ;  uncertainty r = 0.000025, k = 1.981387
        40        42     1        0.109690   308287.942627    ;  uncertainty r = 0.000025, k = 1.981387
        40        43     1        0.152652   226605.353174    ;  uncertainty r = 0.000064, k = 3.335795
        43        44     1        0.109577   311430.335010    ;  uncertainty r = 0.000012, k = 1.777143
        43        45     1        0.109577   311430.335010    ;  uncertainty r = 0.000012, k = 1.777143
        43        46     1        0.109577   311430.335010    ;  uncertainty r = 0.000012, k = 1.777143

[ angles ]
;       ai        aj        ak funct           theta             cth
         1         2         4     1      121.862106      493.794325    ;  uncertainty theta = 0.001500, k = 0.111754
         1         2        23     1      118.724464      262.934643    ;  uncertainty theta = 0.003443, k = 0.087548
         1         3         5     1      121.532043      523.109490    ;  uncertainty theta = 0.001938, k = 0.081249
         1         3        24     1      118.116722      266.584726    ;  uncertainty theta = 0.003595, k = 0.131347
         1         7         8     1      121.234779      398.652249    ;  uncertainty theta = 0.005841, k = 0.200568
         1         7        21     1      118.180283      476.213909    ;  uncertainty theta = 0.004829, k = 0.136413
         2         1         3     1      120.916031      430.117543    ;  uncertainty theta = 0.002088, k = 0.122950
         2         1         7     1      117.619766      392.705774    ;  uncertainty theta = 0.003240, k = 0.098428
         2         4         6     1      122.775345      378.623494    ;  uncertainty theta = 0.003386, k = 0.152331
         2         4        38     1      120.488358      445.618122    ;  uncertainty theta = 0.001991, k = 0.038477
         3         1         7     1      118.445595      399.903536    ;  uncertainty theta = 0.002649, k = 0.127238
         3         5         6     1      121.699196      516.463011    ;  uncertainty theta = 0.001952, k = 0.066124
         3         5        25     1      120.569435      280.837689    ;  uncertainty theta = 0.001105, k = 0.059467
         4         2        23     1      119.717812      286.094758    ;  uncertainty theta = 0.002038, k = 0.062450
         4         6         5     1      119.969955      351.928724    ;  uncertainty theta = 0.002016, k = 0.070908
         4         6        39     1      118.989235      413.326606    ;  uncertainty theta = 0.003973, k = 0.041395
         5         3        24     1      120.097122      285.640389    ;  uncertainty theta = 0.002634, k = 0.037490
         5         6        39     1      121.061951      436.008795    ;  uncertainty theta = 0.002615, k = 0.088436
         6         4        38     1      118.381516      417.723235    ;  uncertainty theta = 0.001427, k = 0.149591
         6         5        25     1      117.948349      269.733483    ;  uncertainty theta = 0.000439, k = 0.081662
         6        39        40     1      110.759537      493.392850    ;  uncertainty theta = 0.001029, k = 0.036624
         7         8        15     1      117.325096      473.941617    ;  uncertainty theta = 0.006479, k = 0.274664
         7         8        26     1      122.085487      274.950076    ;  uncertainty theta = 0.001862, k = 0.169687
         7        21        16     1      114.118759      411.076308    ;  uncertainty theta = 0.005056, k = 0.193805
         8         7        21     1      121.895241      595.945540    ;  uncertainty theta = 0.004003, k = 0.118559
         8        15        20     1      120.465775      559.577504    ;  uncertainty theta = 0.004274, k = 0.131688
         8        15        22     1      124.405197      635.166262    ;  uncertainty theta = 0.005407, k = 0.116906
         9        10        14     1      108.648598      745.773101    ;  uncertainty theta = 0.001850, k = 0.090465
         9        10        19     1      111.675133      529.233800    ;  uncertainty theta = 0.002433, k = 0.102801
         9        10        29     1      107.655739      397.413157    ;  uncertainty theta = 0.001835, k = 0.063660
         9        22        15     1      115.022720      415.197008    ;  uncertainty theta = 0.003932, k = 0.139541
         9        22        37     1      111.930687      338.512452    ;  uncertainty theta = 0.006639, k = 0.093922
        10         9        22     1      109.072731      588.135334    ;  uncertainty theta = 0.003588, k = 0.076167
        10         9        27     1      108.264954      386.766225    ;  uncertainty theta = 0.001128, k = 0.087129
        10         9        28     1      108.264954      386.766225    ;  uncertainty theta = 0.001128, k = 0.087129
        10        14        33     1      107.778908      462.824962    ;  uncertainty theta = 0.002314, k = 0.060682
        10        19        12     1      119.990318      398.450314    ;  uncertainty theta = 0.001704, k = 0.122614
        10        19        13     1      119.990318      398.450314    ;  uncertainty theta = 0.001704, k = 0.122614
        11        12        19     1      120.930702      517.466172    ;  uncertainty theta = 0.001222, k = 0.047814
        11        12        31     1      120.258339      291.729553    ;  uncertainty theta = 0.002156, k = 0.015437
        11        17        18     1      118.312904      525.474865    ;  uncertainty theta = 0.001259, k = 0.033725
        11        17        35     1      120.606750      289.256635    ;  uncertainty theta = 0.001707, k = 0.007155
        12        11        17     1      119.668961      514.607037    ;  uncertainty theta = 0.000852, k = 0.027695
        12        11        30     1      120.182228      283.193264    ;  uncertainty theta = 0.001483, k = 0.023123
        12        19        13     1      120.620529      467.609435    ;  uncertainty theta = 0.001046, k = 0.044080
        13        18        17     1      119.668961      514.607037    ;  uncertainty theta = 0.000852, k = 0.027695
        13        18        36     1      120.182228      283.193264    ;  uncertainty theta = 0.001483, k = 0.023123
        14        10        19     1      111.132469      757.316130    ;  uncertainty theta = 0.001813, k = 0.056225
        14        10        29     1      107.460892      475.171803    ;  uncertainty theta = 0.003128, k = 0.059555
        15         8        26     1      122.820290      279.161624    ;  uncertainty theta = 0.002177, k = 0.088284
        15        20        16     1      114.208336      402.225401    ;  uncertainty theta = 0.007184, k = 0.116286
        15        22        37     1      114.952065      412.285969    ;  uncertainty theta = 0.001414, k = 0.081088
        17        11        30     1      120.593102      287.981121    ;  uncertainty theta = 0.001462, k = 0.008017
        17        18        36     1      120.593102      287.981121    ;  uncertainty theta = 0.001462, k = 0.008017
        18        13        19     1      120.930702      517.466172    ;  uncertainty theta = 0.001222, k = 0.047814
        18        13        32     1      120.258339      291.729553    ;  uncertainty theta = 0.002156, k = 0.015437
        18        17        35     1      120.606750      289.256635    ;  uncertainty theta = 0.001707, k = 0.007155
        19        10        29     1      107.338806      403.998379    ;  uncertainty theta = 0.003013, k = 0.110102
        19        12        31     1      118.778320      265.740150    ;  uncertainty theta = 0.001504, k = 0.035529
        19        13        32     1      118.778320      265.740150    ;  uncertainty theta = 0.001504, k = 0.035529
        20        15        22     1      122.203979      876.041727    ;  uncertainty theta = 0.006036, k = 0.092665
        20        16        21     1      127.365524      928.346068    ;  uncertainty theta = 0.002641, k = 0.109018
        20        16        34     1      115.958923      303.662406    ;  uncertainty theta = 0.004108, k = 0.062101
        21        16        34     1      116.290024      310.582675    ;  uncertainty theta = 0.004161, k = 0.066237
        22         9        27     1      106.848366      448.950650    ;  uncertainty theta = 0.001286, k = 0.079205
        22         9        28     1      106.848366      448.950650    ;  uncertainty theta = 0.001286, k = 0.079205
        27         9        28     1      106.681496      323.153860    ;  uncertainty theta = 0.001150, k = 0.024224
        39        40        41     1      106.780495      428.646414    ;  uncertainty theta = 0.001377, k = 0.038694
        39        40        42     1      106.780495      428.646414    ;  uncertainty theta = 0.001377, k = 0.038694
        39        40        43     1      109.447327      623.559199    ;  uncertainty theta = 0.000955, k = 0.050224
        40        43        44     1      107.913696      408.832299    ;  uncertainty theta = 0.001578, k = 0.024435
        40        43        45     1      107.913696      408.832299    ;  uncertainty theta = 0.001578, k = 0.024435
        40        43        46     1      107.913696      408.832299    ;  uncertainty theta = 0.001578, k = 0.024435
        41        40        42     1      107.321579      328.104516    ;  uncertainty theta = 0.001516, k = 0.022573
        41        40        43     1      110.442093      422.793149    ;  uncertainty theta = 0.000748, k = 0.027919
        42        40        43     1      110.442093      422.793149    ;  uncertainty theta = 0.000748, k = 0.027919
        44        43        45     1      105.427452      313.948307    ;  uncertainty theta = 0.002179, k = 0.009445
        44        43        46     1      105.427452      313.948307    ;  uncertainty theta = 0.002179, k = 0.009445
        45        43        46     1      105.427452      313.948307    ;  uncertainty theta = 0.002179, k = 0.009445

[ dihedrals ] ; propers for gromacs 4.5 or higher, use funct 9
;       ai        aj        ak        al funct           phase               k        pn
         1         2         4         6     9        0.000000        0.038277         1    ;  uncertainty k = 0.188622
         1         2         4         6     9      180.000000        8.908167         2    ;  uncertainty k = 0.440578
         1         2         4         6     9        0.000000        0.473429         3    ;  uncertainty k = 0.368596
         1         2         4         6     9      180.000000        1.356182         4    ;  uncertainty k = 0.362004
         1         2         4        38     9        0.000000        0.160061         1    ;  uncertainty k = 0.234350
         1         2         4        38     9      180.000000        9.481477         2    ;  uncertainty k = 0.391843
         1         2         4        38     9        0.000000        1.461630         3    ;  uncertainty k = 0.281969
         1         2         4        38     9      180.000000        1.777938         4    ;  uncertainty k = 0.082305
         1         3         5         6     9        0.000000       -0.108396         1    ;  uncertainty k = 0.262274
         1         3         5         6     9      180.000000       12.798974         2    ;  uncertainty k = 0.327511
         1         3         5         6     9        0.000000       -0.575697         3    ;  uncertainty k = 0.289984
         1         3         5         6     9      180.000000        0.976765         4    ;  uncertainty k = 0.306170
         1         3         5        25     9        0.000000        0.092637         1    ;  uncertainty k = 0.138807
         1         3         5        25     9      180.000000        7.991514         2    ;  uncertainty k = 0.388548
         1         3         5        25     9        0.000000        1.411041         3    ;  uncertainty k = 0.241113
         1         3         5        25     9      180.000000        1.879108         4    ;  uncertainty k = 0.127523
         1         7         8        15     9        0.000000       -0.231477         1    ;  uncertainty k = 0.571668
         1         7         8        15     9      180.000000        7.796550         2    ;  uncertainty k = 0.925193
         1         7         8        15     9        0.000000        0.688880         3    ;  uncertainty k = 0.301152
         1         7         8        15     9      180.000000        1.139289         4    ;  uncertainty k = 0.358782
         1         7         8        26     9        0.000000       -0.166101         1    ;  uncertainty k = 1.026209
         1         7         8        26     9      180.000000        6.891829         2    ;  uncertainty k = 0.425679
         1         7         8        26     9        0.000000        0.723116         3    ;  uncertainty k = 0.292171
         1         7         8        26     9      180.000000        0.959051         4    ;  uncertainty k = 0.202197
         1         7        21        16     9        0.000000        0.068834         1    ;  uncertainty k = 0.552686
         1         7        21        16     9      180.000000       14.644277         2    ;  uncertainty k = 0.378560
         1         7        21        16     9        0.000000        2.102955         3    ;  uncertainty k = 0.325468
         1         7        21        16     9      180.000000        1.567938         4    ;  uncertainty k = 0.437059
         2         1         3         5     9        0.000000       -0.004873         1    ;  uncertainty k = 0.087338
         2         1         3         5     9      180.000000       11.317638         2    ;  uncertainty k = 0.262608
         2         1         3         5     9        0.000000       -0.689843         3    ;  uncertainty k = 0.307981
         2         1         3         5     9      180.000000        0.908991         4    ;  uncertainty k = 0.244460
         2         1         3        24     9        0.000000        0.082822         1    ;  uncertainty k = 0.136317
         2         1         3        24     9      180.000000        6.901116         2    ;  uncertainty k = 0.442427
         2         1         3        24     9        0.000000        1.303266         3    ;  uncertainty k = 0.229570
         2         1         3        24     9      180.000000        1.600575         4    ;  uncertainty k = 0.225795
         2         1         7         8     9        0.000000       -0.351349         1    ;  uncertainty k = 0.609304
         2         1         7         8     9      180.000000        4.004859         2    ;  uncertainty k = 0.316950
         2         1         7         8     9        0.000000        0.473745         3    ;  uncertainty k = 0.168495
         2         1         7         8     9      180.000000       -0.090274         4    ;  uncertainty k = 0.044145
         2         1         7        21     9        0.000000        1.263039         1    ;  uncertainty k = 0.631490
         2         1         7        21     9      180.000000        5.299753         2    ;  uncertainty k = 0.174014
         2         1         7        21     9        0.000000        0.621343         3    ;  uncertainty k = 0.170591
         2         1         7        21     9      180.000000        0.116223         4    ;  uncertainty k = 0.053200
         2         4         6         5     9        0.000000       -0.145060         1    ;  uncertainty k = 0.474451
         2         4         6         5     9      180.000000        5.854485         2    ;  uncertainty k = 0.940697
         2         4         6         5     9        0.000000        0.386116         3    ;  uncertainty k = 0.183359
         2         4         6         5     9      180.000000        1.272654         4    ;  uncertainty k = 0.318076
         2         4         6        39     9        0.000000        0.218661         1    ;  uncertainty k = 0.256236
         2         4         6        39     9      180.000000        8.378987         2    ;  uncertainty k = 0.293264
         2         4         6        39     9        0.000000        1.254666         3    ;  uncertainty k = 0.201251
         2         4         6        39     9      180.000000        1.667944         4    ;  uncertainty k = 0.105074
         3         1         2         4     9        0.000000        0.208754         1    ;  uncertainty k = 0.136674
         3         1         2         4     9      180.000000       11.088350         2    ;  uncertainty k = 0.265741
         3         1         2         4     9        0.000000       -0.547556         3    ;  uncertainty k = 0.359899
         3         1         2         4     9      180.000000        0.993349         4    ;  uncertainty k = 0.314618
         3         1         2        23     9        0.000000        0.137759         1    ;  uncertainty k = 0.145635
         3         1         2        23     9      180.000000        6.840108         2    ;  uncertainty k = 0.436793
         3         1         2        23     9        0.000000        1.305937         3    ;  uncertainty k = 0.205307
         3         1         2        23     9      180.000000        1.626326         4    ;  uncertainty k = 0.246318
         3         1         7         8     9        0.000000       -0.422623         1    ;  uncertainty k = 0.607057
         3         1         7         8     9      180.000000        3.993565         2    ;  uncertainty k = 0.252423
         3         1         7         8     9        0.000000        0.493289         3    ;  uncertainty k = 0.154987
         3         1         7         8     9      180.000000       -0.117177         4    ;  uncertainty k = 0.050668
         3         1         7        21     9        0.000000        1.365456         1    ;  uncertainty k = 0.597925
         3         1         7        21     9      180.000000        5.193485         2    ;  uncertainty k = 0.108967
         3         1         7        21     9        0.000000        0.598906         3    ;  uncertainty k = 0.163369
         3         1         7        21     9      180.000000        0.110966         4    ;  uncertainty k = 0.041089
         3         5         6         4     9        0.000000        0.061246         1    ;  uncertainty k = 0.151879
         3         5         6         4     9      180.000000        8.196327         2    ;  uncertainty k = 0.463983
         3         5         6         4     9        0.000000        0.280998         3    ;  uncertainty k = 0.333460
         3         5         6         4     9      180.000000        1.424463         4    ;  uncertainty k = 0.220674
         3         5         6        39     9        0.000000        0.020764         1    ;  uncertainty k = 0.317075
         3         5         6        39     9      180.000000       10.634551         2    ;  uncertainty k = 0.341012
         3         5         6        39     9        0.000000        1.316991         3    ;  uncertainty k = 0.208367
         3         5         6        39     9      180.000000        1.701220         4    ;  uncertainty k = 0.181580
         4         2         1         7     9        0.000000        0.334362         1    ;  uncertainty k = 0.403123
         4         2         1         7     9      180.000000        8.705858         2    ;  uncertainty k = 0.318427
         4         2         1         7     9        0.000000        1.307524         3    ;  uncertainty k = 0.298734
         4         2         1         7     9      180.000000        1.764996         4    ;  uncertainty k = 0.120740
         4         6         5        25     9        0.000000        0.153246         1    ;  uncertainty k = 0.296949
         4         6         5        25     9      180.000000        5.952409         2    ;  uncertainty k = 0.559427
         4         6         5        25     9        0.000000        1.470984         3    ;  uncertainty k = 0.282535
         4         6         5        25     9      180.000000        1.685273         4    ;  uncertainty k = 0.161665
         4         6        39        40     9        0.000000        2.738887         1    ;  uncertainty k = 0.411556
         4         6        39        40     9      180.000000        6.056859         2    ;  uncertainty k = 0.118010
         4         6        39        40     9        0.000000        1.003096         3    ;  uncertainty k = 0.168749
         4         6        39        40     9      180.000000        0.085448         4    ;  uncertainty k = 0.041585
         5         3         1         7     9        0.000000        0.298944         1    ;  uncertainty k = 0.518620
         5         3         1         7     9      180.000000        8.913393         2    ;  uncertainty k = 0.564706
         5         3         1         7     9        0.000000        1.216201         3    ;  uncertainty k = 0.268322
         5         3         1         7     9      180.000000        1.790379         4    ;  uncertainty k = 0.184304
         5         6         4        38     9        0.000000        0.297669         1    ;  uncertainty k = 0.213542
         5         6         4        38     9      180.000000        6.947197         2    ;  uncertainty k = 0.814835
         5         6         4        38     9        0.000000        1.305217         3    ;  uncertainty k = 0.259977
         5         6         4        38     9      180.000000        1.547034         4    ;  uncertainty k = 0.208217
         5         6        39        40     9        0.000000        1.445539         1    ;  uncertainty k = 0.507845
         5         6        39        40     9      180.000000        6.814409         2    ;  uncertainty k = 0.158232
         5         6        39        40     9        0.000000        0.131165         3    ;  uncertainty k = 0.131680
         5         6        39        40     9      180.000000        0.065648         4    ;  uncertainty k = 0.064226
         6         4         2        23     9        0.000000       -0.012356         1    ;  uncertainty k = 0.074621
         6         4         2        23     9      180.000000        6.622087         2    ;  uncertainty k = 0.521427
         6         4         2        23     9        0.000000        1.356721         3    ;  uncertainty k = 0.392910
         6         4         2        23     9      180.000000        1.643475         4    ;  uncertainty k = 0.071366
         6         5         3        24     9        0.000000        0.039618         1    ;  uncertainty k = 0.314565
         6         5         3        24     9      180.000000        7.725329         2    ;  uncertainty k = 0.288251
         6         5         3        24     9        0.000000        1.266880         3    ;  uncertainty k = 0.264232
         6         5         3        24     9      180.000000        1.762885         4    ;  uncertainty k = 0.117411
         6        39        40        41     9        0.000000        1.241641         1    ;  uncertainty k = 0.492486
         6        39        40        41     9      180.000000       -1.704053         2    ;  uncertainty k = 0.305168
         6        39        40        41     9        0.000000        0.650008         3    ;  uncertainty k = 0.068619
         6        39        40        41     9      180.000000        0.262020         4    ;  uncertainty k = 0.067817
         6        39        40        42     9        0.000000        1.241641         1    ;  uncertainty k = 0.492486
         6        39        40        42     9      180.000000       -1.704053         2    ;  uncertainty k = 0.305168
         6        39        40        42     9        0.000000        0.650008         3    ;  uncertainty k = 0.068619
         6        39        40        42     9      180.000000        0.262020         4    ;  uncertainty k = 0.067817
         6        39        40        43     9        0.000000       -0.791357         1    ;  uncertainty k = 0.529083
         6        39        40        43     9      180.000000       -0.167323         2    ;  uncertainty k = 0.343570
         6        39        40        43     9        0.000000        0.783553         3    ;  uncertainty k = 0.133313
         6        39        40        43     9      180.000000        0.458084         4    ;  uncertainty k = 0.035344
         7         1         2        23     9        0.000000       -0.353005         1    ;  uncertainty k = 0.351608
         7         1         2        23     9      180.000000        7.259196         2    ;  uncertainty k = 0.293995
         7         1         2        23     9        0.000000        0.709327         3    ;  uncertainty k = 0.089610
         7         1         2        23     9      180.000000        1.165262         4    ;  uncertainty k = 0.096894
         7         1         3        24     9        0.000000       -0.355717         1    ;  uncertainty k = 0.394915
         7         1         3        24     9      180.000000        7.233252         2    ;  uncertainty k = 0.312891
         7         1         3        24     9        0.000000        0.708456         3    ;  uncertainty k = 0.088706
         7         1         3        24     9      180.000000        1.146416         4    ;  uncertainty k = 0.064857
         7         8        15        20     9        0.000000       -0.502896         1    ;  uncertainty k = 0.429723
         7         8        15        20     9      180.000000        7.805510         2    ;  uncertainty k = 0.788663
         7         8        15        20     9        0.000000       -0.903027         3    ;  uncertainty k = 0.556683
         7         8        15        20     9      180.000000        1.183427         4    ;  uncertainty k = 0.315223
         7         8        15        22     9        0.000000       -0.966272         1    ;  uncertainty k = 0.784158
         7         8        15        22     9      180.000000        6.411791         2    ;  uncertainty k = 0.456149
         7         8        15        22     9        0.000000        0.063954         3    ;  uncertainty k = 0.336379
         7         8        15        22     9      180.000000        0.899904         4    ;  uncertainty k = 0.181898
         7        21        16        20     9        0.000000       -0.829496         1    ;  uncertainty k = 0.625542
         7        21        16        20     9      180.000000       16.507558         2    ;  uncertainty k = 0.369845
         7        21        16        20     9        0.000000        0.118959         3    ;  uncertainty k = 0.582404
         7        21        16        20     9      180.000000        1.173576         4    ;  uncertainty k = 0.279813
         7        21        16        34     9        0.000000       -0.410975         1    ;  uncertainty k = 0.434551
         7        21        16        34     9      180.000000       12.409998         2    ;  uncertainty k = 0.410582
         7        21        16        34     9        0.000000        1.723604         3    ;  uncertainty k = 0.671836
         7        21        16        34     9      180.000000        1.277348         4    ;  uncertainty k = 0.431773
         8         7        21        16     9        0.000000       -0.268193         1    ;  uncertainty k = 0.864498
         8         7        21        16     9      180.000000       13.386702         2    ;  uncertainty k = 0.526137
         8         7        21        16     9        0.000000        0.287639         3    ;  uncertainty k = 0.976877
         8         7        21        16     9      180.000000        1.134189         4    ;  uncertainty k = 0.376217
         8        15        20        16     9        0.000000       -0.350078         1    ;  uncertainty k = 0.812325
         8        15        20        16     9      180.000000        9.930014         2    ;  uncertainty k = 0.557509
         8        15        20        16     9        0.000000        0.516622         3    ;  uncertainty k = 0.789553
         8        15        20        16     9      180.000000        1.058186         4    ;  uncertainty k = 0.142047
         8        15        22         9     9        0.000000        5.603689         1    ;  uncertainty k = 0.487731
         8        15        22         9     9      180.000000        9.173858         2    ;  uncertainty k = 0.234225
         8        15        22         9     9        0.000000        0.682452         3    ;  uncertainty k = 0.250442
         8        15        22         9     9      180.000000       -0.440404         4    ;  uncertainty k = 0.169398
         8        15        22        37     9        0.000000        4.297370         1    ;  uncertainty k = 0.414563
         8        15        22        37     9      180.000000        7.947808         2    ;  uncertainty k = 0.147068
         8        15        22        37     9        0.000000        1.249630         3    ;  uncertainty k = 0.211856
         8        15        22        37     9      180.000000       -0.412992         4    ;  uncertainty k = 0.196225
         9        10        14        33     9        0.000000       16.539194         1    ;  uncertainty k = 0.182172
         9        10        14        33     9      180.000000       -3.181446         2    ;  uncertainty k = 0.394315
         9        10        14        33     9        0.000000        1.050863         3    ;  uncertainty k = 0.081907
         9        10        14        33     9      180.000000        0.368805         4    ;  uncertainty k = 0.156069
         9        10        19        12     9        0.000000       -0.273818         1    ;  uncertainty k = 0.106175
         9        10        19        12     9      180.000000        2.079481         2    ;  uncertainty k = 0.182501
         9        10        19        12     9        0.000000        0.512262         3    ;  uncertainty k = 0.147544
         9        10        19        12     9      180.000000        0.343982         4    ;  uncertainty k = 0.021980
         9        10        19        13     9        0.000000       -0.273818         1    ;  uncertainty k = 0.106175
         9        10        19        13     9      180.000000        2.079481         2    ;  uncertainty k = 0.182501
         9        10        19        13     9        0.000000        0.512262         3    ;  uncertainty k = 0.147544
         9        10        19        13     9      180.000000        0.343982         4    ;  uncertainty k = 0.021980
         9        22        15        20     9        0.000000        8.533711         1    ;  uncertainty k = 0.435190
         9        22        15        20     9      180.000000       12.802851         2    ;  uncertainty k = 0.140763
         9        22        15        20     9        0.000000        1.500694         3    ;  uncertainty k = 0.229157
         9        22        15        20     9      180.000000       -0.498831         4    ;  uncertainty k = 0.087310
        10         9        22        15     9        0.000000       -0.181203         1    ;  uncertainty k = 0.437855
        10         9        22        15     9      180.000000       -0.656643         2    ;  uncertainty k = 0.612261
        10         9        22        15     9        0.000000        0.233868         3    ;  uncertainty k = 0.313268
        10         9        22        15     9      180.000000        0.414120         4    ;  uncertainty k = 0.035681
        10         9        22        37     9        0.000000        3.680901         1    ;  uncertainty k = 0.713382
        10         9        22        37     9      180.000000       -3.627771         2    ;  uncertainty k = 0.381036
        10         9        22        37     9        0.000000        0.657609         3    ;  uncertainty k = 0.120801
        10         9        22        37     9      180.000000       -0.046604         4    ;  uncertainty k = 0.144754
        10        19        12        11     9        0.000000        0.277494         1    ;  uncertainty k = 0.259279
        10        19        12        11     9      180.000000        9.380655         2    ;  uncertainty k = 0.580889
        10        19        12        11     9        0.000000        1.260903         3    ;  uncertainty k = 0.297020
        10        19        12        11     9      180.000000        1.849205         4    ;  uncertainty k = 0.223533
        10        19        12        31     9        0.000000       -0.044601         1    ;  uncertainty k = 0.495487
        10        19        12        31     9      180.000000        7.557641         2    ;  uncertainty k = 0.152609
        10        19        12        31     9        0.000000        0.648505         3    ;  uncertainty k = 0.330112
        10        19        12        31     9      180.000000        0.986671         4    ;  uncertainty k = 0.169058
        10        19        13        18     9        0.000000        0.277494         1    ;  uncertainty k = 0.259279
        10        19        13        18     9      180.000000        9.380655         2    ;  uncertainty k = 0.580889
        10        19        13        18     9        0.000000        1.260903         3    ;  uncertainty k = 0.297020
        10        19        13        18     9      180.000000        1.849205         4    ;  uncertainty k = 0.223533
        10        19        13        32     9        0.000000       -0.044601         1    ;  uncertainty k = 0.495487
        10        19        13        32     9      180.000000        7.557641         2    ;  uncertainty k = 0.152609
        10        19        13        32     9        0.000000        0.648505         3    ;  uncertainty k = 0.330112
        10        19        13        32     9      180.000000        0.986671         4    ;  uncertainty k = 0.169058
        11        12        19        13     9        0.000000       -0.165953         1    ;  uncertainty k = 0.169992
        11        12        19        13     9      180.000000       11.757607         2    ;  uncertainty k = 0.401729
        11        12        19        13     9        0.000000       -0.505821         3    ;  uncertainty k = 0.348703
        11        12        19        13     9      180.000000        0.798513         4    ;  uncertainty k = 0.397673
        11        17        18        13     9        0.000000       -0.003189         1    ;  uncertainty k = 0.038440
        11        17        18        13     9      180.000000       15.016788         2    ;  uncertainty k = 0.249663
        11        17        18        13     9        0.000000       -1.210513         3    ;  uncertainty k = 0.492875
        11        17        18        13     9      180.000000        0.498916         4    ;  uncertainty k = 0.293179
        11        17        18        36     9        0.000000        0.038009         1    ;  uncertainty k = 0.035822
        11        17        18        36     9      180.000000        7.549305         2    ;  uncertainty k = 0.334350
        11        17        18        36     9        0.000000        1.438249         3    ;  uncertainty k = 0.318741
        11        17        18        36     9      180.000000        1.792783         4    ;  uncertainty k = 0.163179
        12        11        17        18     9        0.000000       -0.003189         1    ;  uncertainty k = 0.038440
        12        11        17        18     9      180.000000       15.016788         2    ;  uncertainty k = 0.249663
        12        11        17        18     9        0.000000       -1.210513         3    ;  uncertainty k = 0.492875
        12        11        17        18     9      180.000000        0.498916         4    ;  uncertainty k = 0.293179
        12        11        17        35     9        0.000000        0.056378         1    ;  uncertainty k = 0.091793
        12        11        17        35     9      180.000000        7.450064         2    ;  uncertainty k = 0.356222
        12        11        17        35     9        0.000000        1.472207         3    ;  uncertainty k = 0.287391
        12        11        17        35     9      180.000000        1.800180         4    ;  uncertainty k = 0.190036
        12        19        10        14     9        0.000000       -1.453975         1    ;  uncertainty k = 0.447986
        12        19        10        14     9      180.000000        3.360421         2    ;  uncertainty k = 0.198780
        12        19        10        14     9        0.000000        0.848407         3    ;  uncertainty k = 0.189850
        12        19        10        14     9      180.000000        0.435805         4    ;  uncertainty k = 0.036604
        12        19        10        29     9        0.000000       -0.600193         1    ;  uncertainty k = 0.218608
        12        19        10        29     9      180.000000        1.966965         2    ;  uncertainty k = 0.154440
        12        19        10        29     9        0.000000        0.553661         3    ;  uncertainty k = 0.127024
        12        19        10        29     9      180.000000        0.313797         4    ;  uncertainty k = 0.019730
        12        19        13        18     9        0.000000       -0.165953         1    ;  uncertainty k = 0.169992
        12        19        13        18     9      180.000000       11.757607         2    ;  uncertainty k = 0.401729
        12        19        13        18     9        0.000000       -0.505821         3    ;  uncertainty k = 0.348703
        12        19        13        18     9      180.000000        0.798513         4    ;  uncertainty k = 0.397673
        12        19        13        32     9        0.000000        0.131870         1    ;  uncertainty k = 0.167883
        12        19        13        32     9      180.000000        7.224544         2    ;  uncertainty k = 0.567570
        12        19        13        32     9        0.000000        1.415746         3    ;  uncertainty k = 0.327246
        12        19        13        32     9      180.000000        1.668075         4    ;  uncertainty k = 0.170613
        13        18        17        35     9        0.000000        0.056378         1    ;  uncertainty k = 0.091793
        13        18        17        35     9      180.000000        7.450064         2    ;  uncertainty k = 0.356222
        13        18        17        35     9        0.000000        1.472207         3    ;  uncertainty k = 0.287391
        13        18        17        35     9      180.000000        1.800180         4    ;  uncertainty k = 0.190036
        13        19        10        14     9        0.000000       -1.453975         1    ;  uncertainty k = 0.447986
        13        19        10        14     9      180.000000        3.360421         2    ;  uncertainty k = 0.198780
        13        19        10        14     9        0.000000        0.848407         3    ;  uncertainty k = 0.189850
        13        19        10        14     9      180.000000        0.435805         4    ;  uncertainty k = 0.036604
        13        19        10        29     9        0.000000       -0.600193         1    ;  uncertainty k = 0.218608
        13        19        10        29     9      180.000000        1.966965         2    ;  uncertainty k = 0.154440
        13        19        10        29     9        0.000000        0.553661         3    ;  uncertainty k = 0.127024
        13        19        10        29     9      180.000000        0.313797         4    ;  uncertainty k = 0.019730
        13        19        12        31     9        0.000000        0.131870         1    ;  uncertainty k = 0.167883
        13        19        12        31     9      180.000000        7.224544         2    ;  uncertainty k = 0.567570
        13        19        12        31     9        0.000000        1.415746         3    ;  uncertainty k = 0.327246
        13        19        12        31     9      180.000000        1.668075         4    ;  uncertainty k = 0.170613
        14        10         9        22     9        0.000000       -0.052607         1    ;  uncertainty k = 0.764083
        14        10         9        22     9      180.000000       -0.749437         2    ;  uncertainty k = 0.395318
        14        10         9        22     9        0.000000        1.713416         3    ;  uncertainty k = 0.321039
        14        10         9        22     9      180.000000       -0.561414         4    ;  uncertainty k = 0.195159
        14        10         9        27     9        0.000000       -1.242394         1    ;  uncertainty k = 0.559340
        14        10         9        27     9      180.000000       -0.234284         2    ;  uncertainty k = 0.168601
        14        10         9        27     9        0.000000        1.039378         3    ;  uncertainty k = 0.150261
        14        10         9        27     9      180.000000       -0.102798         4    ;  uncertainty k = 0.150575
        14        10         9        28     9        0.000000       -1.242394         1    ;  uncertainty k = 0.559340
        14        10         9        28     9      180.000000       -0.234284         2    ;  uncertainty k = 0.168601
        14        10         9        28     9        0.000000        1.039378         3    ;  uncertainty k = 0.150261
        14        10         9        28     9      180.000000       -0.102798         4    ;  uncertainty k = 0.150575
        15         8         7        21     9        0.000000       -0.236034         1    ;  uncertainty k = 0.468609
        15         8         7        21     9      180.000000       12.682117         2    ;  uncertainty k = 0.529608
        15         8         7        21     9        0.000000       -1.109003         3    ;  uncertainty k = 0.683977
        15         8         7        21     9      180.000000        1.022512         4    ;  uncertainty k = 0.330754
        15        20        16        21     9        0.000000       -0.727031         1    ;  uncertainty k = 1.154526
        15        20        16        21     9      180.000000       15.842485         2    ;  uncertainty k = 0.398145
        15        20        16        21     9        0.000000       -0.257081         3    ;  uncertainty k = 0.319591
        15        20        16        21     9      180.000000        0.992483         4    ;  uncertainty k = 0.176270
        15        20        16        34     9        0.000000       -0.392488         1    ;  uncertainty k = 0.864220
        15        20        16        34     9      180.000000       12.489467         2    ;  uncertainty k = 0.378782
        15        20        16        34     9        0.000000        1.355690         3    ;  uncertainty k = 0.760379
        15        20        16        34     9      180.000000        0.853020         4    ;  uncertainty k = 0.299132
        15        22         9        27     9        0.000000       -1.147632         1    ;  uncertainty k = 0.263721
        15        22         9        27     9      180.000000       -0.482322         2    ;  uncertainty k = 0.302946
        15        22         9        27     9        0.000000        0.226739         3    ;  uncertainty k = 0.211259
        15        22         9        27     9      180.000000        0.248702         4    ;  uncertainty k = 0.013743
        15        22         9        28     9        0.000000       -1.147632         1    ;  uncertainty k = 0.263721
        15        22         9        28     9      180.000000       -0.482322         2    ;  uncertainty k = 0.302946
        15        22         9        28     9        0.000000        0.226739         3    ;  uncertainty k = 0.211259
        15        22         9        28     9      180.000000        0.248702         4    ;  uncertainty k = 0.013743
        16        20        15        22     9        0.000000       -0.152560         1    ;  uncertainty k = 1.153662
        16        20        15        22     9      180.000000       12.736509         2    ;  uncertainty k = 0.218695
        16        20        15        22     9        0.000000        2.232715         3    ;  uncertainty k = 0.423520
        16        20        15        22     9      180.000000        1.585263         4    ;  uncertainty k = 0.416482
        17        11        12        19     9        0.000000       -0.091981         1    ;  uncertainty k = 0.109878
        17        11        12        19     9      180.000000       13.825977         2    ;  uncertainty k = 0.203920
        17        11        12        19     9        0.000000       -0.976820         3    ;  uncertainty k = 0.497977
        17        11        12        19     9      180.000000        0.702825         4    ;  uncertainty k = 0.246026
        17        11        12        31     9        0.000000        0.043151         1    ;  uncertainty k = 0.053762
        17        11        12        31     9      180.000000        7.853416         2    ;  uncertainty k = 0.298299
        17        11        12        31     9        0.000000        1.416969         3    ;  uncertainty k = 0.297576
        17        11        12        31     9      180.000000        1.844954         4    ;  uncertainty k = 0.168713
        17        18        13        19     9        0.000000       -0.091981         1    ;  uncertainty k = 0.109878
        17        18        13        19     9      180.000000       13.825977         2    ;  uncertainty k = 0.203920
        17        18        13        19     9        0.000000       -0.976820         3    ;  uncertainty k = 0.497977
        17        18        13        19     9      180.000000        0.702825         4    ;  uncertainty k = 0.246026
        17        18        13        32     9        0.000000        0.043151         1    ;  uncertainty k = 0.053762
        17        18        13        32     9      180.000000        7.853416         2    ;  uncertainty k = 0.298299
        17        18        13        32     9        0.000000        1.416969         3    ;  uncertainty k = 0.297576
        17        18        13        32     9      180.000000        1.844954         4    ;  uncertainty k = 0.168713
        18        17        11        30     9        0.000000        0.038009         1    ;  uncertainty k = 0.035822
        18        17        11        30     9      180.000000        7.549305         2    ;  uncertainty k = 0.334350
        18        17        11        30     9        0.000000        1.438249         3    ;  uncertainty k = 0.318741
        18        17        11        30     9      180.000000        1.792783         4    ;  uncertainty k = 0.163179
        19        10         9        22     9        0.000000       -2.195261         1    ;  uncertainty k = 0.395882
        19        10         9        22     9      180.000000       -0.031057         2    ;  uncertainty k = 0.681736
        19        10         9        22     9        0.000000        2.005161         3    ;  uncertainty k = 0.343930
        19        10         9        22     9      180.000000        0.115840         4    ;  uncertainty k = 0.059502
        19        10         9        27     9        0.000000       -0.032425         1    ;  uncertainty k = 0.325911
        19        10         9        27     9      180.000000        0.090710         2    ;  uncertainty k = 0.447956
        19        10         9        27     9        0.000000        0.614218         3    ;  uncertainty k = 0.070661
        19        10         9        27     9      180.000000       -0.058272         4    ;  uncertainty k = 0.097588
        19        10         9        28     9        0.000000       -0.032425         1    ;  uncertainty k = 0.325911
        19        10         9        28     9      180.000000        0.090710         2    ;  uncertainty k = 0.447956
        19        10         9        28     9        0.000000        0.614218         3    ;  uncertainty k = 0.070661
        19        10         9        28     9      180.000000       -0.058272         4    ;  uncertainty k = 0.097588
        19        10        14        33     9        0.000000       15.207439         1    ;  uncertainty k = 0.126759
        19        10        14        33     9      180.000000       -2.891249         2    ;  uncertainty k = 0.433974
        19        10        14        33     9        0.000000        1.036217         3    ;  uncertainty k = 0.050697
        19        10        14        33     9      180.000000        0.184126         4    ;  uncertainty k = 0.080140
        19        12        11        30     9        0.000000        0.047860         1    ;  uncertainty k = 0.232277
        19        12        11        30     9      180.000000        7.569870         2    ;  uncertainty k = 0.397811
        19        12        11        30     9        0.000000        1.467091         3    ;  uncertainty k = 0.255631
        19        12        11        30     9      180.000000        1.771465         4    ;  uncertainty k = 0.128664
        19        13        18        36     9        0.000000        0.047860         1    ;  uncertainty k = 0.232277
        19        13        18        36     9      180.000000        7.569870         2    ;  uncertainty k = 0.397811
        19        13        18        36     9        0.000000        1.467091         3    ;  uncertainty k = 0.255631
        19        13        18        36     9      180.000000        1.771465         4    ;  uncertainty k = 0.128664
        20        15         8        26     9        0.000000        0.249111         1    ;  uncertainty k = 0.450714
        20        15         8        26     9      180.000000        6.845142         2    ;  uncertainty k = 0.457090
        20        15         8        26     9        0.000000        1.342062         3    ;  uncertainty k = 0.374432
        20        15         8        26     9      180.000000        1.372476         4    ;  uncertainty k = 0.171953
        20        15        22        37     9        0.000000       12.912348         1    ;  uncertainty k = 0.293676
        20        15        22        37     9      180.000000        9.801748         2    ;  uncertainty k = 0.250858
        20        15        22        37     9        0.000000        0.647644         3    ;  uncertainty k = 0.160502
        20        15        22        37     9      180.000000       -0.317777         4    ;  uncertainty k = 0.163284
        21         7         8        26     9        0.000000        0.142053         1    ;  uncertainty k = 0.591144
        21         7         8        26     9      180.000000        9.240385         2    ;  uncertainty k = 0.467655
        21         7         8        26     9        0.000000        1.382417         3    ;  uncertainty k = 0.262163
        21         7         8        26     9      180.000000        1.572761         4    ;  uncertainty k = 0.162036
        22         9        10        29     9        0.000000       -0.572508         1    ;  uncertainty k = 0.377115
        22         9        10        29     9      180.000000       -0.600289         2    ;  uncertainty k = 0.341220
        22         9        10        29     9        0.000000        1.087420         3    ;  uncertainty k = 0.209284
        22         9        10        29     9      180.000000       -0.040588         4    ;  uncertainty k = 0.052009
        22        15         8        26     9        0.000000       -0.296826         1    ;  uncertainty k = 0.345651
        22        15         8        26     9      180.000000        5.479218         2    ;  uncertainty k = 0.647782
        22        15         8        26     9        0.000000        0.987843         3    ;  uncertainty k = 0.396911
        22        15         8        26     9      180.000000        0.695542         4    ;  uncertainty k = 0.197095
        23         2         4        38     9        0.000000       -0.221495         1    ;  uncertainty k = 0.346246
        23         2         4        38     9      180.000000        7.730796         2    ;  uncertainty k = 0.478345
        23         2         4        38     9        0.000000        0.633197         3    ;  uncertainty k = 0.223371
        23         2         4        38     9      180.000000        1.112118         4    ;  uncertainty k = 0.280893
        24         3         5        25     9        0.000000       -0.065719         1    ;  uncertainty k = 0.207200
        24         3         5        25     9      180.000000        7.862203         2    ;  uncertainty k = 0.377359
        24         3         5        25     9        0.000000       -0.379691         3    ;  uncertainty k = 0.230275
        24         3         5        25     9      180.000000        0.252090         4    ;  uncertainty k = 0.162014
        25         5         6        39     9        0.000000       -0.099999         1    ;  uncertainty k = 0.335765
        25         5         6        39     9      180.000000        8.903893         2    ;  uncertainty k = 0.418792
        25         5         6        39     9        0.000000        0.750776         3    ;  uncertainty k = 0.117988
        25         5         6        39     9      180.000000        1.215578         4    ;  uncertainty k = 0.325218
        27         9        10        29     9        0.000000       -0.062118         1    ;  uncertainty k = 0.175980
        27         9        10        29     9      180.000000       -0.346454         2    ;  uncertainty k = 0.237264
        27         9        10        29     9        0.000000       -0.035091         3    ;  uncertainty k = 0.145025
        27         9        10        29     9      180.000000       -0.049706         4    ;  uncertainty k = 0.074111
        27         9        22        37     9        0.000000        2.288821         1    ;  uncertainty k = 0.507795
        27         9        22        37     9      180.000000       -1.939761         2    ;  uncertainty k = 0.413857
        27         9        22        37     9        0.000000        0.268258         3    ;  uncertainty k = 0.084403
        27         9        22        37     9      180.000000        0.114796         4    ;  uncertainty k = 0.076861
        28         9        10        29     9        0.000000       -0.062118         1    ;  uncertainty k = 0.175980
        28         9        10        29     9      180.000000       -0.346454         2    ;  uncertainty k = 0.237264
        28         9        10        29     9        0.000000       -0.035091         3    ;  uncertainty k = 0.145025
        28         9        10        29     9      180.000000       -0.049706         4    ;  uncertainty k = 0.074111
        28         9        22        37     9        0.000000        2.288821         1    ;  uncertainty k = 0.507795
        28         9        22        37     9      180.000000       -1.939761         2    ;  uncertainty k = 0.413857
        28         9        22        37     9        0.000000        0.268258         3    ;  uncertainty k = 0.084403
        28         9        22        37     9      180.000000        0.114796         4    ;  uncertainty k = 0.076861
        29        10        14        33     9        0.000000       11.445024         1    ;  uncertainty k = 0.077908
        29        10        14        33     9      180.000000       -2.625800         2    ;  uncertainty k = 0.375643
        29        10        14        33     9        0.000000        0.698341         3    ;  uncertainty k = 0.074671
        29        10        14        33     9      180.000000        0.156691         4    ;  uncertainty k = 0.100510
        30        11        12        31     9        0.000000       -0.051759         1    ;  uncertainty k = 0.105402
        30        11        12        31     9      180.000000        7.644705         2    ;  uncertainty k = 0.306864
        30        11        12        31     9        0.000000       -0.441178         3    ;  uncertainty k = 0.237620
        30        11        12        31     9      180.000000        0.096993         4    ;  uncertainty k = 0.103181
        30        11        17        35     9        0.000000       -0.014778         1    ;  uncertainty k = 0.078555
        30        11        17        35     9      180.000000        7.498073         2    ;  uncertainty k = 0.337617
        30        11        17        35     9        0.000000       -0.424125         3    ;  uncertainty k = 0.279662
        30        11        17        35     9      180.000000        0.048151         4    ;  uncertainty k = 0.148926
        32        13        18        36     9        0.000000       -0.051759         1    ;  uncertainty k = 0.105402
        32        13        18        36     9      180.000000        7.644705         2    ;  uncertainty k = 0.306864
        32        13        18        36     9        0.000000       -0.441178         3    ;  uncertainty k = 0.237620
        32        13        18        36     9      180.000000        0.096993         4    ;  uncertainty k = 0.103181
        35        17        18        36     9        0.000000       -0.014778         1    ;  uncertainty k = 0.078555
        35        17        18        36     9      180.000000        7.498073         2    ;  uncertainty k = 0.337617
        35        17        18        36     9        0.000000       -0.424125         3    ;  uncertainty k = 0.279662
        35        17        18        36     9      180.000000        0.048151         4    ;  uncertainty k = 0.148926
        38         4         6        39     9        0.000000       -0.076643         1    ;  uncertainty k = 0.585881
        38         4         6        39     9      180.000000        9.647024         2    ;  uncertainty k = 0.366318
        38         4         6        39     9        0.000000        0.892007         3    ;  uncertainty k = 0.246750
        38         4         6        39     9      180.000000        1.409326         4    ;  uncertainty k = 0.226436
        39        40        43        44     9        0.000000       -0.702337         1    ;  uncertainty k = 0.291501
        39        40        43        44     9      180.000000       -2.674643         2    ;  uncertainty k = 0.293431
        39        40        43        44     9        0.000000        1.587870         3    ;  uncertainty k = 0.084635
        39        40        43        44     9      180.000000       -0.210311         4    ;  uncertainty k = 0.121490
        39        40        43        45     9        0.000000       -0.702337         1    ;  uncertainty k = 0.291501
        39        40        43        45     9      180.000000       -2.674643         2    ;  uncertainty k = 0.293431
        39        40        43        45     9        0.000000        1.587870         3    ;  uncertainty k = 0.084635
        39        40        43        45     9      180.000000       -0.210311         4    ;  uncertainty k = 0.121490
        39        40        43        46     9        0.000000       -0.702337         1    ;  uncertainty k = 0.291501
        39        40        43        46     9      180.000000       -2.674643         2    ;  uncertainty k = 0.293431
        39        40        43        46     9        0.000000        1.587870         3    ;  uncertainty k = 0.084635
        39        40        43        46     9      180.000000       -0.210311         4    ;  uncertainty k = 0.121490
        41        40        43        44     9        0.000000       -0.050070         1    ;  uncertainty k = 0.176391
        41        40        43        44     9      180.000000       -0.171203         2    ;  uncertainty k = 0.227461
        41        40        43        44     9        0.000000        0.665870         3    ;  uncertainty k = 0.030131
        41        40        43        44     9      180.000000       -0.074804         4    ;  uncertainty k = 0.067025
        41        40        43        45     9        0.000000       -0.050070         1    ;  uncertainty k = 0.176391
        41        40        43        45     9      180.000000       -0.171203         2    ;  uncertainty k = 0.227461
        41        40        43        45     9        0.000000        0.665870         3    ;  uncertainty k = 0.030131
        41        40        43        45     9      180.000000       -0.074804         4    ;  uncertainty k = 0.067025
        41        40        43        46     9        0.000000       -0.050070         1    ;  uncertainty k = 0.176391
        41        40        43        46     9      180.000000       -0.171203         2    ;  uncertainty k = 0.227461
        41        40        43        46     9        0.000000        0.665870         3    ;  uncertainty k = 0.030131
        41        40        43        46     9      180.000000       -0.074804         4    ;  uncertainty k = 0.067025
        42        40        43        44     9        0.000000       -0.050070         1    ;  uncertainty k = 0.176391
        42        40        43        44     9      180.000000       -0.171203         2    ;  uncertainty k = 0.227461
        42        40        43        44     9        0.000000        0.665870         3    ;  uncertainty k = 0.030131
        42        40        43        44     9      180.000000       -0.074804         4    ;  uncertainty k = 0.067025
        42        40        43        45     9        0.000000       -0.050070         1    ;  uncertainty k = 0.176391
        42        40        43        45     9      180.000000       -0.171203         2    ;  uncertainty k = 0.227461
        42        40        43        45     9        0.000000        0.665870         3    ;  uncertainty k = 0.030131
        42        40        43        45     9      180.000000       -0.074804         4    ;  uncertainty k = 0.067025
        42        40        43        46     9        0.000000       -0.050070         1    ;  uncertainty k = 0.176391
        42        40        43        46     9      180.000000       -0.171203         2    ;  uncertainty k = 0.227461
        42        40        43        46     9        0.000000        0.665870         3    ;  uncertainty k = 0.030131
        42        40        43        46     9      180.000000       -0.074804         4    ;  uncertainty k = 0.067025

[ dihedrals ] ; impropers
;       ai        aj        ak        al funct           phase               k        pn
         1         2         3         7     4      180.000000        9.313226         2    ;  uncertainty k = 0.121744
         1         3         7         2     4      180.000000        9.313226         2    ;  uncertainty k = 0.121744
         1         7         2         3     4      180.000000        9.313226         2    ;  uncertainty k = 0.121744
         2         1         4        23     4      180.000000        4.014356         2    ;  uncertainty k = 0.080482
         2         4        23         1     4      180.000000        4.014356         2    ;  uncertainty k = 0.080482
         2        23         1         4     4      180.000000        4.014356         2    ;  uncertainty k = 0.080482
         3         1         5        24     4      180.000000        4.329071         2    ;  uncertainty k = 0.035323
         3         5        24         1     4      180.000000        4.329071         2    ;  uncertainty k = 0.035323
         3        24         1         5     4      180.000000        4.329071         2    ;  uncertainty k = 0.035323
         4         2         6        38     4      180.000000       10.955324         2    ;  uncertainty k = 0.160100
         4         6        38         2     4      180.000000       10.955324         2    ;  uncertainty k = 0.160100
         4        38         2         6     4      180.000000       10.955324         2    ;  uncertainty k = 0.160100
         5         3         6        25     4      180.000000        1.806027         2    ;  uncertainty k = 0.173275
         5         6        25         3     4      180.000000        1.806027         2    ;  uncertainty k = 0.173275
         5        25         3         6     4      180.000000        1.806027         2    ;  uncertainty k = 0.173275
         6         4         5        39     4      180.000000       18.565163         2    ;  uncertainty k = 0.048920
         6         5        39         4     4      180.000000       18.565163         2    ;  uncertainty k = 0.048920
         6        39         4         5     4      180.000000       18.565163         2    ;  uncertainty k = 0.048920
         7         1         8        21     4      180.000000       27.341897         2    ;  uncertainty k = 0.028236
         7         8        21         1     4      180.000000       27.341897         2    ;  uncertainty k = 0.028236
         7        21         1         8     4      180.000000       27.341897         2    ;  uncertainty k = 0.028236
         8         7        15        26     4      180.000000        1.744947         2    ;  uncertainty k = 0.419948
         8        15        26         7     4      180.000000        1.744947         2    ;  uncertainty k = 0.419948
         8        26         7        15     4      180.000000        1.744947         2    ;  uncertainty k = 0.419948
        11        12        17        30     4      180.000000        4.234205         2    ;  uncertainty k = 0.081881
        11        17        30        12     4      180.000000        4.234205         2    ;  uncertainty k = 0.081881
        11        30        12        17     4      180.000000        4.234205         2    ;  uncertainty k = 0.081881
        12        11        19        31     4      180.000000        3.983249         2    ;  uncertainty k = 0.116003
        12        19        31        11     4      180.000000        3.983249         2    ;  uncertainty k = 0.116003
        12        31        11        19     4      180.000000        3.983249         2    ;  uncertainty k = 0.116003
        13        18        19        32     4      180.000000        3.983249         2    ;  uncertainty k = 0.116003
        13        19        32        18     4      180.000000        3.983249         2    ;  uncertainty k = 0.116003
        13        32        18        19     4      180.000000        3.983249         2    ;  uncertainty k = 0.116003
        15         8        20        22     4      180.000000       34.921827         2    ;  uncertainty k = 0.079106
        15        20        22         8     4      180.000000       34.921827         2    ;  uncertainty k = 0.079106
        15        22         8        20     4      180.000000       34.921827         2    ;  uncertainty k = 0.079106
        16        20        21        34     4      180.000000       24.227487         2    ;  uncertainty k = 0.059569
        16        21        34        20     4      180.000000       24.227487         2    ;  uncertainty k = 0.059569
        16        34        20        21     4      180.000000       24.227487         2    ;  uncertainty k = 0.059569
        17        11        18        35     4      180.000000        4.404546         2    ;  uncertainty k = 0.145826
        17        18        35        11     4      180.000000        4.404546         2    ;  uncertainty k = 0.145826
        17        35        11        18     4      180.000000        4.404546         2    ;  uncertainty k = 0.145826
        18        13        17        36     4      180.000000        4.234205         2    ;  uncertainty k = 0.081881
        18        17        36        13     4      180.000000        4.234205         2    ;  uncertainty k = 0.081881
        18        36        13        17     4      180.000000        4.234205         2    ;  uncertainty k = 0.081881
        19        10        12        13     4      180.000000       12.157434         2    ;  uncertainty k = 0.087858
        19        12        13        10     4      180.000000       12.157434         2    ;  uncertainty k = 0.087858
        19        13        10        12     4      180.000000       12.157434         2    ;  uncertainty k = 0.087858
        22         9        15        37     4      180.000000        0.223430         2    ;  uncertainty k = 0.499605
        22        15        37         9     4      180.000000        0.223430         2    ;  uncertainty k = 0.499605
        22        37         9        15     4      180.000000        0.223430         2    ;  uncertainty k = 0.499605

[ pairs ]
;       ai        aj funct
         1         6     1
         1        15     1
         1        16     1
         1        25     1
         1        26     1
         1        38     1
         2         5     1
         2         8     1
         2        21     1
         2        24     1
         2        39     1
         3         4     1
         3         8     1
         3        21     1
         3        23     1
         3        39     1
         4         7     1
         4        25     1
         4        40     1
         5         7     1
         5        38     1
         5        40     1
         6        23     1
         6        24     1
         6        41     1
         6        42     1
         6        43     1
         7        20     1
         7        22     1
         7        23     1
         7        24     1
         7        34     1
         8         9     1
         8        16     1
         8        37     1
         9        12     1
         9        13     1
         9        20     1
         9        33     1
        10        11     1
        10        15     1
        10        18     1
        10        31     1
        10        32     1
        10        37     1
        11        13     1
        11        36     1
        12        14     1
        12        18     1
        12        29     1
        12        32     1
        12        35     1
        13        14     1
        13        29     1
        13        31     1
        13        35     1
        14        22     1
        14        27     1
        14        28     1
        15        21     1
        15        27     1
        15        28     1
        15        34     1
        16        22     1
        17        19     1
        17        31     1
        17        32     1
        18        30     1
        19        22     1
        19        27     1
        19        28     1
        19        30     1
        19        33     1
        19        36     1
        20        26     1
        20        37     1
        21        26     1
        22        26     1
        22        29     1
        23        38     1
        24        25     1
        25        39     1
        27        29     1
        27        37     1
        28        29     1
        28        37     1
        29        33     1
        30        31     1
        30        35     1
        32        36     1
        35        36     1
        38        39     1
        39        44     1
        39        45     1
        39        46     1
        41        44     1
        41        45     1
        41        46     1
        42        44     1
        42        45     1
        42        46     1
