; ITP file created by ByteFF-joint-25, 2025-07-14 11:36:42.324963

[ atomtypes ]
;name           bonded.type        at.num        mass        charge   ptype           sigma         epsilon
 c0bf                                   6      0.0000       0.00000       A     3.31531e-01     4.13288e-01    ;  uncertainty sigma = 0.000007, epsilon = 0.000722
 c1bf                                   6      0.0000       0.00000       A     3.31521e-01     4.13581e-01    ;  uncertainty sigma = 0.000010, epsilon = 0.000638
 c2bf                                   6      0.0000       0.00000       A     3.31521e-01     4.13414e-01    ;  uncertainty sigma = 0.000009, epsilon = 0.000583
 c3bf                                   6      0.0000       0.00000       A     3.31538e-01     4.13283e-01    ;  uncertainty sigma = 0.000007, epsilon = 0.001067
 c4bf                                   6      0.0000       0.00000       A     3.31524e-01     4.13216e-01    ;  uncertainty sigma = 0.000003, epsilon = 0.000602
 c5bf                                   6      0.0000       0.00000       A     3.31525e-01     4.13402e-01    ;  uncertainty sigma = 0.000004, epsilon = 0.000811
 c6bf                                   6      0.0000       0.00000       A     3.31521e-01     4.13341e-01    ;  uncertainty sigma = 0.000016, epsilon = 0.000678
 c7bf                                   6      0.0000       0.00000       A     3.31527e-01     4.13260e-01    ;  uncertainty sigma = 0.000014, epsilon = 0.001138
 c8bf                                   6      0.0000       0.00000       A     3.39762e-01     4.50673e-01    ;  uncertainty sigma = 0.000011, epsilon = 0.001255
 c9bf                                   6      0.0000       0.00000       A     3.39750e-01     4.50544e-01    ;  uncertainty sigma = 0.000007, epsilon = 0.000791
 c10bf                                  6      0.0000       0.00000       A     3.31517e-01     4.13350e-01    ;  uncertainty sigma = 0.000003, epsilon = 0.000541
 c11bf                                  6      0.0000       0.00000       A     3.31519e-01     4.13304e-01    ;  uncertainty sigma = 0.000003, epsilon = 0.000583
 c12bf                                  6      0.0000       0.00000       A     3.31519e-01     4.13304e-01    ;  uncertainty sigma = 0.000003, epsilon = 0.000583
 o13bf                                  8      0.0000       0.00000       A     3.24257e-01     3.88598e-01    ;  uncertainty sigma = 0.000013, epsilon = 0.001596
 c14bf                                  6      0.0000       0.00000       A     3.31516e-01     4.13349e-01    ;  uncertainty sigma = 0.000011, epsilon = 0.000874
 c15bf                                  6      0.0000       0.00000       A     3.31502e-01     4.13579e-01    ;  uncertainty sigma = 0.000011, epsilon = 0.000388
 c16bf                                  6      0.0000       0.00000       A     3.31519e-01     4.13331e-01    ;  uncertainty sigma = 0.000003, epsilon = 0.000569
 c17bf                                  6      0.0000       0.00000       A     3.31517e-01     4.13350e-01    ;  uncertainty sigma = 0.000003, epsilon = 0.000541
 c18bf                                  6      0.0000       0.00000       A     3.31542e-01     4.12960e-01    ;  uncertainty sigma = 0.000004, epsilon = 0.000669
 n19bf                                  7      0.0000       0.00000       A     3.38417e-01     3.93373e-01    ;  uncertainty sigma = 0.000016, epsilon = 0.001202
 n20bf                                  7      0.0000       0.00000       A     3.38417e-01     3.93426e-01    ;  uncertainty sigma = 0.000018, epsilon = 0.000868
 n21bf                                  7      0.0000       0.00000       A     3.27787e-01     6.48850e-01    ;  uncertainty sigma = 0.000034, epsilon = 0.002592
 h22bf                                  1      0.0000       0.00000       A     2.62561e-01     6.71012e-02    ;  uncertainty sigma = 0.000016, epsilon = 0.000656
 h23bf                                  1      0.0000       0.00000       A     2.62565e-01     6.70566e-02    ;  uncertainty sigma = 0.000012, epsilon = 0.000585
 h24bf                                  1      0.0000       0.00000       A     2.62556e-01     6.70464e-02    ;  uncertainty sigma = 0.000007, epsilon = 0.000382
 h25bf                                  1      0.0000       0.00000       A     2.62541e-01     6.69041e-02    ;  uncertainty sigma = 0.000018, epsilon = 0.000969
 h26bf                                  1      0.0000       0.00000       A     2.42232e-01     8.67796e-02    ;  uncertainty sigma = 0.000037, epsilon = 0.000692
 h27bf                                  1      0.0000       0.00000       A     2.42232e-01     8.67796e-02    ;  uncertainty sigma = 0.000037, epsilon = 0.000692
 h28bf                                  1      0.0000       0.00000       A     2.42260e-01     8.69504e-02    ;  uncertainty sigma = 0.000011, epsilon = 0.000481
 h29bf                                  1      0.0000       0.00000       A     2.62558e-01     6.70324e-02    ;  uncertainty sigma = 0.000010, epsilon = 0.000442
 h30bf                                  1      0.0000       0.00000       A     2.62562e-01     6.70739e-02    ;  uncertainty sigma = 0.000004, epsilon = 0.000538
 h31bf                                  1      0.0000       0.00000       A     2.62562e-01     6.70739e-02    ;  uncertainty sigma = 0.000004, epsilon = 0.000538
 h32bf                                  1      0.0000       0.00000       A     5.38011e-02     1.91837e-02    ;  uncertainty sigma = 0.000073, epsilon = 0.000888
 h33bf                                  1      0.0000       0.00000       A     2.44735e-01     6.71447e-02    ;  uncertainty sigma = 0.000026, epsilon = 0.000712
 h34bf                                  1      0.0000       0.00000       A     2.62552e-01     6.70645e-02    ;  uncertainty sigma = 0.000011, epsilon = 0.000453
 h35bf                                  1      0.0000       0.00000       A     2.62558e-01     6.70324e-02    ;  uncertainty sigma = 0.000010, epsilon = 0.000442
 h36bf                                  1      0.0000       0.00000       A     1.10591e-01     4.16159e-02    ;  uncertainty sigma = 0.000130, epsilon = 0.000719
 f37bf                                  9      0.0000       0.00000       A     3.03422e-01     3.48176e-01    ;  uncertainty sigma = 0.000011, epsilon = 0.000776
 o38bf                                  8      0.0000       0.00000       A     3.15637e-01     3.03544e-01    ;  uncertainty sigma = 0.000018, epsilon = 0.000909
 c39bf                                  6      0.0000       0.00000       A     3.39770e-01     4.51364e-01    ;  uncertainty sigma = 0.000012, epsilon = 0.000796
 h40bf                                  1      0.0000       0.00000       A     2.42148e-01     8.68671e-02    ;  uncertainty sigma = 0.000036, epsilon = 0.000904
 h41bf                                  1      0.0000       0.00000       A     2.42148e-01     8.68671e-02    ;  uncertainty sigma = 0.000036, epsilon = 0.000904
 c42bf                                  6      0.0000       0.00000       A     3.39756e-01     4.51355e-01    ;  uncertainty sigma = 0.000018, epsilon = 0.001217
 f43bf                                  9      0.0000       0.00000       A     3.03411e-01     3.48276e-01    ;  uncertainty sigma = 0.000012, epsilon = 0.000500
 f44bf                                  9      0.0000       0.00000       A     3.03411e-01     3.48276e-01    ;  uncertainty sigma = 0.000012, epsilon = 0.000500
 f45bf                                  9      0.0000       0.00000       A     3.03411e-01     3.48276e-01    ;  uncertainty sigma = 0.000012, epsilon = 0.000500

[ moleculetype ]
;name             nrexcl
 MOL                   3

[ atoms ]
;       nr            type      resi   res      atom      cgnr      charge          mass ; qtot
         1            c0bf         1   UNL        c0         1    -0.15679       12.0110 ; qtot   -0.157
         2            c1bf         1   UNL        c1         2    -0.10681       12.0110 ; qtot   -0.264
         3            c2bf         1   UNL        c2         3    -0.07715       12.0110 ; qtot   -0.341
         4            c3bf         1   UNL        c3         4     0.09481       12.0110 ; qtot   -0.246
         5            c4bf         1   UNL        c4         5    -0.15987       12.0110 ; qtot   -0.406
         6            c5bf         1   UNL        c5         6     0.09692       12.0110 ; qtot   -0.309
         7            c6bf         1   UNL        c6         7     0.53181       12.0110 ; qtot    0.223
         8            c7bf         1   UNL        c7         8    -0.41873       12.0110 ; qtot   -0.196
         9            c8bf         1   UNL        c8         9     0.20508       12.0110 ; qtot    0.009
        10            c9bf         1   UNL        c9        10     0.17238       12.0110 ; qtot    0.182
        11           c10bf         1   UNL       c10        11    -0.13212       12.0110 ; qtot    0.050
        12           c11bf         1   UNL       c11        12    -0.11431       12.0110 ; qtot   -0.065
        13           c12bf         1   UNL       c12        13    -0.11431       12.0110 ; qtot   -0.179
        14           o13bf         1   UNL       o13        14    -0.60202       15.9990 ; qtot   -0.781
        15           c14bf         1   UNL       c14        15     0.69818       12.0110 ; qtot   -0.083
        16           c15bf         1   UNL       c15        16     0.68025       12.0110 ; qtot    0.597
        17           c16bf         1   UNL       c16        17    -0.12191       12.0110 ; qtot    0.475
        18           c17bf         1   UNL       c17        18    -0.13212       12.0110 ; qtot    0.343
        19           c18bf         1   UNL       c18        19    -0.11806       12.0110 ; qtot    0.225
        20           n19bf         1   UNL       n19        20    -0.77724       14.0070 ; qtot   -0.552
        21           n20bf         1   UNL       n20        21    -0.73242       14.0070 ; qtot   -1.284
        22           n21bf         1   UNL       n21        22    -0.87199       14.0070 ; qtot   -2.156
        23           h22bf         1   UNL       h22        23     0.16442        1.0080 ; qtot   -1.992
        24           h23bf         1   UNL       h23        24     0.15091        1.0080 ; qtot   -1.841
        25           h24bf         1   UNL       h24        25     0.14753        1.0080 ; qtot   -1.694
        26           h25bf         1   UNL       h25        26     0.15255        1.0080 ; qtot   -1.541
        27           h26bf         1   UNL       h26        27     0.06384        1.0080 ; qtot   -1.477
        28           h27bf         1   UNL       h27        28     0.06384        1.0080 ; qtot   -1.413
        29           h28bf         1   UNL       h28        29     0.05801        1.0080 ; qtot   -1.355
        30           h29bf         1   UNL       h29        30     0.13206        1.0080 ; qtot   -1.223
        31           h30bf         1   UNL       h30        31     0.13699        1.0080 ; qtot   -1.086
        32           h31bf         1   UNL       h31        32     0.13699        1.0080 ; qtot   -0.949
        33           h32bf         1   UNL       h32        33     0.41310        1.0080 ; qtot   -0.536
        34           h33bf         1   UNL       h33        34     0.05077        1.0080 ; qtot   -0.485
        35           h34bf         1   UNL       h34        35     0.13198        1.0080 ; qtot   -0.353
        36           h35bf         1   UNL       h35        36     0.13206        1.0080 ; qtot   -0.221
        37           h36bf         1   UNL       h36        37     0.44064        1.0080 ; qtot    0.219
        38           f37bf         1   UNL       f37        38    -0.13702       18.9980 ; qtot    0.082
        39           o38bf         1   UNL       o38        39    -0.29486       15.9990 ; qtot   -0.213
        40           c39bf         1   UNL       c39        40     0.07347       12.0110 ; qtot   -0.139
        41           h40bf         1   UNL       h40        41     0.08732        1.0080 ; qtot   -0.052
        42           h41bf         1   UNL       h41        42     0.08732        1.0080 ; qtot    0.035
        43           c42bf         1   UNL       c42        43     0.64082       12.0110 ; qtot    0.676
        44           f43bf         1   UNL       f43        44    -0.22544       18.9980 ; qtot    0.451
        45           f44bf         1   UNL       f44        45    -0.22544       18.9980 ; qtot    0.225
        46           f45bf         1   UNL       f45        46    -0.22544       18.9980 ; qtot   -0.000

[ bonds ]
;       ai        aj funct               r               k
         1         2     1        0.139766   352792.101562    ;  uncertainty r = 0.000019, k = 3.265435
         1         3     1        0.139684   345386.135547    ;  uncertainty r = 0.000041, k = 2.855186
         1         7     1        0.147270   261109.588672    ;  uncertainty r = 0.000039, k = 6.874310
         2         4     1        0.138402   348843.528174    ;  uncertainty r = 0.000019, k = 2.407240
         2        23     1        0.108686   335203.238721    ;  uncertainty r = 0.000023, k = 0.736698
         3         5     1        0.139185   365817.585107    ;  uncertainty r = 0.000065, k = 1.785473
         3        24     1        0.108638   333037.615234    ;  uncertainty r = 0.000027, k = 0.734164
         4         6     1        0.139233   357951.210547    ;  uncertainty r = 0.000074, k = 5.818391
         4        38     1        0.135473   335970.986377    ;  uncertainty r = 0.000060, k = 3.267637
         5         6     1        0.139531   356564.162451    ;  uncertainty r = 0.000044, k = 3.082341
         5        25     1        0.108757   336912.207617    ;  uncertainty r = 0.000033, k = 1.126677
         6        39     1        0.137135   318352.704785    ;  uncertainty r = 0.000024, k = 5.020511
         7         8     1        0.140259   426147.090723    ;  uncertainty r = 0.000059, k = 9.345561
         7        21     1        0.135547   395182.834863    ;  uncertainty r = 0.000047, k = 8.910870
         8        15     1        0.142200   437085.145410    ;  uncertainty r = 0.000074, k = 7.312812
         8        26     1        0.108982   347697.397168    ;  uncertainty r = 0.000060, k = 3.509310
         9        10     1        0.153528   198932.485962    ;  uncertainty r = 0.000113, k = 4.485541
         9        22     1        0.144360   258703.533301    ;  uncertainty r = 0.000127, k = 5.188267
         9        27     1        0.109548   306948.010498    ;  uncertainty r = 0.000056, k = 1.476386
         9        28     1        0.109548   306948.010498    ;  uncertainty r = 0.000056, k = 1.476386
        10        14     1        0.143014   262792.254346    ;  uncertainty r = 0.000086, k = 14.622904
        10        19     1        0.151556   222180.461621    ;  uncertainty r = 0.000089, k = 7.017739
        10        29     1        0.109828   303256.263818    ;  uncertainty r = 0.000046, k = 1.650587
        11        12     1        0.139619   365954.387402    ;  uncertainty r = 0.000008, k = 1.292992
        11        17     1        0.139616   371124.732715    ;  uncertainty r = 0.000020, k = 1.036768
        11        30     1        0.108853   334096.639160    ;  uncertainty r = 0.000011, k = 0.985251
        12        19     1        0.139806   351916.766064    ;  uncertainty r = 0.000010, k = 1.187834
        12        31     1        0.108853   333813.534766    ;  uncertainty r = 0.000015, k = 0.555194
        13        18     1        0.139619   365954.387402    ;  uncertainty r = 0.000008, k = 1.292992
        13        19     1        0.139806   351916.766064    ;  uncertainty r = 0.000010, k = 1.187834
        13        32     1        0.108853   333813.534766    ;  uncertainty r = 0.000015, k = 0.555194
        14        33     1        0.097118   460583.525195    ;  uncertainty r = 0.000045, k = 3.102113
        15        20     1        0.135563   598530.699805    ;  uncertainty r = 0.000139, k = 9.101913
        15        22     1        0.139244   503022.932227    ;  uncertainty r = 0.000156, k = 11.982701
        16        20     1        0.134248   427021.200439    ;  uncertainty r = 0.000126, k = 12.560964
        16        21     1        0.133902   409960.291797    ;  uncertainty r = 0.000038, k = 12.892596
        16        34     1        0.108823   332455.624512    ;  uncertainty r = 0.000016, k = 3.398046
        17        18     1        0.139616   371124.758252    ;  uncertainty r = 0.000020, k = 1.036768
        17        35     1        0.108851   334582.457129    ;  uncertainty r = 0.000012, k = 0.680670
        18        36     1        0.108853   334096.639160    ;  uncertainty r = 0.000011, k = 0.985251
        22        37     1        0.101725   420522.644531    ;  uncertainty r = 0.000069, k = 3.098785
        39        40     1        0.140130   251120.084375    ;  uncertainty r = 0.000145, k = 11.565339
        40        41     1        0.109556   312639.134082    ;  uncertainty r = 0.000048, k = 3.402624
        40        42     1        0.109556   312639.134082    ;  uncertainty r = 0.000048, k = 3.402624
        40        43     1        0.151827   208413.903931    ;  uncertainty r = 0.000160, k = 5.510606
        43        44     1        0.134830   295973.514355    ;  uncertainty r = 0.000096, k = 4.645649
        43        45     1        0.134830   295973.514355    ;  uncertainty r = 0.000096, k = 4.645649
        43        46     1        0.134830   295973.514355    ;  uncertainty r = 0.000096, k = 4.645649

[ angles ]
;       ai        aj        ak funct           theta             cth
         1         2         4     1      121.269211      480.878677    ;  uncertainty theta = 0.002296, k = 0.120486
         1         2        23     1      119.509445      261.106425    ;  uncertainty theta = 0.003906, k = 0.095700
         1         3         5     1      121.636208      520.705331    ;  uncertainty theta = 0.002127, k = 0.075654
         1         3        24     1      118.109299      267.017085    ;  uncertainty theta = 0.003706, k = 0.135175
         1         7         8     1      121.226707      397.772049    ;  uncertainty theta = 0.005937, k = 0.194624
         1         7        21     1      118.120644      475.436304    ;  uncertainty theta = 0.004647, k = 0.124749
         2         1         3     1      121.108536      431.448441    ;  uncertainty theta = 0.001795, k = 0.095542
         2         1         7     1      117.638588      394.493116    ;  uncertainty theta = 0.003399, k = 0.115916
         2         4         6     1      123.845665      363.313071    ;  uncertainty theta = 0.005228, k = 0.115257
         2         4        38     1      119.115028      508.306873    ;  uncertainty theta = 0.003001, k = 0.133772
         3         1         7     1      118.390091      398.839181    ;  uncertainty theta = 0.002570, k = 0.125703
         3         5         6     1      121.536949      513.685914    ;  uncertainty theta = 0.002472, k = 0.081975
         3         5        25     1      120.546608      280.057243    ;  uncertainty theta = 0.000970, k = 0.062507
         4         2        23     1      119.375687      283.353318    ;  uncertainty theta = 0.001689, k = 0.087698
         4         6         5     1      119.483055      340.920314    ;  uncertainty theta = 0.003147, k = 0.183362
         4         6        39     1      117.882675      373.784435    ;  uncertainty theta = 0.004046, k = 0.121555
         5         3        24     1      120.064468      285.500637    ;  uncertainty theta = 0.003071, k = 0.063392
         5         6        39     1      121.752769      431.533640    ;  uncertainty theta = 0.002951, k = 0.111436
         6         4        38     1      117.146523      483.202362    ;  uncertainty theta = 0.003630, k = 0.111964
         6         5        25     1      117.716591      272.242887    ;  uncertainty theta = 0.002081, k = 0.072794
         6        39        40     1      110.058182      498.005905    ;  uncertainty theta = 0.005030, k = 0.092574
         7         8        15     1      117.328995      473.468478    ;  uncertainty theta = 0.006490, k = 0.278543
         7         8        26     1      122.083511      274.806111    ;  uncertainty theta = 0.001872, k = 0.170102
         7        21        16     1      114.127907      410.698934    ;  uncertainty theta = 0.005161, k = 0.196602
         8         7        21     1      121.890884      595.728666    ;  uncertainty theta = 0.004047, k = 0.118861
         8        15        20     1      120.465775      559.577504    ;  uncertainty theta = 0.004274, k = 0.131688
         8        15        22     1      124.405197      635.166262    ;  uncertainty theta = 0.005407, k = 0.116906
         9        10        14     1      108.648598      745.773101    ;  uncertainty theta = 0.001850, k = 0.090465
         9        10        19     1      111.675133      529.233800    ;  uncertainty theta = 0.002433, k = 0.102801
         9        10        29     1      107.655739      397.413157    ;  uncertainty theta = 0.001835, k = 0.063660
         9        22        15     1      115.022720      415.197008    ;  uncertainty theta = 0.003932, k = 0.139541
         9        22        37     1      111.930687      338.512452    ;  uncertainty theta = 0.006639, k = 0.093922
        10         9        22     1      109.072731      588.135334    ;  uncertainty theta = 0.003588, k = 0.076167
        10         9        27     1      108.264954      386.766225    ;  uncertainty theta = 0.001128, k = 0.087129
        10         9        28     1      108.264954      386.766225    ;  uncertainty theta = 0.001128, k = 0.087129
        10        14        33     1      107.778908      462.824962    ;  uncertainty theta = 0.002314, k = 0.060682
        10        19        12     1      119.990318      398.450314    ;  uncertainty theta = 0.001704, k = 0.122614
        10        19        13     1      119.990318      398.450314    ;  uncertainty theta = 0.001704, k = 0.122614
        11        12        19     1      120.930702      517.466172    ;  uncertainty theta = 0.001222, k = 0.047814
        11        12        31     1      120.258339      291.729553    ;  uncertainty theta = 0.002156, k = 0.015437
        11        17        18     1      118.312904      525.474865    ;  uncertainty theta = 0.001259, k = 0.033725
        11        17        35     1      120.606750      289.256635    ;  uncertainty theta = 0.001707, k = 0.007155
        12        11        17     1      119.668961      514.607037    ;  uncertainty theta = 0.000852, k = 0.027695
        12        11        30     1      120.182228      283.193264    ;  uncertainty theta = 0.001483, k = 0.023123
        12        19        13     1      120.620529      467.609435    ;  uncertainty theta = 0.001046, k = 0.044080
        13        18        17     1      119.668961      514.607037    ;  uncertainty theta = 0.000852, k = 0.027695
        13        18        36     1      120.182228      283.193264    ;  uncertainty theta = 0.001483, k = 0.023123
        14        10        19     1      111.132469      757.316130    ;  uncertainty theta = 0.001813, k = 0.056225
        14        10        29     1      107.460892      475.171803    ;  uncertainty theta = 0.003128, k = 0.059555
        15         8        26     1      122.820290      279.161624    ;  uncertainty theta = 0.002177, k = 0.088284
        15        20        16     1      114.208336      402.225401    ;  uncertainty theta = 0.007184, k = 0.116286
        15        22        37     1      114.952065      412.285969    ;  uncertainty theta = 0.001414, k = 0.081088
        17        11        30     1      120.593102      287.981121    ;  uncertainty theta = 0.001462, k = 0.008017
        17        18        36     1      120.593102      287.981121    ;  uncertainty theta = 0.001462, k = 0.008017
        18        13        19     1      120.930702      517.466172    ;  uncertainty theta = 0.001222, k = 0.047814
        18        13        32     1      120.258339      291.729553    ;  uncertainty theta = 0.002156, k = 0.015437
        18        17        35     1      120.606750      289.256635    ;  uncertainty theta = 0.001707, k = 0.007155
        19        10        29     1      107.338806      403.998379    ;  uncertainty theta = 0.003013, k = 0.110102
        19        12        31     1      118.778320      265.740150    ;  uncertainty theta = 0.001504, k = 0.035529
        19        13        32     1      118.778320      265.740150    ;  uncertainty theta = 0.001504, k = 0.035529
        20        15        22     1      122.203979      876.041727    ;  uncertainty theta = 0.006036, k = 0.092665
        20        16        21     1      127.365524      928.346068    ;  uncertainty theta = 0.002641, k = 0.109018
        20        16        34     1      115.958923      303.662406    ;  uncertainty theta = 0.004108, k = 0.062101
        21        16        34     1      116.290024      310.582675    ;  uncertainty theta = 0.004161, k = 0.066237
        22         9        27     1      106.848366      448.950650    ;  uncertainty theta = 0.001286, k = 0.079205
        22         9        28     1      106.848366      448.950650    ;  uncertainty theta = 0.001286, k = 0.079205
        27         9        28     1      106.681496      323.153860    ;  uncertainty theta = 0.001150, k = 0.024224
        39        40        41     1      108.292496      419.385413    ;  uncertainty theta = 0.002046, k = 0.029252
        39        40        42     1      108.292496      419.385413    ;  uncertainty theta = 0.002046, k = 0.029252
        39        40        43     1      103.349411      469.662874    ;  uncertainty theta = 0.006332, k = 0.164914
        40        43        44     1      113.186096      596.132408    ;  uncertainty theta = 0.004678, k = 0.084288
        40        43        45     1      113.186096      596.132408    ;  uncertainty theta = 0.004678, k = 0.084288
        40        43        46     1      113.186096      596.132408    ;  uncertainty theta = 0.004678, k = 0.084288
        41        40        42     1      109.487770      327.020881    ;  uncertainty theta = 0.003479, k = 0.073422
        41        40        43     1      108.465355      418.321186    ;  uncertainty theta = 0.002526, k = 0.104743
        42        40        43     1      108.465355      418.321186    ;  uncertainty theta = 0.002526, k = 0.104743
        44        43        45     1      108.995239      785.738677    ;  uncertainty theta = 0.002526, k = 0.016591
        44        43        46     1      108.995239      785.738677    ;  uncertainty theta = 0.002526, k = 0.016591
        45        43        46     1      108.995239      785.738677    ;  uncertainty theta = 0.002526, k = 0.016591

[ dihedrals ] ; propers for gromacs 4.5 or higher, use funct 9
;       ai        aj        ak        al funct           phase               k        pn
         1         2         4         6     9        0.000000        0.048451         1    ;  uncertainty k = 0.157809
         1         2         4         6     9      180.000000        8.216779         2    ;  uncertainty k = 0.548863
         1         2         4         6     9        0.000000        0.478490         3    ;  uncertainty k = 0.361497
         1         2         4         6     9      180.000000        1.359520         4    ;  uncertainty k = 0.333737
         1         2         4        38     9        0.000000       -0.084058         1    ;  uncertainty k = 0.173047
         1         2         4        38     9      180.000000       12.863638         2    ;  uncertainty k = 0.413174
         1         2         4        38     9        0.000000        1.491619         3    ;  uncertainty k = 0.303248
         1         2         4        38     9      180.000000        1.544350         4    ;  uncertainty k = 0.133394
         1         3         5         6     9        0.000000       -0.079604         1    ;  uncertainty k = 0.245789
         1         3         5         6     9      180.000000       12.719520         2    ;  uncertainty k = 0.338235
         1         3         5         6     9        0.000000       -0.604597         3    ;  uncertainty k = 0.348660
         1         3         5         6     9      180.000000        0.991098         4    ;  uncertainty k = 0.293265
         1         3         5        25     9        0.000000        0.077642         1    ;  uncertainty k = 0.153250
         1         3         5        25     9      180.000000        7.859323         2    ;  uncertainty k = 0.327983
         1         3         5        25     9        0.000000        1.429487         3    ;  uncertainty k = 0.234782
         1         3         5        25     9      180.000000        1.869427         4    ;  uncertainty k = 0.123516
         1         7         8        15     9        0.000000       -0.218037         1    ;  uncertainty k = 0.559552
         1         7         8        15     9      180.000000        7.749169         2    ;  uncertainty k = 0.933085
         1         7         8        15     9        0.000000        0.709417         3    ;  uncertainty k = 0.296926
         1         7         8        15     9      180.000000        1.144349         4    ;  uncertainty k = 0.361213
         1         7         8        26     9        0.000000       -0.160197         1    ;  uncertainty k = 1.018472
         1         7         8        26     9      180.000000        6.865991         2    ;  uncertainty k = 0.425331
         1         7         8        26     9        0.000000        0.726845         3    ;  uncertainty k = 0.295950
         1         7         8        26     9      180.000000        0.956034         4    ;  uncertainty k = 0.206808
         1         7        21        16     9        0.000000        0.063062         1    ;  uncertainty k = 0.569674
         1         7        21        16     9      180.000000       14.612747         2    ;  uncertainty k = 0.390858
         1         7        21        16     9        0.000000        2.116062         3    ;  uncertainty k = 0.297392
         1         7        21        16     9      180.000000        1.579391         4    ;  uncertainty k = 0.446106
         2         1         3         5     9        0.000000       -0.001292         1    ;  uncertainty k = 0.052647
         2         1         3         5     9      180.000000       11.487920         2    ;  uncertainty k = 0.266975
         2         1         3         5     9        0.000000       -0.711659         3    ;  uncertainty k = 0.335005
         2         1         3         5     9      180.000000        0.903684         4    ;  uncertainty k = 0.278265
         2         1         3        24     9        0.000000        0.106974         1    ;  uncertainty k = 0.155305
         2         1         3        24     9      180.000000        6.987569         2    ;  uncertainty k = 0.484776
         2         1         3        24     9        0.000000        1.337077         3    ;  uncertainty k = 0.240512
         2         1         3        24     9      180.000000        1.624880         4    ;  uncertainty k = 0.224443
         2         1         7         8     9        0.000000       -0.243092         1    ;  uncertainty k = 0.562025
         2         1         7         8     9      180.000000        3.969440         2    ;  uncertainty k = 0.294718
         2         1         7         8     9        0.000000        0.467937         3    ;  uncertainty k = 0.180815
         2         1         7         8     9      180.000000       -0.102408         4    ;  uncertainty k = 0.052546
         2         1         7        21     9        0.000000        0.967663         1    ;  uncertainty k = 0.592102
         2         1         7        21     9      180.000000        5.354939         2    ;  uncertainty k = 0.188906
         2         1         7        21     9        0.000000        0.626323         3    ;  uncertainty k = 0.180778
         2         1         7        21     9      180.000000        0.120456         4    ;  uncertainty k = 0.054046
         2         4         6         5     9        0.000000       -0.160645         1    ;  uncertainty k = 0.503934
         2         4         6         5     9      180.000000        5.617816         2    ;  uncertainty k = 1.199311
         2         4         6         5     9        0.000000        0.317729         3    ;  uncertainty k = 0.257070
         2         4         6         5     9      180.000000        1.268931         4    ;  uncertainty k = 0.292239
         2         4         6        39     9        0.000000        0.228184         1    ;  uncertainty k = 0.187780
         2         4         6        39     9      180.000000        7.747433         2    ;  uncertainty k = 0.433866
         2         4         6        39     9        0.000000        1.258493         3    ;  uncertainty k = 0.222162
         2         4         6        39     9      180.000000        1.668489         4    ;  uncertainty k = 0.108769
         3         1         2         4     9        0.000000        0.197302         1    ;  uncertainty k = 0.101303
         3         1         2         4     9      180.000000       10.904937         2    ;  uncertainty k = 0.315815
         3         1         2         4     9        0.000000       -0.473940         3    ;  uncertainty k = 0.309697
         3         1         2         4     9      180.000000        1.028495         4    ;  uncertainty k = 0.320972
         3         1         2        23     9        0.000000        0.209271         1    ;  uncertainty k = 0.159440
         3         1         2        23     9      180.000000        6.732795         2    ;  uncertainty k = 0.420662
         3         1         2        23     9        0.000000        1.348480         3    ;  uncertainty k = 0.228854
         3         1         2        23     9      180.000000        1.626608         4    ;  uncertainty k = 0.250572
         3         1         7         8     9        0.000000       -0.425712         1    ;  uncertainty k = 0.583709
         3         1         7         8     9      180.000000        3.956512         2    ;  uncertainty k = 0.238695
         3         1         7         8     9        0.000000        0.484590         3    ;  uncertainty k = 0.153229
         3         1         7         8     9      180.000000       -0.125899         4    ;  uncertainty k = 0.051048
         3         1         7        21     9        0.000000        1.404693         1    ;  uncertainty k = 0.602695
         3         1         7        21     9      180.000000        5.134273         2    ;  uncertainty k = 0.103700
         3         1         7        21     9        0.000000        0.590996         3    ;  uncertainty k = 0.178322
         3         1         7        21     9      180.000000        0.104296         4    ;  uncertainty k = 0.031481
         3         5         6         4     9        0.000000        0.045981         1    ;  uncertainty k = 0.142822
         3         5         6         4     9      180.000000        8.626858         2    ;  uncertainty k = 0.542470
         3         5         6         4     9        0.000000        0.277629         3    ;  uncertainty k = 0.349857
         3         5         6         4     9      180.000000        1.389230         4    ;  uncertainty k = 0.270656
         3         5         6        39     9        0.000000       -0.026992         1    ;  uncertainty k = 0.337944
         3         5         6        39     9      180.000000       10.954610         2    ;  uncertainty k = 0.384692
         3         5         6        39     9        0.000000        1.329290         3    ;  uncertainty k = 0.203879
         3         5         6        39     9      180.000000        1.696639         4    ;  uncertainty k = 0.182506
         4         2         1         7     9        0.000000        0.293323         1    ;  uncertainty k = 0.225868
         4         2         1         7     9      180.000000        8.480773         2    ;  uncertainty k = 0.394091
         4         2         1         7     9        0.000000        1.290374         3    ;  uncertainty k = 0.329075
         4         2         1         7     9      180.000000        1.739086         4    ;  uncertainty k = 0.073174
         4         6         5        25     9        0.000000        0.097003         1    ;  uncertainty k = 0.301537
         4         6         5        25     9      180.000000        6.086230         2    ;  uncertainty k = 0.619515
         4         6         5        25     9        0.000000        1.366039         3    ;  uncertainty k = 0.315428
         4         6         5        25     9      180.000000        1.648062         4    ;  uncertainty k = 0.179948
         4         6        39        40     9        0.000000        0.914637         1    ;  uncertainty k = 0.494898
         4         6        39        40     9      180.000000        5.057626         2    ;  uncertainty k = 0.135866
         4         6        39        40     9        0.000000        0.872837         3    ;  uncertainty k = 0.219342
         4         6        39        40     9      180.000000        0.043561         4    ;  uncertainty k = 0.115860
         5         3         1         7     9        0.000000        0.304853         1    ;  uncertainty k = 0.532738
         5         3         1         7     9      180.000000        8.987509         2    ;  uncertainty k = 0.542465
         5         3         1         7     9        0.000000        1.210999         3    ;  uncertainty k = 0.237045
         5         3         1         7     9      180.000000        1.791053         4    ;  uncertainty k = 0.182084
         5         6         4        38     9        0.000000        0.272764         1    ;  uncertainty k = 0.243532
         5         6         4        38     9      180.000000        8.472918         2    ;  uncertainty k = 0.479155
         5         6         4        38     9        0.000000        1.372871         3    ;  uncertainty k = 0.282171
         5         6         4        38     9      180.000000        1.704800         4    ;  uncertainty k = 0.190690
         5         6        39        40     9        0.000000        0.992876         1    ;  uncertainty k = 0.502298
         5         6        39        40     9      180.000000        5.838822         2    ;  uncertainty k = 0.127148
         5         6        39        40     9        0.000000        0.241423         3    ;  uncertainty k = 0.229461
         5         6        39        40     9      180.000000        0.076021         4    ;  uncertainty k = 0.107104
         6         4         2        23     9        0.000000       -0.063102         1    ;  uncertainty k = 0.124203
         6         4         2        23     9      180.000000        5.928786         2    ;  uncertainty k = 0.702509
         6         4         2        23     9        0.000000        1.224560         3    ;  uncertainty k = 0.348356
         6         4         2        23     9      180.000000        1.568119         4    ;  uncertainty k = 0.102359
         6         5         3        24     9        0.000000       -0.001342         1    ;  uncertainty k = 0.254238
         6         5         3        24     9      180.000000        7.572633         2    ;  uncertainty k = 0.341407
         6         5         3        24     9        0.000000        1.260558         3    ;  uncertainty k = 0.240374
         6         5         3        24     9      180.000000        1.781111         4    ;  uncertainty k = 0.108867
         6        39        40        41     9        0.000000        1.114510         1    ;  uncertainty k = 0.275546
         6        39        40        41     9      180.000000       -0.897031         2    ;  uncertainty k = 0.303019
         6        39        40        41     9        0.000000        0.593190         3    ;  uncertainty k = 0.141199
         6        39        40        41     9      180.000000        0.206147         4    ;  uncertainty k = 0.056330
         6        39        40        42     9        0.000000        1.114510         1    ;  uncertainty k = 0.275546
         6        39        40        42     9      180.000000       -0.897031         2    ;  uncertainty k = 0.303019
         6        39        40        42     9        0.000000        0.593190         3    ;  uncertainty k = 0.141199
         6        39        40        42     9      180.000000        0.206147         4    ;  uncertainty k = 0.056330
         6        39        40        43     9        0.000000       -1.351839         1    ;  uncertainty k = 0.266644
         6        39        40        43     9      180.000000       -2.898769         2    ;  uncertainty k = 0.286782
         6        39        40        43     9        0.000000       -0.002291         3    ;  uncertainty k = 0.372933
         6        39        40        43     9      180.000000        0.360236         4    ;  uncertainty k = 0.295488
         7         1         2        23     9        0.000000       -0.385595         1    ;  uncertainty k = 0.419136
         7         1         2        23     9      180.000000        7.050043         2    ;  uncertainty k = 0.241195
         7         1         2        23     9        0.000000        0.687319         3    ;  uncertainty k = 0.120355
         7         1         2        23     9      180.000000        1.131239         4    ;  uncertainty k = 0.126955
         7         1         3        24     9        0.000000       -0.362850         1    ;  uncertainty k = 0.423532
         7         1         3        24     9      180.000000        7.241175         2    ;  uncertainty k = 0.329612
         7         1         3        24     9        0.000000        0.719339         3    ;  uncertainty k = 0.077738
         7         1         3        24     9      180.000000        1.138028         4    ;  uncertainty k = 0.057999
         7         8        15        20     9        0.000000       -0.506323         1    ;  uncertainty k = 0.435360
         7         8        15        20     9      180.000000        7.806488         2    ;  uncertainty k = 0.787850
         7         8        15        20     9        0.000000       -0.901239         3    ;  uncertainty k = 0.557189
         7         8        15        20     9      180.000000        1.182365         4    ;  uncertainty k = 0.313612
         7         8        15        22     9        0.000000       -0.971667         1    ;  uncertainty k = 0.773323
         7         8        15        22     9      180.000000        6.410240         2    ;  uncertainty k = 0.453743
         7         8        15        22     9        0.000000        0.062002         3    ;  uncertainty k = 0.333549
         7         8        15        22     9      180.000000        0.900964         4    ;  uncertainty k = 0.181112
         7        21        16        20     9        0.000000       -0.838040         1    ;  uncertainty k = 0.630002
         7        21        16        20     9      180.000000       16.491671         2    ;  uncertainty k = 0.367983
         7        21        16        20     9        0.000000        0.117143         3    ;  uncertainty k = 0.588350
         7        21        16        20     9      180.000000        1.174211         4    ;  uncertainty k = 0.277030
         7        21        16        34     9        0.000000       -0.417337         1    ;  uncertainty k = 0.440678
         7        21        16        34     9      180.000000       12.399687         2    ;  uncertainty k = 0.411943
         7        21        16        34     9        0.000000        1.723889         3    ;  uncertainty k = 0.672603
         7        21        16        34     9      180.000000        1.276809         4    ;  uncertainty k = 0.432440
         8         7        21        16     9        0.000000       -0.268663         1    ;  uncertainty k = 0.862005
         8         7        21        16     9      180.000000       13.375183         2    ;  uncertainty k = 0.526105
         8         7        21        16     9        0.000000        0.284937         3    ;  uncertainty k = 0.983711
         8         7        21        16     9      180.000000        1.131327         4    ;  uncertainty k = 0.379372
         8        15        20        16     9        0.000000       -0.350078         1    ;  uncertainty k = 0.812325
         8        15        20        16     9      180.000000        9.930014         2    ;  uncertainty k = 0.557509
         8        15        20        16     9        0.000000        0.516622         3    ;  uncertainty k = 0.789553
         8        15        20        16     9      180.000000        1.058186         4    ;  uncertainty k = 0.142047
         8        15        22         9     9        0.000000        5.603689         1    ;  uncertainty k = 0.487731
         8        15        22         9     9      180.000000        9.173858         2    ;  uncertainty k = 0.234225
         8        15        22         9     9        0.000000        0.682452         3    ;  uncertainty k = 0.250442
         8        15        22         9     9      180.000000       -0.440404         4    ;  uncertainty k = 0.169398
         8        15        22        37     9        0.000000        4.297370         1    ;  uncertainty k = 0.414563
         8        15        22        37     9      180.000000        7.947808         2    ;  uncertainty k = 0.147068
         8        15        22        37     9        0.000000        1.249630         3    ;  uncertainty k = 0.211856
         8        15        22        37     9      180.000000       -0.412992         4    ;  uncertainty k = 0.196225
         9        10        14        33     9        0.000000       16.539194         1    ;  uncertainty k = 0.182172
         9        10        14        33     9      180.000000       -3.181446         2    ;  uncertainty k = 0.394315
         9        10        14        33     9        0.000000        1.050863         3    ;  uncertainty k = 0.081907
         9        10        14        33     9      180.000000        0.368805         4    ;  uncertainty k = 0.156069
         9        10        19        12     9        0.000000       -0.273818         1    ;  uncertainty k = 0.106175
         9        10        19        12     9      180.000000        2.079481         2    ;  uncertainty k = 0.182501
         9        10        19        12     9        0.000000        0.512262         3    ;  uncertainty k = 0.147544
         9        10        19        12     9      180.000000        0.343982         4    ;  uncertainty k = 0.021980
         9        10        19        13     9        0.000000       -0.273818         1    ;  uncertainty k = 0.106175
         9        10        19        13     9      180.000000        2.079481         2    ;  uncertainty k = 0.182501
         9        10        19        13     9        0.000000        0.512262         3    ;  uncertainty k = 0.147544
         9        10        19        13     9      180.000000        0.343982         4    ;  uncertainty k = 0.021980
         9        22        15        20     9        0.000000        8.533711         1    ;  uncertainty k = 0.435190
         9        22        15        20     9      180.000000       12.802851         2    ;  uncertainty k = 0.140763
         9        22        15        20     9        0.000000        1.500694         3    ;  uncertainty k = 0.229157
         9        22        15        20     9      180.000000       -0.498831         4    ;  uncertainty k = 0.087310
        10         9        22        15     9        0.000000       -0.181203         1    ;  uncertainty k = 0.437855
        10         9        22        15     9      180.000000       -0.656643         2    ;  uncertainty k = 0.612261
        10         9        22        15     9        0.000000        0.233868         3    ;  uncertainty k = 0.313268
        10         9        22        15     9      180.000000        0.414120         4    ;  uncertainty k = 0.035681
        10         9        22        37     9        0.000000        3.680901         1    ;  uncertainty k = 0.713382
        10         9        22        37     9      180.000000       -3.627771         2    ;  uncertainty k = 0.381036
        10         9        22        37     9        0.000000        0.657609         3    ;  uncertainty k = 0.120801
        10         9        22        37     9      180.000000       -0.046604         4    ;  uncertainty k = 0.144754
        10        19        12        11     9        0.000000        0.277494         1    ;  uncertainty k = 0.259279
        10        19        12        11     9      180.000000        9.380655         2    ;  uncertainty k = 0.580889
        10        19        12        11     9        0.000000        1.260903         3    ;  uncertainty k = 0.297020
        10        19        12        11     9      180.000000        1.849205         4    ;  uncertainty k = 0.223533
        10        19        12        31     9        0.000000       -0.044601         1    ;  uncertainty k = 0.495487
        10        19        12        31     9      180.000000        7.557641         2    ;  uncertainty k = 0.152609
        10        19        12        31     9        0.000000        0.648505         3    ;  uncertainty k = 0.330112
        10        19        12        31     9      180.000000        0.986671         4    ;  uncertainty k = 0.169058
        10        19        13        18     9        0.000000        0.277494         1    ;  uncertainty k = 0.259279
        10        19        13        18     9      180.000000        9.380655         2    ;  uncertainty k = 0.580889
        10        19        13        18     9        0.000000        1.260903         3    ;  uncertainty k = 0.297020
        10        19        13        18     9      180.000000        1.849205         4    ;  uncertainty k = 0.223533
        10        19        13        32     9        0.000000       -0.044601         1    ;  uncertainty k = 0.495487
        10        19        13        32     9      180.000000        7.557641         2    ;  uncertainty k = 0.152609
        10        19        13        32     9        0.000000        0.648505         3    ;  uncertainty k = 0.330112
        10        19        13        32     9      180.000000        0.986671         4    ;  uncertainty k = 0.169058
        11        12        19        13     9        0.000000       -0.165953         1    ;  uncertainty k = 0.169992
        11        12        19        13     9      180.000000       11.757607         2    ;  uncertainty k = 0.401729
        11        12        19        13     9        0.000000       -0.505821         3    ;  uncertainty k = 0.348703
        11        12        19        13     9      180.000000        0.798513         4    ;  uncertainty k = 0.397673
        11        17        18        13     9        0.000000       -0.003189         1    ;  uncertainty k = 0.038440
        11        17        18        13     9      180.000000       15.016788         2    ;  uncertainty k = 0.249663
        11        17        18        13     9        0.000000       -1.210513         3    ;  uncertainty k = 0.492875
        11        17        18        13     9      180.000000        0.498916         4    ;  uncertainty k = 0.293179
        11        17        18        36     9        0.000000        0.038009         1    ;  uncertainty k = 0.035822
        11        17        18        36     9      180.000000        7.549305         2    ;  uncertainty k = 0.334350
        11        17        18        36     9        0.000000        1.438249         3    ;  uncertainty k = 0.318741
        11        17        18        36     9      180.000000        1.792783         4    ;  uncertainty k = 0.163179
        12        11        17        18     9        0.000000       -0.003189         1    ;  uncertainty k = 0.038440
        12        11        17        18     9      180.000000       15.016788         2    ;  uncertainty k = 0.249663
        12        11        17        18     9        0.000000       -1.210513         3    ;  uncertainty k = 0.492875
        12        11        17        18     9      180.000000        0.498916         4    ;  uncertainty k = 0.293179
        12        11        17        35     9        0.000000        0.056378         1    ;  uncertainty k = 0.091793
        12        11        17        35     9      180.000000        7.450064         2    ;  uncertainty k = 0.356222
        12        11        17        35     9        0.000000        1.472207         3    ;  uncertainty k = 0.287391
        12        11        17        35     9      180.000000        1.800180         4    ;  uncertainty k = 0.190036
        12        19        10        14     9        0.000000       -1.453975         1    ;  uncertainty k = 0.447986
        12        19        10        14     9      180.000000        3.360421         2    ;  uncertainty k = 0.198780
        12        19        10        14     9        0.000000        0.848407         3    ;  uncertainty k = 0.189850
        12        19        10        14     9      180.000000        0.435805         4    ;  uncertainty k = 0.036604
        12        19        10        29     9        0.000000       -0.600193         1    ;  uncertainty k = 0.218608
        12        19        10        29     9      180.000000        1.966965         2    ;  uncertainty k = 0.154440
        12        19        10        29     9        0.000000        0.553661         3    ;  uncertainty k = 0.127024
        12        19        10        29     9      180.000000        0.313797         4    ;  uncertainty k = 0.019730
        12        19        13        18     9        0.000000       -0.165953         1    ;  uncertainty k = 0.169992
        12        19        13        18     9      180.000000       11.757607         2    ;  uncertainty k = 0.401729
        12        19        13        18     9        0.000000       -0.505821         3    ;  uncertainty k = 0.348703
        12        19        13        18     9      180.000000        0.798513         4    ;  uncertainty k = 0.397673
        12        19        13        32     9        0.000000        0.131870         1    ;  uncertainty k = 0.167883
        12        19        13        32     9      180.000000        7.224544         2    ;  uncertainty k = 0.567570
        12        19        13        32     9        0.000000        1.415746         3    ;  uncertainty k = 0.327246
        12        19        13        32     9      180.000000        1.668075         4    ;  uncertainty k = 0.170613
        13        18        17        35     9        0.000000        0.056378         1    ;  uncertainty k = 0.091793
        13        18        17        35     9      180.000000        7.450064         2    ;  uncertainty k = 0.356222
        13        18        17        35     9        0.000000        1.472207         3    ;  uncertainty k = 0.287391
        13        18        17        35     9      180.000000        1.800180         4    ;  uncertainty k = 0.190036
        13        19        10        14     9        0.000000       -1.453975         1    ;  uncertainty k = 0.447986
        13        19        10        14     9      180.000000        3.360421         2    ;  uncertainty k = 0.198780
        13        19        10        14     9        0.000000        0.848407         3    ;  uncertainty k = 0.189850
        13        19        10        14     9      180.000000        0.435805         4    ;  uncertainty k = 0.036604
        13        19        10        29     9        0.000000       -0.600193         1    ;  uncertainty k = 0.218608
        13        19        10        29     9      180.000000        1.966965         2    ;  uncertainty k = 0.154440
        13        19        10        29     9        0.000000        0.553661         3    ;  uncertainty k = 0.127024
        13        19        10        29     9      180.000000        0.313797         4    ;  uncertainty k = 0.019730
        13        19        12        31     9        0.000000        0.131870         1    ;  uncertainty k = 0.167883
        13        19        12        31     9      180.000000        7.224544         2    ;  uncertainty k = 0.567570
        13        19        12        31     9        0.000000        1.415746         3    ;  uncertainty k = 0.327246
        13        19        12        31     9      180.000000        1.668075         4    ;  uncertainty k = 0.170613
        14        10         9        22     9        0.000000       -0.052607         1    ;  uncertainty k = 0.764083
        14        10         9        22     9      180.000000       -0.749437         2    ;  uncertainty k = 0.395318
        14        10         9        22     9        0.000000        1.713416         3    ;  uncertainty k = 0.321039
        14        10         9        22     9      180.000000       -0.561414         4    ;  uncertainty k = 0.195159
        14        10         9        27     9        0.000000       -1.242394         1    ;  uncertainty k = 0.559340
        14        10         9        27     9      180.000000       -0.234284         2    ;  uncertainty k = 0.168601
        14        10         9        27     9        0.000000        1.039378         3    ;  uncertainty k = 0.150261
        14        10         9        27     9      180.000000       -0.102798         4    ;  uncertainty k = 0.150575
        14        10         9        28     9        0.000000       -1.242394         1    ;  uncertainty k = 0.559340
        14        10         9        28     9      180.000000       -0.234284         2    ;  uncertainty k = 0.168601
        14        10         9        28     9        0.000000        1.039378         3    ;  uncertainty k = 0.150261
        14        10         9        28     9      180.000000       -0.102798         4    ;  uncertainty k = 0.150575
        15         8         7        21     9        0.000000       -0.233188         1    ;  uncertainty k = 0.469519
        15         8         7        21     9      180.000000       12.656979         2    ;  uncertainty k = 0.533111
        15         8         7        21     9        0.000000       -1.107037         3    ;  uncertainty k = 0.683368
        15         8         7        21     9      180.000000        1.025170         4    ;  uncertainty k = 0.331308
        15        20        16        21     9        0.000000       -0.727031         1    ;  uncertainty k = 1.154526
        15        20        16        21     9      180.000000       15.842485         2    ;  uncertainty k = 0.398145
        15        20        16        21     9        0.000000       -0.257081         3    ;  uncertainty k = 0.319591
        15        20        16        21     9      180.000000        0.992483         4    ;  uncertainty k = 0.176270
        15        20        16        34     9        0.000000       -0.392488         1    ;  uncertainty k = 0.864220
        15        20        16        34     9      180.000000       12.489467         2    ;  uncertainty k = 0.378782
        15        20        16        34     9        0.000000        1.355690         3    ;  uncertainty k = 0.760379
        15        20        16        34     9      180.000000        0.853020         4    ;  uncertainty k = 0.299132
        15        22         9        27     9        0.000000       -1.147632         1    ;  uncertainty k = 0.263721
        15        22         9        27     9      180.000000       -0.482322         2    ;  uncertainty k = 0.302946
        15        22         9        27     9        0.000000        0.226739         3    ;  uncertainty k = 0.211259
        15        22         9        27     9      180.000000        0.248702         4    ;  uncertainty k = 0.013743
        15        22         9        28     9        0.000000       -1.147632         1    ;  uncertainty k = 0.263721
        15        22         9        28     9      180.000000       -0.482322         2    ;  uncertainty k = 0.302946
        15        22         9        28     9        0.000000        0.226739         3    ;  uncertainty k = 0.211259
        15        22         9        28     9      180.000000        0.248702         4    ;  uncertainty k = 0.013743
        16        20        15        22     9        0.000000       -0.152560         1    ;  uncertainty k = 1.153662
        16        20        15        22     9      180.000000       12.736509         2    ;  uncertainty k = 0.218695
        16        20        15        22     9        0.000000        2.232715         3    ;  uncertainty k = 0.423520
        16        20        15        22     9      180.000000        1.585263         4    ;  uncertainty k = 0.416482
        17        11        12        19     9        0.000000       -0.091981         1    ;  uncertainty k = 0.109878
        17        11        12        19     9      180.000000       13.825977         2    ;  uncertainty k = 0.203920
        17        11        12        19     9        0.000000       -0.976820         3    ;  uncertainty k = 0.497977
        17        11        12        19     9      180.000000        0.702825         4    ;  uncertainty k = 0.246026
        17        11        12        31     9        0.000000        0.043151         1    ;  uncertainty k = 0.053762
        17        11        12        31     9      180.000000        7.853416         2    ;  uncertainty k = 0.298299
        17        11        12        31     9        0.000000        1.416969         3    ;  uncertainty k = 0.297576
        17        11        12        31     9      180.000000        1.844954         4    ;  uncertainty k = 0.168713
        17        18        13        19     9        0.000000       -0.091981         1    ;  uncertainty k = 0.109878
        17        18        13        19     9      180.000000       13.825977         2    ;  uncertainty k = 0.203920
        17        18        13        19     9        0.000000       -0.976820         3    ;  uncertainty k = 0.497977
        17        18        13        19     9      180.000000        0.702825         4    ;  uncertainty k = 0.246026
        17        18        13        32     9        0.000000        0.043151         1    ;  uncertainty k = 0.053762
        17        18        13        32     9      180.000000        7.853416         2    ;  uncertainty k = 0.298299
        17        18        13        32     9        0.000000        1.416969         3    ;  uncertainty k = 0.297576
        17        18        13        32     9      180.000000        1.844954         4    ;  uncertainty k = 0.168713
        18        17        11        30     9        0.000000        0.038009         1    ;  uncertainty k = 0.035822
        18        17        11        30     9      180.000000        7.549305         2    ;  uncertainty k = 0.334350
        18        17        11        30     9        0.000000        1.438249         3    ;  uncertainty k = 0.318741
        18        17        11        30     9      180.000000        1.792783         4    ;  uncertainty k = 0.163179
        19        10         9        22     9        0.000000       -2.195261         1    ;  uncertainty k = 0.395882
        19        10         9        22     9      180.000000       -0.031057         2    ;  uncertainty k = 0.681736
        19        10         9        22     9        0.000000        2.005161         3    ;  uncertainty k = 0.343930
        19        10         9        22     9      180.000000        0.115840         4    ;  uncertainty k = 0.059502
        19        10         9        27     9        0.000000       -0.032425         1    ;  uncertainty k = 0.325911
        19        10         9        27     9      180.000000        0.090710         2    ;  uncertainty k = 0.447956
        19        10         9        27     9        0.000000        0.614218         3    ;  uncertainty k = 0.070661
        19        10         9        27     9      180.000000       -0.058272         4    ;  uncertainty k = 0.097588
        19        10         9        28     9        0.000000       -0.032425         1    ;  uncertainty k = 0.325911
        19        10         9        28     9      180.000000        0.090710         2    ;  uncertainty k = 0.447956
        19        10         9        28     9        0.000000        0.614218         3    ;  uncertainty k = 0.070661
        19        10         9        28     9      180.000000       -0.058272         4    ;  uncertainty k = 0.097588
        19        10        14        33     9        0.000000       15.207439         1    ;  uncertainty k = 0.126759
        19        10        14        33     9      180.000000       -2.891249         2    ;  uncertainty k = 0.433974
        19        10        14        33     9        0.000000        1.036217         3    ;  uncertainty k = 0.050697
        19        10        14        33     9      180.000000        0.184126         4    ;  uncertainty k = 0.080140
        19        12        11        30     9        0.000000        0.047860         1    ;  uncertainty k = 0.232277
        19        12        11        30     9      180.000000        7.569870         2    ;  uncertainty k = 0.397811
        19        12        11        30     9        0.000000        1.467091         3    ;  uncertainty k = 0.255631
        19        12        11        30     9      180.000000        1.771465         4    ;  uncertainty k = 0.128664
        19        13        18        36     9        0.000000        0.047860         1    ;  uncertainty k = 0.232277
        19        13        18        36     9      180.000000        7.569870         2    ;  uncertainty k = 0.397811
        19        13        18        36     9        0.000000        1.467091         3    ;  uncertainty k = 0.255631
        19        13        18        36     9      180.000000        1.771465         4    ;  uncertainty k = 0.128664
        20        15         8        26     9        0.000000        0.249111         1    ;  uncertainty k = 0.450714
        20        15         8        26     9      180.000000        6.845142         2    ;  uncertainty k = 0.457090
        20        15         8        26     9        0.000000        1.342062         3    ;  uncertainty k = 0.374432
        20        15         8        26     9      180.000000        1.372476         4    ;  uncertainty k = 0.171953
        20        15        22        37     9        0.000000       12.912348         1    ;  uncertainty k = 0.293676
        20        15        22        37     9      180.000000        9.801748         2    ;  uncertainty k = 0.250858
        20        15        22        37     9        0.000000        0.647644         3    ;  uncertainty k = 0.160502
        20        15        22        37     9      180.000000       -0.317777         4    ;  uncertainty k = 0.163284
        21         7         8        26     9        0.000000        0.138804         1    ;  uncertainty k = 0.594173
        21         7         8        26     9      180.000000        9.235009         2    ;  uncertainty k = 0.467541
        21         7         8        26     9        0.000000        1.382381         3    ;  uncertainty k = 0.262412
        21         7         8        26     9      180.000000        1.571457         4    ;  uncertainty k = 0.158776
        22         9        10        29     9        0.000000       -0.572508         1    ;  uncertainty k = 0.377115
        22         9        10        29     9      180.000000       -0.600289         2    ;  uncertainty k = 0.341220
        22         9        10        29     9        0.000000        1.087420         3    ;  uncertainty k = 0.209284
        22         9        10        29     9      180.000000       -0.040588         4    ;  uncertainty k = 0.052009
        22        15         8        26     9        0.000000       -0.296826         1    ;  uncertainty k = 0.345651
        22        15         8        26     9      180.000000        5.479218         2    ;  uncertainty k = 0.647782
        22        15         8        26     9        0.000000        0.987843         3    ;  uncertainty k = 0.396911
        22        15         8        26     9      180.000000        0.695542         4    ;  uncertainty k = 0.197095
        23         2         4        38     9        0.000000       -0.251582         1    ;  uncertainty k = 0.291563
        23         2         4        38     9      180.000000        9.583048         2    ;  uncertainty k = 0.531166
        23         2         4        38     9        0.000000        0.849727         3    ;  uncertainty k = 0.160151
        23         2         4        38     9      180.000000        1.159674         4    ;  uncertainty k = 0.270692
        24         3         5        25     9        0.000000       -0.069175         1    ;  uncertainty k = 0.204520
        24         3         5        25     9      180.000000        7.751596         2    ;  uncertainty k = 0.352866
        24         3         5        25     9        0.000000       -0.353632         3    ;  uncertainty k = 0.216856
        24         3         5        25     9      180.000000        0.244263         4    ;  uncertainty k = 0.142580
        25         5         6        39     9        0.000000       -0.161833         1    ;  uncertainty k = 0.257634
        25         5         6        39     9      180.000000        8.831943         2    ;  uncertainty k = 0.293656
        25         5         6        39     9        0.000000        0.695347         3    ;  uncertainty k = 0.199793
        25         5         6        39     9      180.000000        1.188538         4    ;  uncertainty k = 0.336949
        27         9        10        29     9        0.000000       -0.062118         1    ;  uncertainty k = 0.175980
        27         9        10        29     9      180.000000       -0.346454         2    ;  uncertainty k = 0.237264
        27         9        10        29     9        0.000000       -0.035091         3    ;  uncertainty k = 0.145025
        27         9        10        29     9      180.000000       -0.049706         4    ;  uncertainty k = 0.074111
        27         9        22        37     9        0.000000        2.288821         1    ;  uncertainty k = 0.507795
        27         9        22        37     9      180.000000       -1.939761         2    ;  uncertainty k = 0.413857
        27         9        22        37     9        0.000000        0.268258         3    ;  uncertainty k = 0.084403
        27         9        22        37     9      180.000000        0.114796         4    ;  uncertainty k = 0.076861
        28         9        10        29     9        0.000000       -0.062118         1    ;  uncertainty k = 0.175980
        28         9        10        29     9      180.000000       -0.346454         2    ;  uncertainty k = 0.237264
        28         9        10        29     9        0.000000       -0.035091         3    ;  uncertainty k = 0.145025
        28         9        10        29     9      180.000000       -0.049706         4    ;  uncertainty k = 0.074111
        28         9        22        37     9        0.000000        2.288821         1    ;  uncertainty k = 0.507795
        28         9        22        37     9      180.000000       -1.939761         2    ;  uncertainty k = 0.413857
        28         9        22        37     9        0.000000        0.268258         3    ;  uncertainty k = 0.084403
        28         9        22        37     9      180.000000        0.114796         4    ;  uncertainty k = 0.076861
        29        10        14        33     9        0.000000       11.445024         1    ;  uncertainty k = 0.077908
        29        10        14        33     9      180.000000       -2.625800         2    ;  uncertainty k = 0.375643
        29        10        14        33     9        0.000000        0.698341         3    ;  uncertainty k = 0.074671
        29        10        14        33     9      180.000000        0.156691         4    ;  uncertainty k = 0.100510
        30        11        12        31     9        0.000000       -0.051759         1    ;  uncertainty k = 0.105402
        30        11        12        31     9      180.000000        7.644705         2    ;  uncertainty k = 0.306864
        30        11        12        31     9        0.000000       -0.441178         3    ;  uncertainty k = 0.237620
        30        11        12        31     9      180.000000        0.096993         4    ;  uncertainty k = 0.103181
        30        11        17        35     9        0.000000       -0.014778         1    ;  uncertainty k = 0.078555
        30        11        17        35     9      180.000000        7.498073         2    ;  uncertainty k = 0.337617
        30        11        17        35     9        0.000000       -0.424125         3    ;  uncertainty k = 0.279662
        30        11        17        35     9      180.000000        0.048151         4    ;  uncertainty k = 0.148926
        32        13        18        36     9        0.000000       -0.051759         1    ;  uncertainty k = 0.105402
        32        13        18        36     9      180.000000        7.644705         2    ;  uncertainty k = 0.306864
        32        13        18        36     9        0.000000       -0.441178         3    ;  uncertainty k = 0.237620
        32        13        18        36     9      180.000000        0.096993         4    ;  uncertainty k = 0.103181
        35        17        18        36     9        0.000000       -0.014778         1    ;  uncertainty k = 0.078555
        35        17        18        36     9      180.000000        7.498073         2    ;  uncertainty k = 0.337617
        35        17        18        36     9        0.000000       -0.424125         3    ;  uncertainty k = 0.279662
        35        17        18        36     9      180.000000        0.048151         4    ;  uncertainty k = 0.148926
        38         4         6        39     9        0.000000       -0.135292         1    ;  uncertainty k = 0.454757
        38         4         6        39     9      180.000000       12.389179         2    ;  uncertainty k = 0.285150
        38         4         6        39     9        0.000000        1.040869         3    ;  uncertainty k = 0.346609
        38         4         6        39     9      180.000000        1.299154         4    ;  uncertainty k = 0.349745
        39        40        43        44     9        0.000000        0.921054         1    ;  uncertainty k = 0.809584
        39        40        43        44     9      180.000000       -0.914381         2    ;  uncertainty k = 0.387652
        39        40        43        44     9        0.000000        1.140954         3    ;  uncertainty k = 0.084840
        39        40        43        44     9      180.000000        0.204360         4    ;  uncertainty k = 0.141272
        39        40        43        45     9        0.000000        0.921054         1    ;  uncertainty k = 0.809584
        39        40        43        45     9      180.000000       -0.914381         2    ;  uncertainty k = 0.387652
        39        40        43        45     9        0.000000        1.140954         3    ;  uncertainty k = 0.084840
        39        40        43        45     9      180.000000        0.204360         4    ;  uncertainty k = 0.141272
        39        40        43        46     9        0.000000        0.921054         1    ;  uncertainty k = 0.809584
        39        40        43        46     9      180.000000       -0.914381         2    ;  uncertainty k = 0.387652
        39        40        43        46     9        0.000000        1.140954         3    ;  uncertainty k = 0.084840
        39        40        43        46     9      180.000000        0.204360         4    ;  uncertainty k = 0.141272
        41        40        43        44     9        0.000000       -0.735371         1    ;  uncertainty k = 0.366130
        41        40        43        44     9      180.000000       -0.122529         2    ;  uncertainty k = 0.213139
        41        40        43        44     9        0.000000        0.319064         3    ;  uncertainty k = 0.050965
        41        40        43        44     9      180.000000       -0.156530         4    ;  uncertainty k = 0.098143
        41        40        43        45     9        0.000000       -0.735371         1    ;  uncertainty k = 0.366130
        41        40        43        45     9      180.000000       -0.122529         2    ;  uncertainty k = 0.213139
        41        40        43        45     9        0.000000        0.319064         3    ;  uncertainty k = 0.050965
        41        40        43        45     9      180.000000       -0.156530         4    ;  uncertainty k = 0.098143
        41        40        43        46     9        0.000000       -0.735371         1    ;  uncertainty k = 0.366130
        41        40        43        46     9      180.000000       -0.122529         2    ;  uncertainty k = 0.213139
        41        40        43        46     9        0.000000        0.319064         3    ;  uncertainty k = 0.050965
        41        40        43        46     9      180.000000       -0.156530         4    ;  uncertainty k = 0.098143
        42        40        43        44     9        0.000000       -0.735371         1    ;  uncertainty k = 0.366130
        42        40        43        44     9      180.000000       -0.122529         2    ;  uncertainty k = 0.213139
        42        40        43        44     9        0.000000        0.319064         3    ;  uncertainty k = 0.050965
        42        40        43        44     9      180.000000       -0.156530         4    ;  uncertainty k = 0.098143
        42        40        43        45     9        0.000000       -0.735371         1    ;  uncertainty k = 0.366130
        42        40        43        45     9      180.000000       -0.122529         2    ;  uncertainty k = 0.213139
        42        40        43        45     9        0.000000        0.319064         3    ;  uncertainty k = 0.050965
        42        40        43        45     9      180.000000       -0.156530         4    ;  uncertainty k = 0.098143
        42        40        43        46     9        0.000000       -0.735371         1    ;  uncertainty k = 0.366130
        42        40        43        46     9      180.000000       -0.122529         2    ;  uncertainty k = 0.213139
        42        40        43        46     9        0.000000        0.319064         3    ;  uncertainty k = 0.050965
        42        40        43        46     9      180.000000       -0.156530         4    ;  uncertainty k = 0.098143

[ dihedrals ] ; impropers
;       ai        aj        ak        al funct           phase               k        pn
         1         2         3         7     4      180.000000        9.744406         2    ;  uncertainty k = 0.116150
         1         3         7         2     4      180.000000        9.744406         2    ;  uncertainty k = 0.116150
         1         7         2         3     4      180.000000        9.744406         2    ;  uncertainty k = 0.116150
         2         1         4        23     4      180.000000        2.499675         2    ;  uncertainty k = 0.213695
         2         4        23         1     4      180.000000        2.499675         2    ;  uncertainty k = 0.213695
         2        23         1         4     4      180.000000        2.499675         2    ;  uncertainty k = 0.213695
         3         1         5        24     4      180.000000        3.962753         2    ;  uncertainty k = 0.037847
         3         5        24         1     4      180.000000        3.962753         2    ;  uncertainty k = 0.037847
         3        24         1         5     4      180.000000        3.962753         2    ;  uncertainty k = 0.037847
         4         2         6        38     4      180.000000       12.500548         2    ;  uncertainty k = 0.099704
         4         6        38         2     4      180.000000       12.500548         2    ;  uncertainty k = 0.099704
         4        38         2         6     4      180.000000       12.500548         2    ;  uncertainty k = 0.099704
         5         3         6        25     4      180.000000        1.878613         2    ;  uncertainty k = 0.093805
         5         6        25         3     4      180.000000        1.878613         2    ;  uncertainty k = 0.093805
         5        25         3         6     4      180.000000        1.878613         2    ;  uncertainty k = 0.093805
         6         4         5        39     4      180.000000       15.462986         2    ;  uncertainty k = 0.145830
         6         5        39         4     4      180.000000       15.462986         2    ;  uncertainty k = 0.145830
         6        39         4         5     4      180.000000       15.462986         2    ;  uncertainty k = 0.145830
         7         1         8        21     4      180.000000       27.364875         2    ;  uncertainty k = 0.030696
         7         8        21         1     4      180.000000       27.364875         2    ;  uncertainty k = 0.030696
         7        21         1         8     4      180.000000       27.364875         2    ;  uncertainty k = 0.030696
         8         7        15        26     4      180.000000        1.770511         2    ;  uncertainty k = 0.425223
         8        15        26         7     4      180.000000        1.770511         2    ;  uncertainty k = 0.425223
         8        26         7        15     4      180.000000        1.770511         2    ;  uncertainty k = 0.425223
        11        12        17        30     4      180.000000        4.234205         2    ;  uncertainty k = 0.081881
        11        17        30        12     4      180.000000        4.234205         2    ;  uncertainty k = 0.081881
        11        30        12        17     4      180.000000        4.234205         2    ;  uncertainty k = 0.081881
        12        11        19        31     4      180.000000        3.983249         2    ;  uncertainty k = 0.116003
        12        19        31        11     4      180.000000        3.983249         2    ;  uncertainty k = 0.116003
        12        31        11        19     4      180.000000        3.983249         2    ;  uncertainty k = 0.116003
        13        18        19        32     4      180.000000        3.983249         2    ;  uncertainty k = 0.116003
        13        19        32        18     4      180.000000        3.983249         2    ;  uncertainty k = 0.116003
        13        32        18        19     4      180.000000        3.983249         2    ;  uncertainty k = 0.116003
        15         8        20        22     4      180.000000       34.921827         2    ;  uncertainty k = 0.079106
        15        20        22         8     4      180.000000       34.921827         2    ;  uncertainty k = 0.079106
        15        22         8        20     4      180.000000       34.921827         2    ;  uncertainty k = 0.079106
        16        20        21        34     4      180.000000       24.227487         2    ;  uncertainty k = 0.059569
        16        21        34        20     4      180.000000       24.227487         2    ;  uncertainty k = 0.059569
        16        34        20        21     4      180.000000       24.227487         2    ;  uncertainty k = 0.059569
        17        11        18        35     4      180.000000        4.404546         2    ;  uncertainty k = 0.145826
        17        18        35        11     4      180.000000        4.404546         2    ;  uncertainty k = 0.145826
        17        35        11        18     4      180.000000        4.404546         2    ;  uncertainty k = 0.145826
        18        13        17        36     4      180.000000        4.234205         2    ;  uncertainty k = 0.081881
        18        17        36        13     4      180.000000        4.234205         2    ;  uncertainty k = 0.081881
        18        36        13        17     4      180.000000        4.234205         2    ;  uncertainty k = 0.081881
        19        10        12        13     4      180.000000       12.157434         2    ;  uncertainty k = 0.087858
        19        12        13        10     4      180.000000       12.157434         2    ;  uncertainty k = 0.087858
        19        13        10        12     4      180.000000       12.157434         2    ;  uncertainty k = 0.087858
        22         9        15        37     4      180.000000        0.223430         2    ;  uncertainty k = 0.499605
        22        15        37         9     4      180.000000        0.223430         2    ;  uncertainty k = 0.499605
        22        37         9        15     4      180.000000        0.223430         2    ;  uncertainty k = 0.499605

[ pairs ]
;       ai        aj funct
         1         6     1
         1        15     1
         1        16     1
         1        25     1
         1        26     1
         1        38     1
         2         5     1
         2         8     1
         2        21     1
         2        24     1
         2        39     1
         3         4     1
         3         8     1
         3        21     1
         3        23     1
         3        39     1
         4         7     1
         4        25     1
         4        40     1
         5         7     1
         5        38     1
         5        40     1
         6        23     1
         6        24     1
         6        41     1
         6        42     1
         6        43     1
         7        20     1
         7        22     1
         7        23     1
         7        24     1
         7        34     1
         8         9     1
         8        16     1
         8        37     1
         9        12     1
         9        13     1
         9        20     1
         9        33     1
        10        11     1
        10        15     1
        10        18     1
        10        31     1
        10        32     1
        10        37     1
        11        13     1
        11        36     1
        12        14     1
        12        18     1
        12        29     1
        12        32     1
        12        35     1
        13        14     1
        13        29     1
        13        31     1
        13        35     1
        14        22     1
        14        27     1
        14        28     1
        15        21     1
        15        27     1
        15        28     1
        15        34     1
        16        22     1
        17        19     1
        17        31     1
        17        32     1
        18        30     1
        19        22     1
        19        27     1
        19        28     1
        19        30     1
        19        33     1
        19        36     1
        20        26     1
        20        37     1
        21        26     1
        22        26     1
        22        29     1
        23        38     1
        24        25     1
        25        39     1
        27        29     1
        27        37     1
        28        29     1
        28        37     1
        29        33     1
        30        31     1
        30        35     1
        32        36     1
        35        36     1
        38        39     1
        39        44     1
        39        45     1
        39        46     1
        41        44     1
        41        45     1
        41        46     1
        42        44     1
        42        45     1
        42        46     1
