; ITP file created by ByteFF-joint-25, 2025-07-14 11:36:35.955410

[ atomtypes ]
;name           bonded.type        at.num        mass        charge   ptype           sigma         epsilon
 c0bf                                   6      0.0000       0.00000       A     3.31532e-01     4.13317e-01    ;  uncertainty sigma = 0.000011, epsilon = 0.000761
 c1bf                                   6      0.0000       0.00000       A     3.31519e-01     4.13558e-01    ;  uncertainty sigma = 0.000010, epsilon = 0.000804
 c2bf                                   6      0.0000       0.00000       A     3.31506e-01     4.13451e-01    ;  uncertainty sigma = 0.000005, epsilon = 0.000386
 c3bf                                   6      0.0000       0.00000       A     3.31530e-01     4.13067e-01    ;  uncertainty sigma = 0.000008, epsilon = 0.001015
 c4bf                                   6      0.0000       0.00000       A     3.31525e-01     4.13264e-01    ;  uncertainty sigma = 0.000008, epsilon = 0.000728
 c5bf                                   6      0.0000       0.00000       A     3.31511e-01     4.12937e-01    ;  uncertainty sigma = 0.000008, epsilon = 0.001327
 c6bf                                   6      0.0000       0.00000       A     3.31521e-01     4.13341e-01    ;  uncertainty sigma = 0.000016, epsilon = 0.000678
 c7bf                                   6      0.0000       0.00000       A     3.31527e-01     4.13260e-01    ;  uncertainty sigma = 0.000014, epsilon = 0.001138
 c8bf                                   6      0.0000       0.00000       A     3.39762e-01     4.50673e-01    ;  uncertainty sigma = 0.000011, epsilon = 0.001255
 c9bf                                   6      0.0000       0.00000       A     3.39750e-01     4.50544e-01    ;  uncertainty sigma = 0.000007, epsilon = 0.000791
 c10bf                                  6      0.0000       0.00000       A     3.31517e-01     4.13350e-01    ;  uncertainty sigma = 0.000003, epsilon = 0.000541
 c11bf                                  6      0.0000       0.00000       A     3.31519e-01     4.13304e-01    ;  uncertainty sigma = 0.000003, epsilon = 0.000583
 c12bf                                  6      0.0000       0.00000       A     3.31519e-01     4.13304e-01    ;  uncertainty sigma = 0.000003, epsilon = 0.000583
 o13bf                                  8      0.0000       0.00000       A     3.24257e-01     3.88598e-01    ;  uncertainty sigma = 0.000013, epsilon = 0.001596
 c14bf                                  6      0.0000       0.00000       A     3.31516e-01     4.13349e-01    ;  uncertainty sigma = 0.000011, epsilon = 0.000874
 c15bf                                  6      0.0000       0.00000       A     3.31502e-01     4.13579e-01    ;  uncertainty sigma = 0.000011, epsilon = 0.000388
 c16bf                                  6      0.0000       0.00000       A     3.31519e-01     4.13331e-01    ;  uncertainty sigma = 0.000003, epsilon = 0.000569
 c17bf                                  6      0.0000       0.00000       A     3.31517e-01     4.13350e-01    ;  uncertainty sigma = 0.000003, epsilon = 0.000541
 c18bf                                  6      0.0000       0.00000       A     3.31542e-01     4.12960e-01    ;  uncertainty sigma = 0.000004, epsilon = 0.000669
 n19bf                                  7      0.0000       0.00000       A     3.38417e-01     3.93373e-01    ;  uncertainty sigma = 0.000016, epsilon = 0.001202
 n20bf                                  7      0.0000       0.00000       A     3.38417e-01     3.93426e-01    ;  uncertainty sigma = 0.000018, epsilon = 0.000868
 n21bf                                  7      0.0000       0.00000       A     3.27787e-01     6.48850e-01    ;  uncertainty sigma = 0.000034, epsilon = 0.002592
 h22bf                                  1      0.0000       0.00000       A     2.62561e-01     6.70526e-02    ;  uncertainty sigma = 0.000015, epsilon = 0.000622
 h23bf                                  1      0.0000       0.00000       A     2.62565e-01     6.70447e-02    ;  uncertainty sigma = 0.000011, epsilon = 0.000506
 h24bf                                  1      0.0000       0.00000       A     2.62574e-01     6.71979e-02    ;  uncertainty sigma = 0.000010, epsilon = 0.000671
 h25bf                                  1      0.0000       0.00000       A     2.62541e-01     6.69041e-02    ;  uncertainty sigma = 0.000018, epsilon = 0.000969
 h26bf                                  1      0.0000       0.00000       A     2.42232e-01     8.67796e-02    ;  uncertainty sigma = 0.000037, epsilon = 0.000692
 h27bf                                  1      0.0000       0.00000       A     2.42232e-01     8.67796e-02    ;  uncertainty sigma = 0.000037, epsilon = 0.000692
 h28bf                                  1      0.0000       0.00000       A     2.42260e-01     8.69504e-02    ;  uncertainty sigma = 0.000011, epsilon = 0.000481
 h29bf                                  1      0.0000       0.00000       A     2.62558e-01     6.70324e-02    ;  uncertainty sigma = 0.000010, epsilon = 0.000442
 h30bf                                  1      0.0000       0.00000       A     2.62562e-01     6.70739e-02    ;  uncertainty sigma = 0.000004, epsilon = 0.000538
 h31bf                                  1      0.0000       0.00000       A     2.62562e-01     6.70739e-02    ;  uncertainty sigma = 0.000004, epsilon = 0.000538
 h32bf                                  1      0.0000       0.00000       A     5.38011e-02     1.91837e-02    ;  uncertainty sigma = 0.000073, epsilon = 0.000888
 h33bf                                  1      0.0000       0.00000       A     2.44735e-01     6.71447e-02    ;  uncertainty sigma = 0.000026, epsilon = 0.000712
 h34bf                                  1      0.0000       0.00000       A     2.62552e-01     6.70645e-02    ;  uncertainty sigma = 0.000011, epsilon = 0.000453
 h35bf                                  1      0.0000       0.00000       A     2.62558e-01     6.70324e-02    ;  uncertainty sigma = 0.000010, epsilon = 0.000442
 h36bf                                  1      0.0000       0.00000       A     1.10591e-01     4.16159e-02    ;  uncertainty sigma = 0.000130, epsilon = 0.000719
 f37bf                                  9      0.0000       0.00000       A     3.03437e-01     3.47982e-01    ;  uncertainty sigma = 0.000035, epsilon = 0.000700
 c38bf                                  6      0.0000       0.00000       A     3.31521e-01     4.13186e-01    ;  uncertainty sigma = 0.000008, epsilon = 0.000820
 o39bf                                  8      0.0000       0.00000       A     3.04831e-01     6.12129e-01    ;  uncertainty sigma = 0.000011, epsilon = 0.001157
 c40bf                                  6      0.0000       0.00000       A     3.39764e-01     4.50982e-01    ;  uncertainty sigma = 0.000003, epsilon = 0.000418
 h41bf                                  1      0.0000       0.00000       A     2.60024e-01     8.67399e-02    ;  uncertainty sigma = 0.000008, epsilon = 0.000733
 h42bf                                  1      0.0000       0.00000       A     2.60024e-01     8.67399e-02    ;  uncertainty sigma = 0.000008, epsilon = 0.000733
 h43bf                                  1      0.0000       0.00000       A     2.60024e-01     8.67399e-02    ;  uncertainty sigma = 0.000008, epsilon = 0.000733

[ moleculetype ]
;name             nrexcl
 MOL                   3

[ atoms ]
;       nr            type      resi   res      atom      cgnr      charge          mass ; qtot
         1            c0bf         1   UNL        c0         1    -0.11017       12.0110 ; qtot   -0.110
         2            c1bf         1   UNL        c1         2    -0.14726       12.0110 ; qtot   -0.257
         3            c2bf         1   UNL        c2         3    -0.11734       12.0110 ; qtot   -0.375
         4            c3bf         1   UNL        c3         4     0.17571       12.0110 ; qtot   -0.199
         5            c4bf         1   UNL        c4         5    -0.06566       12.0110 ; qtot   -0.265
         6            c5bf         1   UNL        c5         6    -0.20243       12.0110 ; qtot   -0.467
         7            c6bf         1   UNL        c6         7     0.52942       12.0110 ; qtot    0.062
         8            c7bf         1   UNL        c7         8    -0.41873       12.0110 ; qtot   -0.356
         9            c8bf         1   UNL        c8         9     0.20508       12.0110 ; qtot   -0.151
        10            c9bf         1   UNL        c9        10     0.17238       12.0110 ; qtot    0.021
        11           c10bf         1   UNL       c10        11    -0.13212       12.0110 ; qtot   -0.111
        12           c11bf         1   UNL       c11        12    -0.11431       12.0110 ; qtot   -0.225
        13           c12bf         1   UNL       c12        13    -0.11431       12.0110 ; qtot   -0.340
        14           o13bf         1   UNL       o13        14    -0.60202       15.9990 ; qtot   -0.942
        15           c14bf         1   UNL       c14        15     0.69818       12.0110 ; qtot   -0.244
        16           c15bf         1   UNL       c15        16     0.68025       12.0110 ; qtot    0.437
        17           c16bf         1   UNL       c16        17    -0.12191       12.0110 ; qtot    0.315
        18           c17bf         1   UNL       c17        18    -0.13212       12.0110 ; qtot    0.183
        19           c18bf         1   UNL       c18        19    -0.11806       12.0110 ; qtot    0.065
        20           n19bf         1   UNL       n19        20    -0.77724       14.0070 ; qtot   -0.713
        21           n20bf         1   UNL       n20        21    -0.73242       14.0070 ; qtot   -1.445
        22           n21bf         1   UNL       n21        22    -0.87199       14.0070 ; qtot   -2.317
        23           h22bf         1   UNL       h22        23     0.16523        1.0080 ; qtot   -2.152
        24           h23bf         1   UNL       h23        24     0.15129        1.0080 ; qtot   -2.001
        25           h24bf         1   UNL       h24        25     0.15608        1.0080 ; qtot   -1.844
        26           h25bf         1   UNL       h25        26     0.15255        1.0080 ; qtot   -1.692
        27           h26bf         1   UNL       h26        27     0.06384        1.0080 ; qtot   -1.628
        28           h27bf         1   UNL       h27        28     0.06384        1.0080 ; qtot   -1.564
        29           h28bf         1   UNL       h28        29     0.05801        1.0080 ; qtot   -1.506
        30           h29bf         1   UNL       h29        30     0.13206        1.0080 ; qtot   -1.374
        31           h30bf         1   UNL       h30        31     0.13699        1.0080 ; qtot   -1.237
        32           h31bf         1   UNL       h31        32     0.13699        1.0080 ; qtot   -1.100
        33           h32bf         1   UNL       h32        33     0.41310        1.0080 ; qtot   -0.687
        34           h33bf         1   UNL       h33        34     0.05077        1.0080 ; qtot   -0.636
        35           h34bf         1   UNL       h34        35     0.13198        1.0080 ; qtot   -0.504
        36           h35bf         1   UNL       h35        36     0.13206        1.0080 ; qtot   -0.372
        37           h36bf         1   UNL       h36        37     0.44064        1.0080 ; qtot    0.068
        38           f37bf         1   UNL       f37        38    -0.13172       18.9980 ; qtot   -0.063
        39           c38bf         1   UNL       c38        39     0.58231       12.0110 ; qtot    0.519
        40           o39bf         1   UNL       o39        40    -0.52740       15.9990 ; qtot   -0.008
        41           c40bf         1   UNL       c40        41    -0.18799       12.0110 ; qtot   -0.196
        42           h41bf         1   UNL       h41        42     0.06547        1.0080 ; qtot   -0.131
        43           h42bf         1   UNL       h42        43     0.06547        1.0080 ; qtot   -0.066
        44           h43bf         1   UNL       h43        44     0.06550        1.0080 ; qtot   -0.000

[ bonds ]
;       ai        aj funct               r               k
         1         2     1        0.139331   354466.850732    ;  uncertainty r = 0.000072, k = 5.025884
         1         3     1        0.139577   344237.118848    ;  uncertainty r = 0.000054, k = 4.270895
         1         7     1        0.147333   259907.659082    ;  uncertainty r = 0.000047, k = 7.183466
         2         4     1        0.138719   350094.514551    ;  uncertainty r = 0.000087, k = 5.421660
         2        23     1        0.108718   335764.620996    ;  uncertainty r = 0.000035, k = 0.308887
         3         5     1        0.138891   359029.004248    ;  uncertainty r = 0.000040, k = 3.541163
         3        24     1        0.108707   332927.882275    ;  uncertainty r = 0.000028, k = 1.060543
         4         6     1        0.140073   326283.075342    ;  uncertainty r = 0.000135, k = 4.430154
         4        38     1        0.135304   334204.916504    ;  uncertainty r = 0.000095, k = 5.287900
         5         6     1        0.140262   346731.226172    ;  uncertainty r = 0.000080, k = 4.076911
         5        25     1        0.108554   329964.147510    ;  uncertainty r = 0.000026, k = 1.160548
         6        39     1        0.150078   254178.280908    ;  uncertainty r = 0.000078, k = 13.055628
         7         8     1        0.140259   426147.090723    ;  uncertainty r = 0.000059, k = 9.345561
         7        21     1        0.135547   395182.834863    ;  uncertainty r = 0.000047, k = 8.910870
         8        15     1        0.142200   437085.145410    ;  uncertainty r = 0.000074, k = 7.312812
         8        26     1        0.108982   347697.397168    ;  uncertainty r = 0.000060, k = 3.509310
         9        10     1        0.153528   198932.485962    ;  uncertainty r = 0.000113, k = 4.485541
         9        22     1        0.144360   258703.533301    ;  uncertainty r = 0.000127, k = 5.188267
         9        27     1        0.109548   306948.010498    ;  uncertainty r = 0.000056, k = 1.476386
         9        28     1        0.109548   306948.010498    ;  uncertainty r = 0.000056, k = 1.476386
        10        14     1        0.143014   262792.254346    ;  uncertainty r = 0.000086, k = 14.622904
        10        19     1        0.151556   222180.461621    ;  uncertainty r = 0.000089, k = 7.017739
        10        29     1        0.109828   303256.263818    ;  uncertainty r = 0.000046, k = 1.650587
        11        12     1        0.139619   365954.387402    ;  uncertainty r = 0.000008, k = 1.292992
        11        17     1        0.139616   371124.732715    ;  uncertainty r = 0.000020, k = 1.036768
        11        30     1        0.108853   334096.639160    ;  uncertainty r = 0.000011, k = 0.985251
        12        19     1        0.139806   351916.766064    ;  uncertainty r = 0.000010, k = 1.187834
        12        31     1        0.108853   333813.534766    ;  uncertainty r = 0.000015, k = 0.555194
        13        18     1        0.139619   365954.387402    ;  uncertainty r = 0.000008, k = 1.292992
        13        19     1        0.139806   351916.766064    ;  uncertainty r = 0.000010, k = 1.187834
        13        32     1        0.108853   333813.534766    ;  uncertainty r = 0.000015, k = 0.555194
        14        33     1        0.097118   460583.525195    ;  uncertainty r = 0.000045, k = 3.102113
        15        20     1        0.135563   598530.699805    ;  uncertainty r = 0.000139, k = 9.101913
        15        22     1        0.139244   503022.932227    ;  uncertainty r = 0.000156, k = 11.982701
        16        20     1        0.134248   427021.200439    ;  uncertainty r = 0.000126, k = 12.560964
        16        21     1        0.133902   409960.291797    ;  uncertainty r = 0.000038, k = 12.892596
        16        34     1        0.108823   332455.624512    ;  uncertainty r = 0.000016, k = 3.398046
        17        18     1        0.139616   371124.758252    ;  uncertainty r = 0.000020, k = 1.036768
        17        35     1        0.108851   334582.457129    ;  uncertainty r = 0.000012, k = 0.680670
        18        36     1        0.108853   334096.639160    ;  uncertainty r = 0.000011, k = 0.985251
        22        37     1        0.101725   420522.644531    ;  uncertainty r = 0.000069, k = 3.098785
        39        40     1        0.122841   705727.313086    ;  uncertainty r = 0.000077, k = 8.507694
        39        41     1        0.151824   191435.875977    ;  uncertainty r = 0.000041, k = 5.567075
        41        42     1        0.109435   313119.206201    ;  uncertainty r = 0.000025, k = 1.146692
        41        43     1        0.109435   313119.206201    ;  uncertainty r = 0.000025, k = 1.146692
        41        44     1        0.109435   313119.206201    ;  uncertainty r = 0.000025, k = 1.146692

[ angles ]
;       ai        aj        ak funct           theta             cth
         1         2         4     1      120.479332      486.092557    ;  uncertainty theta = 0.002478, k = 0.103462
         1         2        23     1      119.790611      262.831345    ;  uncertainty theta = 0.003443, k = 0.082851
         1         3         5     1      120.753883      520.198834    ;  uncertainty theta = 0.003020, k = 0.088098
         1         3        24     1      118.385910      268.667596    ;  uncertainty theta = 0.004293, k = 0.097854
         1         7         8     1      121.077454      397.042134    ;  uncertainty theta = 0.005596, k = 0.190761
         1         7        21     1      117.950577      473.682032    ;  uncertainty theta = 0.004505, k = 0.118433
         2         1         3     1      120.577126      416.960665    ;  uncertainty theta = 0.003778, k = 0.130610
         2         1         7     1      117.480484      397.745937    ;  uncertainty theta = 0.002909, k = 0.102516
         2         4         6     1      126.916611      393.509969    ;  uncertainty theta = 0.006270, k = 0.079873
         2         4        38     1      117.527420      521.118681    ;  uncertainty theta = 0.004880, k = 0.128441
         3         1         7     1      118.315109      400.316311    ;  uncertainty theta = 0.003309, k = 0.112883
         3         5         6     1      123.846481      509.527802    ;  uncertainty theta = 0.003728, k = 0.062362
         3         5        25     1      120.133568      276.502701    ;  uncertainty theta = 0.002022, k = 0.076817
         4         2        23     1      120.127579      280.162168    ;  uncertainty theta = 0.004706, k = 0.038177
         4         6         5     1      120.292030      438.773346    ;  uncertainty theta = 0.004244, k = 0.133468
         4         6        39     1      120.491615      365.802110    ;  uncertainty theta = 0.007843, k = 0.382934
         5         3        24     1      120.356339      286.735867    ;  uncertainty theta = 0.003280, k = 0.056411
         5         6        39     1      118.192398      385.353193    ;  uncertainty theta = 0.007758, k = 0.240734
         6         4        38     1      116.559227      478.837974    ;  uncertainty theta = 0.004519, k = 0.179140
         6         5        25     1      116.678734      254.936963    ;  uncertainty theta = 0.002068, k = 0.179868
         6        39        40     1      122.106384      559.794761    ;  uncertainty theta = 0.003985, k = 0.084038
         6        39        41     1      115.914108      338.047166    ;  uncertainty theta = 0.005803, k = 0.232892
         7         8        15     1      117.328995      473.468478    ;  uncertainty theta = 0.006490, k = 0.278543
         7         8        26     1      122.083511      274.806111    ;  uncertainty theta = 0.001872, k = 0.170102
         7        21        16     1      114.127907      410.698934    ;  uncertainty theta = 0.005161, k = 0.196602
         8         7        21     1      121.890884      595.728666    ;  uncertainty theta = 0.004047, k = 0.118861
         8        15        20     1      120.465775      559.577504    ;  uncertainty theta = 0.004274, k = 0.131688
         8        15        22     1      124.405197      635.166262    ;  uncertainty theta = 0.005407, k = 0.116906
         9        10        14     1      108.648598      745.773101    ;  uncertainty theta = 0.001850, k = 0.090465
         9        10        19     1      111.675133      529.233800    ;  uncertainty theta = 0.002433, k = 0.102801
         9        10        29     1      107.655739      397.413157    ;  uncertainty theta = 0.001835, k = 0.063660
         9        22        15     1      115.022720      415.197008    ;  uncertainty theta = 0.003932, k = 0.139541
         9        22        37     1      111.930687      338.512452    ;  uncertainty theta = 0.006639, k = 0.093922
        10         9        22     1      109.072731      588.135334    ;  uncertainty theta = 0.003588, k = 0.076167
        10         9        27     1      108.264954      386.766225    ;  uncertainty theta = 0.001128, k = 0.087129
        10         9        28     1      108.264954      386.766225    ;  uncertainty theta = 0.001128, k = 0.087129
        10        14        33     1      107.778908      462.824962    ;  uncertainty theta = 0.002314, k = 0.060682
        10        19        12     1      119.990318      398.450314    ;  uncertainty theta = 0.001704, k = 0.122614
        10        19        13     1      119.990318      398.450314    ;  uncertainty theta = 0.001704, k = 0.122614
        11        12        19     1      120.930702      517.466172    ;  uncertainty theta = 0.001222, k = 0.047814
        11        12        31     1      120.258339      291.729553    ;  uncertainty theta = 0.002156, k = 0.015437
        11        17        18     1      118.312904      525.474865    ;  uncertainty theta = 0.001259, k = 0.033725
        11        17        35     1      120.606750      289.256635    ;  uncertainty theta = 0.001707, k = 0.007155
        12        11        17     1      119.668961      514.607037    ;  uncertainty theta = 0.000852, k = 0.027695
        12        11        30     1      120.182228      283.193264    ;  uncertainty theta = 0.001483, k = 0.023123
        12        19        13     1      120.620529      467.609435    ;  uncertainty theta = 0.001046, k = 0.044080
        13        18        17     1      119.668961      514.607037    ;  uncertainty theta = 0.000852, k = 0.027695
        13        18        36     1      120.182228      283.193264    ;  uncertainty theta = 0.001483, k = 0.023123
        14        10        19     1      111.132469      757.316130    ;  uncertainty theta = 0.001813, k = 0.056225
        14        10        29     1      107.460892      475.171803    ;  uncertainty theta = 0.003128, k = 0.059555
        15         8        26     1      122.820290      279.161624    ;  uncertainty theta = 0.002177, k = 0.088284
        15        20        16     1      114.208336      402.225401    ;  uncertainty theta = 0.007184, k = 0.116286
        15        22        37     1      114.952065      412.285969    ;  uncertainty theta = 0.001414, k = 0.081088
        17        11        30     1      120.593102      287.981121    ;  uncertainty theta = 0.001462, k = 0.008017
        17        18        36     1      120.593102      287.981121    ;  uncertainty theta = 0.001462, k = 0.008017
        18        13        19     1      120.930702      517.466172    ;  uncertainty theta = 0.001222, k = 0.047814
        18        13        32     1      120.258339      291.729553    ;  uncertainty theta = 0.002156, k = 0.015437
        18        17        35     1      120.606750      289.256635    ;  uncertainty theta = 0.001707, k = 0.007155
        19        10        29     1      107.338806      403.998379    ;  uncertainty theta = 0.003013, k = 0.110102
        19        12        31     1      118.778320      265.740150    ;  uncertainty theta = 0.001504, k = 0.035529
        19        13        32     1      118.778320      265.740150    ;  uncertainty theta = 0.001504, k = 0.035529
        20        15        22     1      122.203979      876.041727    ;  uncertainty theta = 0.006036, k = 0.092665
        20        16        21     1      127.365524      928.346068    ;  uncertainty theta = 0.002641, k = 0.109018
        20        16        34     1      115.958923      303.662406    ;  uncertainty theta = 0.004108, k = 0.062101
        21        16        34     1      116.290024      310.582675    ;  uncertainty theta = 0.004161, k = 0.066237
        22         9        27     1      106.848366      448.950650    ;  uncertainty theta = 0.001286, k = 0.079205
        22         9        28     1      106.848366      448.950650    ;  uncertainty theta = 0.001286, k = 0.079205
        27         9        28     1      106.681496      323.153860    ;  uncertainty theta = 0.001150, k = 0.024224
        39        41        42     1      108.214523      359.574311    ;  uncertainty theta = 0.001781, k = 0.076912
        39        41        43     1      108.214523      359.574311    ;  uncertainty theta = 0.001781, k = 0.076912
        39        41        44     1      108.214523      359.574311    ;  uncertainty theta = 0.001781, k = 0.076912
        40        39        41     1      123.921494      610.805903    ;  uncertainty theta = 0.004334, k = 0.102780
        42        41        43     1      106.942520      313.840349    ;  uncertainty theta = 0.001885, k = 0.024797
        42        41        44     1      106.942520      313.840349    ;  uncertainty theta = 0.001885, k = 0.024797
        43        41        44     1      106.942520      313.840349    ;  uncertainty theta = 0.001885, k = 0.024797

[ dihedrals ] ; propers for gromacs 4.5 or higher, use funct 9
;       ai        aj        ak        al funct           phase               k        pn
         1         2         4         6     9        0.000000       -0.029589         1    ;  uncertainty k = 0.288384
         1         2         4         6     9      180.000000        7.151202         2    ;  uncertainty k = 0.708820
         1         2         4         6     9        0.000000        0.401809         3    ;  uncertainty k = 0.235188
         1         2         4         6     9      180.000000        1.374891         4    ;  uncertainty k = 0.268948
         1         2         4        38     9        0.000000       -0.144217         1    ;  uncertainty k = 0.185712
         1         2         4        38     9      180.000000       12.834528         2    ;  uncertainty k = 0.131043
         1         2         4        38     9        0.000000        1.296609         3    ;  uncertainty k = 0.213331
         1         2         4        38     9      180.000000        1.520506         4    ;  uncertainty k = 0.065440
         1         3         5         6     9        0.000000       -0.113265         1    ;  uncertainty k = 0.360430
         1         3         5         6     9      180.000000       12.211798         2    ;  uncertainty k = 0.522614
         1         3         5         6     9        0.000000       -0.345187         3    ;  uncertainty k = 0.053566
         1         3         5         6     9      180.000000        0.939858         4    ;  uncertainty k = 0.275931
         1         3         5        25     9        0.000000       -0.038236         1    ;  uncertainty k = 0.124444
         1         3         5        25     9      180.000000        7.985456         2    ;  uncertainty k = 0.455756
         1         3         5        25     9        0.000000        1.257438         3    ;  uncertainty k = 0.261920
         1         3         5        25     9      180.000000        1.812752         4    ;  uncertainty k = 0.185491
         1         7         8        15     9        0.000000       -0.202077         1    ;  uncertainty k = 0.581324
         1         7         8        15     9      180.000000        7.693558         2    ;  uncertainty k = 0.937519
         1         7         8        15     9        0.000000        0.716069         3    ;  uncertainty k = 0.314021
         1         7         8        15     9      180.000000        1.153297         4    ;  uncertainty k = 0.369461
         1         7         8        26     9        0.000000       -0.209664         1    ;  uncertainty k = 1.017982
         1         7         8        26     9      180.000000        6.872827         2    ;  uncertainty k = 0.448939
         1         7         8        26     9        0.000000        0.707207         3    ;  uncertainty k = 0.264357
         1         7         8        26     9      180.000000        0.933621         4    ;  uncertainty k = 0.212252
         1         7        21        16     9        0.000000        0.096070         1    ;  uncertainty k = 0.556826
         1         7        21        16     9      180.000000       14.559270         2    ;  uncertainty k = 0.414385
         1         7        21        16     9        0.000000        2.104898         3    ;  uncertainty k = 0.277217
         1         7        21        16     9      180.000000        1.590533         4    ;  uncertainty k = 0.455595
         2         1         3         5     9        0.000000        0.033941         1    ;  uncertainty k = 0.173350
         2         1         3         5     9      180.000000       10.895591         2    ;  uncertainty k = 0.194790
         2         1         3         5     9        0.000000       -0.474796         3    ;  uncertainty k = 0.206738
         2         1         3         5     9      180.000000        0.911175         4    ;  uncertainty k = 0.237858
         2         1         3        24     9        0.000000        0.157227         1    ;  uncertainty k = 0.126689
         2         1         3        24     9      180.000000        6.888694         2    ;  uncertainty k = 0.526067
         2         1         3        24     9        0.000000        1.348009         3    ;  uncertainty k = 0.157236
         2         1         3        24     9      180.000000        1.627063         4    ;  uncertainty k = 0.244010
         2         1         7         8     9        0.000000       -0.292766         1    ;  uncertainty k = 0.516773
         2         1         7         8     9      180.000000        3.692360         2    ;  uncertainty k = 0.267960
         2         1         7         8     9        0.000000        0.387338         3    ;  uncertainty k = 0.213109
         2         1         7         8     9      180.000000       -0.108242         4    ;  uncertainty k = 0.088303
         2         1         7        21     9        0.000000        0.883294         1    ;  uncertainty k = 0.572585
         2         1         7        21     9      180.000000        5.077197         2    ;  uncertainty k = 0.195928
         2         1         7        21     9        0.000000        0.642760         3    ;  uncertainty k = 0.271412
         2         1         7        21     9      180.000000        0.110145         4    ;  uncertainty k = 0.048834
         2         4         6         5     9        0.000000       -0.246732         1    ;  uncertainty k = 0.447952
         2         4         6         5     9      180.000000        6.177064         2    ;  uncertainty k = 0.685708
         2         4         6         5     9        0.000000        0.226321         3    ;  uncertainty k = 0.384778
         2         4         6         5     9      180.000000        1.278739         4    ;  uncertainty k = 0.288264
         2         4         6        39     9        0.000000        0.223282         1    ;  uncertainty k = 0.834562
         2         4         6        39     9      180.000000        5.458394         2    ;  uncertainty k = 0.397328
         2         4         6        39     9        0.000000        1.297093         3    ;  uncertainty k = 0.242977
         2         4         6        39     9      180.000000        1.602987         4    ;  uncertainty k = 0.238737
         3         1         2         4     9        0.000000        0.315779         1    ;  uncertainty k = 0.283261
         3         1         2         4     9      180.000000       11.093689         2    ;  uncertainty k = 0.404529
         3         1         2         4     9        0.000000       -0.338397         3    ;  uncertainty k = 0.309921
         3         1         2         4     9      180.000000        1.056903         4    ;  uncertainty k = 0.218373
         3         1         2        23     9        0.000000        0.264613         1    ;  uncertainty k = 0.237267
         3         1         2        23     9      180.000000        6.988125         2    ;  uncertainty k = 0.537908
         3         1         2        23     9        0.000000        1.303206         3    ;  uncertainty k = 0.269644
         3         1         2        23     9      180.000000        1.632221         4    ;  uncertainty k = 0.246396
         3         1         7         8     9        0.000000       -0.396945         1    ;  uncertainty k = 0.538707
         3         1         7         8     9      180.000000        3.638078         2    ;  uncertainty k = 0.194405
         3         1         7         8     9        0.000000        0.381392         3    ;  uncertainty k = 0.241434
         3         1         7         8     9      180.000000       -0.128964         4    ;  uncertainty k = 0.084917
         3         1         7        21     9        0.000000        1.189381         1    ;  uncertainty k = 0.560625
         3         1         7        21     9      180.000000        4.919405         2    ;  uncertainty k = 0.182637
         3         1         7        21     9        0.000000        0.622014         3    ;  uncertainty k = 0.286719
         3         1         7        21     9      180.000000        0.100201         4    ;  uncertainty k = 0.023331
         3         5         6         4     9        0.000000        0.005695         1    ;  uncertainty k = 0.142126
         3         5         6         4     9      180.000000       10.715991         2    ;  uncertainty k = 0.249295
         3         5         6         4     9        0.000000       -0.086622         3    ;  uncertainty k = 0.159966
         3         5         6         4     9      180.000000        1.100605         4    ;  uncertainty k = 0.296467
         3         5         6        39     9        0.000000        0.225857         1    ;  uncertainty k = 0.345840
         3         5         6        39     9      180.000000        7.802691         2    ;  uncertainty k = 0.366092
         3         5         6        39     9        0.000000        1.517162         3    ;  uncertainty k = 0.224840
         3         5         6        39     9      180.000000        1.826223         4    ;  uncertainty k = 0.188727
         4         2         1         7     9        0.000000        0.346797         1    ;  uncertainty k = 0.364678
         4         2         1         7     9      180.000000        8.025631         2    ;  uncertainty k = 0.706350
         4         2         1         7     9        0.000000        1.412693         3    ;  uncertainty k = 0.503621
         4         2         1         7     9      180.000000        1.793776         4    ;  uncertainty k = 0.108542
         4         6         5        25     9        0.000000        0.063128         1    ;  uncertainty k = 0.266199
         4         6         5        25     9      180.000000        7.368041         2    ;  uncertainty k = 0.329923
         4         6         5        25     9        0.000000        1.221304         3    ;  uncertainty k = 0.239861
         4         6         5        25     9      180.000000        1.583943         4    ;  uncertainty k = 0.192802
         4         6        39        40     9        0.000000       -0.850270         1    ;  uncertainty k = 0.721707
         4         6        39        40     9      180.000000        4.800804         2    ;  uncertainty k = 0.364834
         4         6        39        40     9        0.000000        0.690218         3    ;  uncertainty k = 0.183439
         4         6        39        40     9      180.000000        0.035213         4    ;  uncertainty k = 0.103756
         4         6        39        41     9        0.000000        0.457956         1    ;  uncertainty k = 1.050223
         4         6        39        41     9      180.000000        2.781253         2    ;  uncertainty k = 0.643794
         4         6        39        41     9        0.000000        0.652655         3    ;  uncertainty k = 0.203904
         4         6        39        41     9      180.000000        0.057553         4    ;  uncertainty k = 0.099506
         5         3         1         7     9        0.000000        0.317438         1    ;  uncertainty k = 0.611097
         5         3         1         7     9      180.000000        8.294662         2    ;  uncertainty k = 0.812436
         5         3         1         7     9        0.000000        1.276175         3    ;  uncertainty k = 0.455418
         5         3         1         7     9      180.000000        1.780752         4    ;  uncertainty k = 0.224048
         5         6         4        38     9        0.000000        0.161570         1    ;  uncertainty k = 0.466986
         5         6         4        38     9      180.000000        9.960198         2    ;  uncertainty k = 0.164022
         5         6         4        38     9        0.000000        1.522091         3    ;  uncertainty k = 0.259696
         5         6         4        38     9      180.000000        1.587781         4    ;  uncertainty k = 0.206916
         5         6        39        40     9        0.000000       -0.897038         1    ;  uncertainty k = 0.899975
         5         6        39        40     9      180.000000        4.522145         2    ;  uncertainty k = 0.142035
         5         6        39        40     9        0.000000        0.460678         3    ;  uncertainty k = 0.132667
         5         6        39        40     9      180.000000       -0.049138         4    ;  uncertainty k = 0.079865
         5         6        39        41     9        0.000000       -0.982610         1    ;  uncertainty k = 0.740287
         5         6        39        41     9      180.000000        3.137727         2    ;  uncertainty k = 0.136399
         5         6        39        41     9        0.000000        0.380622         3    ;  uncertainty k = 0.215669
         5         6        39        41     9      180.000000        0.058156         4    ;  uncertainty k = 0.056840
         6         4         2        23     9        0.000000       -0.080853         1    ;  uncertainty k = 0.432466
         6         4         2        23     9      180.000000        5.310687         2    ;  uncertainty k = 0.559629
         6         4         2        23     9        0.000000        1.290028         3    ;  uncertainty k = 0.285379
         6         4         2        23     9      180.000000        1.697325         4    ;  uncertainty k = 0.151501
         6         5         3        24     9        0.000000        0.089828         1    ;  uncertainty k = 0.191731
         6         5         3        24     9      180.000000        7.985367         2    ;  uncertainty k = 0.312898
         6         5         3        24     9        0.000000        1.307238         3    ;  uncertainty k = 0.129960
         6         5         3        24     9      180.000000        1.866728         4    ;  uncertainty k = 0.139639
         6        39        41        42     9        0.000000       -0.698564         1    ;  uncertainty k = 0.526371
         6        39        41        42     9      180.000000        2.960680         2    ;  uncertainty k = 0.512681
         6        39        41        42     9        0.000000        0.687187         3    ;  uncertainty k = 0.113477
         6        39        41        42     9      180.000000        0.204413         4    ;  uncertainty k = 0.024545
         6        39        41        43     9        0.000000       -0.698564         1    ;  uncertainty k = 0.526371
         6        39        41        43     9      180.000000        2.960680         2    ;  uncertainty k = 0.512681
         6        39        41        43     9        0.000000        0.687187         3    ;  uncertainty k = 0.113477
         6        39        41        43     9      180.000000        0.204413         4    ;  uncertainty k = 0.024545
         6        39        41        44     9        0.000000       -0.698564         1    ;  uncertainty k = 0.526371
         6        39        41        44     9      180.000000        2.960680         2    ;  uncertainty k = 0.512681
         6        39        41        44     9        0.000000        0.687187         3    ;  uncertainty k = 0.113477
         6        39        41        44     9      180.000000        0.204413         4    ;  uncertainty k = 0.024545
         7         1         2        23     9        0.000000       -0.317162         1    ;  uncertainty k = 0.457863
         7         1         2        23     9      180.000000        7.160003         2    ;  uncertainty k = 0.251145
         7         1         2        23     9        0.000000        0.612620         3    ;  uncertainty k = 0.100499
         7         1         2        23     9      180.000000        1.137308         4    ;  uncertainty k = 0.124649
         7         1         3        24     9        0.000000       -0.300301         1    ;  uncertainty k = 0.442684
         7         1         3        24     9      180.000000        7.168168         2    ;  uncertainty k = 0.307166
         7         1         3        24     9        0.000000        0.642609         3    ;  uncertainty k = 0.079308
         7         1         3        24     9      180.000000        1.126020         4    ;  uncertainty k = 0.099801
         7         8        15        20     9        0.000000       -0.506323         1    ;  uncertainty k = 0.435360
         7         8        15        20     9      180.000000        7.806488         2    ;  uncertainty k = 0.787850
         7         8        15        20     9        0.000000       -0.901239         3    ;  uncertainty k = 0.557189
         7         8        15        20     9      180.000000        1.182365         4    ;  uncertainty k = 0.313612
         7         8        15        22     9        0.000000       -0.971667         1    ;  uncertainty k = 0.773323
         7         8        15        22     9      180.000000        6.410240         2    ;  uncertainty k = 0.453743
         7         8        15        22     9        0.000000        0.062002         3    ;  uncertainty k = 0.333549
         7         8        15        22     9      180.000000        0.900964         4    ;  uncertainty k = 0.181112
         7        21        16        20     9        0.000000       -0.838040         1    ;  uncertainty k = 0.630002
         7        21        16        20     9      180.000000       16.491671         2    ;  uncertainty k = 0.367983
         7        21        16        20     9        0.000000        0.117143         3    ;  uncertainty k = 0.588350
         7        21        16        20     9      180.000000        1.174211         4    ;  uncertainty k = 0.277030
         7        21        16        34     9        0.000000       -0.417337         1    ;  uncertainty k = 0.440678
         7        21        16        34     9      180.000000       12.399687         2    ;  uncertainty k = 0.411943
         7        21        16        34     9        0.000000        1.723889         3    ;  uncertainty k = 0.672603
         7        21        16        34     9      180.000000        1.276809         4    ;  uncertainty k = 0.432440
         8         7        21        16     9        0.000000       -0.268663         1    ;  uncertainty k = 0.862005
         8         7        21        16     9      180.000000       13.375183         2    ;  uncertainty k = 0.526105
         8         7        21        16     9        0.000000        0.284937         3    ;  uncertainty k = 0.983711
         8         7        21        16     9      180.000000        1.131327         4    ;  uncertainty k = 0.379372
         8        15        20        16     9        0.000000       -0.350078         1    ;  uncertainty k = 0.812325
         8        15        20        16     9      180.000000        9.930014         2    ;  uncertainty k = 0.557509
         8        15        20        16     9        0.000000        0.516622         3    ;  uncertainty k = 0.789553
         8        15        20        16     9      180.000000        1.058186         4    ;  uncertainty k = 0.142047
         8        15        22         9     9        0.000000        5.603689         1    ;  uncertainty k = 0.487731
         8        15        22         9     9      180.000000        9.173858         2    ;  uncertainty k = 0.234225
         8        15        22         9     9        0.000000        0.682452         3    ;  uncertainty k = 0.250442
         8        15        22         9     9      180.000000       -0.440404         4    ;  uncertainty k = 0.169398
         8        15        22        37     9        0.000000        4.297370         1    ;  uncertainty k = 0.414563
         8        15        22        37     9      180.000000        7.947808         2    ;  uncertainty k = 0.147068
         8        15        22        37     9        0.000000        1.249630         3    ;  uncertainty k = 0.211856
         8        15        22        37     9      180.000000       -0.412992         4    ;  uncertainty k = 0.196225
         9        10        14        33     9        0.000000       16.539194         1    ;  uncertainty k = 0.182172
         9        10        14        33     9      180.000000       -3.181446         2    ;  uncertainty k = 0.394315
         9        10        14        33     9        0.000000        1.050863         3    ;  uncertainty k = 0.081907
         9        10        14        33     9      180.000000        0.368805         4    ;  uncertainty k = 0.156069
         9        10        19        12     9        0.000000       -0.273818         1    ;  uncertainty k = 0.106175
         9        10        19        12     9      180.000000        2.079481         2    ;  uncertainty k = 0.182501
         9        10        19        12     9        0.000000        0.512262         3    ;  uncertainty k = 0.147544
         9        10        19        12     9      180.000000        0.343982         4    ;  uncertainty k = 0.021980
         9        10        19        13     9        0.000000       -0.273818         1    ;  uncertainty k = 0.106175
         9        10        19        13     9      180.000000        2.079481         2    ;  uncertainty k = 0.182501
         9        10        19        13     9        0.000000        0.512262         3    ;  uncertainty k = 0.147544
         9        10        19        13     9      180.000000        0.343982         4    ;  uncertainty k = 0.021980
         9        22        15        20     9        0.000000        8.533711         1    ;  uncertainty k = 0.435190
         9        22        15        20     9      180.000000       12.802851         2    ;  uncertainty k = 0.140763
         9        22        15        20     9        0.000000        1.500694         3    ;  uncertainty k = 0.229157
         9        22        15        20     9      180.000000       -0.498831         4    ;  uncertainty k = 0.087310
        10         9        22        15     9        0.000000       -0.181203         1    ;  uncertainty k = 0.437855
        10         9        22        15     9      180.000000       -0.656643         2    ;  uncertainty k = 0.612261
        10         9        22        15     9        0.000000        0.233868         3    ;  uncertainty k = 0.313268
        10         9        22        15     9      180.000000        0.414120         4    ;  uncertainty k = 0.035681
        10         9        22        37     9        0.000000        3.680901         1    ;  uncertainty k = 0.713382
        10         9        22        37     9      180.000000       -3.627771         2    ;  uncertainty k = 0.381036
        10         9        22        37     9        0.000000        0.657609         3    ;  uncertainty k = 0.120801
        10         9        22        37     9      180.000000       -0.046604         4    ;  uncertainty k = 0.144754
        10        19        12        11     9        0.000000        0.277494         1    ;  uncertainty k = 0.259279
        10        19        12        11     9      180.000000        9.380655         2    ;  uncertainty k = 0.580889
        10        19        12        11     9        0.000000        1.260903         3    ;  uncertainty k = 0.297020
        10        19        12        11     9      180.000000        1.849205         4    ;  uncertainty k = 0.223533
        10        19        12        31     9        0.000000       -0.044601         1    ;  uncertainty k = 0.495487
        10        19        12        31     9      180.000000        7.557641         2    ;  uncertainty k = 0.152609
        10        19        12        31     9        0.000000        0.648505         3    ;  uncertainty k = 0.330112
        10        19        12        31     9      180.000000        0.986671         4    ;  uncertainty k = 0.169058
        10        19        13        18     9        0.000000        0.277494         1    ;  uncertainty k = 0.259279
        10        19        13        18     9      180.000000        9.380655         2    ;  uncertainty k = 0.580889
        10        19        13        18     9        0.000000        1.260903         3    ;  uncertainty k = 0.297020
        10        19        13        18     9      180.000000        1.849205         4    ;  uncertainty k = 0.223533
        10        19        13        32     9        0.000000       -0.044601         1    ;  uncertainty k = 0.495487
        10        19        13        32     9      180.000000        7.557641         2    ;  uncertainty k = 0.152609
        10        19        13        32     9        0.000000        0.648505         3    ;  uncertainty k = 0.330112
        10        19        13        32     9      180.000000        0.986671         4    ;  uncertainty k = 0.169058
        11        12        19        13     9        0.000000       -0.165953         1    ;  uncertainty k = 0.169992
        11        12        19        13     9      180.000000       11.757607         2    ;  uncertainty k = 0.401729
        11        12        19        13     9        0.000000       -0.505821         3    ;  uncertainty k = 0.348703
        11        12        19        13     9      180.000000        0.798513         4    ;  uncertainty k = 0.397673
        11        17        18        13     9        0.000000       -0.003189         1    ;  uncertainty k = 0.038440
        11        17        18        13     9      180.000000       15.016788         2    ;  uncertainty k = 0.249663
        11        17        18        13     9        0.000000       -1.210513         3    ;  uncertainty k = 0.492875
        11        17        18        13     9      180.000000        0.498916         4    ;  uncertainty k = 0.293179
        11        17        18        36     9        0.000000        0.038009         1    ;  uncertainty k = 0.035822
        11        17        18        36     9      180.000000        7.549305         2    ;  uncertainty k = 0.334350
        11        17        18        36     9        0.000000        1.438249         3    ;  uncertainty k = 0.318741
        11        17        18        36     9      180.000000        1.792783         4    ;  uncertainty k = 0.163179
        12        11        17        18     9        0.000000       -0.003189         1    ;  uncertainty k = 0.038440
        12        11        17        18     9      180.000000       15.016788         2    ;  uncertainty k = 0.249663
        12        11        17        18     9        0.000000       -1.210513         3    ;  uncertainty k = 0.492875
        12        11        17        18     9      180.000000        0.498916         4    ;  uncertainty k = 0.293179
        12        11        17        35     9        0.000000        0.056378         1    ;  uncertainty k = 0.091793
        12        11        17        35     9      180.000000        7.450064         2    ;  uncertainty k = 0.356222
        12        11        17        35     9        0.000000        1.472207         3    ;  uncertainty k = 0.287391
        12        11        17        35     9      180.000000        1.800180         4    ;  uncertainty k = 0.190036
        12        19        10        14     9        0.000000       -1.453975         1    ;  uncertainty k = 0.447986
        12        19        10        14     9      180.000000        3.360421         2    ;  uncertainty k = 0.198780
        12        19        10        14     9        0.000000        0.848407         3    ;  uncertainty k = 0.189850
        12        19        10        14     9      180.000000        0.435805         4    ;  uncertainty k = 0.036604
        12        19        10        29     9        0.000000       -0.600193         1    ;  uncertainty k = 0.218608
        12        19        10        29     9      180.000000        1.966965         2    ;  uncertainty k = 0.154440
        12        19        10        29     9        0.000000        0.553661         3    ;  uncertainty k = 0.127024
        12        19        10        29     9      180.000000        0.313797         4    ;  uncertainty k = 0.019730
        12        19        13        18     9        0.000000       -0.165953         1    ;  uncertainty k = 0.169992
        12        19        13        18     9      180.000000       11.757607         2    ;  uncertainty k = 0.401729
        12        19        13        18     9        0.000000       -0.505821         3    ;  uncertainty k = 0.348703
        12        19        13        18     9      180.000000        0.798513         4    ;  uncertainty k = 0.397673
        12        19        13        32     9        0.000000        0.131870         1    ;  uncertainty k = 0.167883
        12        19        13        32     9      180.000000        7.224544         2    ;  uncertainty k = 0.567570
        12        19        13        32     9        0.000000        1.415746         3    ;  uncertainty k = 0.327246
        12        19        13        32     9      180.000000        1.668075         4    ;  uncertainty k = 0.170613
        13        18        17        35     9        0.000000        0.056378         1    ;  uncertainty k = 0.091793
        13        18        17        35     9      180.000000        7.450064         2    ;  uncertainty k = 0.356222
        13        18        17        35     9        0.000000        1.472207         3    ;  uncertainty k = 0.287391
        13        18        17        35     9      180.000000        1.800180         4    ;  uncertainty k = 0.190036
        13        19        10        14     9        0.000000       -1.453975         1    ;  uncertainty k = 0.447986
        13        19        10        14     9      180.000000        3.360421         2    ;  uncertainty k = 0.198780
        13        19        10        14     9        0.000000        0.848407         3    ;  uncertainty k = 0.189850
        13        19        10        14     9      180.000000        0.435805         4    ;  uncertainty k = 0.036604
        13        19        10        29     9        0.000000       -0.600193         1    ;  uncertainty k = 0.218608
        13        19        10        29     9      180.000000        1.966965         2    ;  uncertainty k = 0.154440
        13        19        10        29     9        0.000000        0.553661         3    ;  uncertainty k = 0.127024
        13        19        10        29     9      180.000000        0.313797         4    ;  uncertainty k = 0.019730
        13        19        12        31     9        0.000000        0.131870         1    ;  uncertainty k = 0.167883
        13        19        12        31     9      180.000000        7.224544         2    ;  uncertainty k = 0.567570
        13        19        12        31     9        0.000000        1.415746         3    ;  uncertainty k = 0.327246
        13        19        12        31     9      180.000000        1.668075         4    ;  uncertainty k = 0.170613
        14        10         9        22     9        0.000000       -0.052607         1    ;  uncertainty k = 0.764083
        14        10         9        22     9      180.000000       -0.749437         2    ;  uncertainty k = 0.395318
        14        10         9        22     9        0.000000        1.713416         3    ;  uncertainty k = 0.321039
        14        10         9        22     9      180.000000       -0.561414         4    ;  uncertainty k = 0.195159
        14        10         9        27     9        0.000000       -1.242394         1    ;  uncertainty k = 0.559340
        14        10         9        27     9      180.000000       -0.234284         2    ;  uncertainty k = 0.168601
        14        10         9        27     9        0.000000        1.039378         3    ;  uncertainty k = 0.150261
        14        10         9        27     9      180.000000       -0.102798         4    ;  uncertainty k = 0.150575
        14        10         9        28     9        0.000000       -1.242394         1    ;  uncertainty k = 0.559340
        14        10         9        28     9      180.000000       -0.234284         2    ;  uncertainty k = 0.168601
        14        10         9        28     9        0.000000        1.039378         3    ;  uncertainty k = 0.150261
        14        10         9        28     9      180.000000       -0.102798         4    ;  uncertainty k = 0.150575
        15         8         7        21     9        0.000000       -0.233188         1    ;  uncertainty k = 0.469519
        15         8         7        21     9      180.000000       12.656979         2    ;  uncertainty k = 0.533111
        15         8         7        21     9        0.000000       -1.107037         3    ;  uncertainty k = 0.683368
        15         8         7        21     9      180.000000        1.025170         4    ;  uncertainty k = 0.331308
        15        20        16        21     9        0.000000       -0.727031         1    ;  uncertainty k = 1.154526
        15        20        16        21     9      180.000000       15.842485         2    ;  uncertainty k = 0.398145
        15        20        16        21     9        0.000000       -0.257081         3    ;  uncertainty k = 0.319591
        15        20        16        21     9      180.000000        0.992483         4    ;  uncertainty k = 0.176270
        15        20        16        34     9        0.000000       -0.392488         1    ;  uncertainty k = 0.864220
        15        20        16        34     9      180.000000       12.489467         2    ;  uncertainty k = 0.378782
        15        20        16        34     9        0.000000        1.355690         3    ;  uncertainty k = 0.760379
        15        20        16        34     9      180.000000        0.853020         4    ;  uncertainty k = 0.299132
        15        22         9        27     9        0.000000       -1.147632         1    ;  uncertainty k = 0.263721
        15        22         9        27     9      180.000000       -0.482322         2    ;  uncertainty k = 0.302946
        15        22         9        27     9        0.000000        0.226739         3    ;  uncertainty k = 0.211259
        15        22         9        27     9      180.000000        0.248702         4    ;  uncertainty k = 0.013743
        15        22         9        28     9        0.000000       -1.147632         1    ;  uncertainty k = 0.263721
        15        22         9        28     9      180.000000       -0.482322         2    ;  uncertainty k = 0.302946
        15        22         9        28     9        0.000000        0.226739         3    ;  uncertainty k = 0.211259
        15        22         9        28     9      180.000000        0.248702         4    ;  uncertainty k = 0.013743
        16        20        15        22     9        0.000000       -0.152560         1    ;  uncertainty k = 1.153662
        16        20        15        22     9      180.000000       12.736509         2    ;  uncertainty k = 0.218695
        16        20        15        22     9        0.000000        2.232715         3    ;  uncertainty k = 0.423520
        16        20        15        22     9      180.000000        1.585263         4    ;  uncertainty k = 0.416482
        17        11        12        19     9        0.000000       -0.091981         1    ;  uncertainty k = 0.109878
        17        11        12        19     9      180.000000       13.825977         2    ;  uncertainty k = 0.203920
        17        11        12        19     9        0.000000       -0.976820         3    ;  uncertainty k = 0.497977
        17        11        12        19     9      180.000000        0.702825         4    ;  uncertainty k = 0.246026
        17        11        12        31     9        0.000000        0.043151         1    ;  uncertainty k = 0.053762
        17        11        12        31     9      180.000000        7.853416         2    ;  uncertainty k = 0.298299
        17        11        12        31     9        0.000000        1.416969         3    ;  uncertainty k = 0.297576
        17        11        12        31     9      180.000000        1.844954         4    ;  uncertainty k = 0.168713
        17        18        13        19     9        0.000000       -0.091981         1    ;  uncertainty k = 0.109878
        17        18        13        19     9      180.000000       13.825977         2    ;  uncertainty k = 0.203920
        17        18        13        19     9        0.000000       -0.976820         3    ;  uncertainty k = 0.497977
        17        18        13        19     9      180.000000        0.702825         4    ;  uncertainty k = 0.246026
        17        18        13        32     9        0.000000        0.043151         1    ;  uncertainty k = 0.053762
        17        18        13        32     9      180.000000        7.853416         2    ;  uncertainty k = 0.298299
        17        18        13        32     9        0.000000        1.416969         3    ;  uncertainty k = 0.297576
        17        18        13        32     9      180.000000        1.844954         4    ;  uncertainty k = 0.168713
        18        17        11        30     9        0.000000        0.038009         1    ;  uncertainty k = 0.035822
        18        17        11        30     9      180.000000        7.549305         2    ;  uncertainty k = 0.334350
        18        17        11        30     9        0.000000        1.438249         3    ;  uncertainty k = 0.318741
        18        17        11        30     9      180.000000        1.792783         4    ;  uncertainty k = 0.163179
        19        10         9        22     9        0.000000       -2.195261         1    ;  uncertainty k = 0.395882
        19        10         9        22     9      180.000000       -0.031057         2    ;  uncertainty k = 0.681736
        19        10         9        22     9        0.000000        2.005161         3    ;  uncertainty k = 0.343930
        19        10         9        22     9      180.000000        0.115840         4    ;  uncertainty k = 0.059502
        19        10         9        27     9        0.000000       -0.032425         1    ;  uncertainty k = 0.325911
        19        10         9        27     9      180.000000        0.090710         2    ;  uncertainty k = 0.447956
        19        10         9        27     9        0.000000        0.614218         3    ;  uncertainty k = 0.070661
        19        10         9        27     9      180.000000       -0.058272         4    ;  uncertainty k = 0.097588
        19        10         9        28     9        0.000000       -0.032425         1    ;  uncertainty k = 0.325911
        19        10         9        28     9      180.000000        0.090710         2    ;  uncertainty k = 0.447956
        19        10         9        28     9        0.000000        0.614218         3    ;  uncertainty k = 0.070661
        19        10         9        28     9      180.000000       -0.058272         4    ;  uncertainty k = 0.097588
        19        10        14        33     9        0.000000       15.207439         1    ;  uncertainty k = 0.126759
        19        10        14        33     9      180.000000       -2.891249         2    ;  uncertainty k = 0.433974
        19        10        14        33     9        0.000000        1.036217         3    ;  uncertainty k = 0.050697
        19        10        14        33     9      180.000000        0.184126         4    ;  uncertainty k = 0.080140
        19        12        11        30     9        0.000000        0.047860         1    ;  uncertainty k = 0.232277
        19        12        11        30     9      180.000000        7.569870         2    ;  uncertainty k = 0.397811
        19        12        11        30     9        0.000000        1.467091         3    ;  uncertainty k = 0.255631
        19        12        11        30     9      180.000000        1.771465         4    ;  uncertainty k = 0.128664
        19        13        18        36     9        0.000000        0.047860         1    ;  uncertainty k = 0.232277
        19        13        18        36     9      180.000000        7.569870         2    ;  uncertainty k = 0.397811
        19        13        18        36     9        0.000000        1.467091         3    ;  uncertainty k = 0.255631
        19        13        18        36     9      180.000000        1.771465         4    ;  uncertainty k = 0.128664
        20        15         8        26     9        0.000000        0.249111         1    ;  uncertainty k = 0.450714
        20        15         8        26     9      180.000000        6.845142         2    ;  uncertainty k = 0.457090
        20        15         8        26     9        0.000000        1.342062         3    ;  uncertainty k = 0.374432
        20        15         8        26     9      180.000000        1.372476         4    ;  uncertainty k = 0.171953
        20        15        22        37     9        0.000000       12.912348         1    ;  uncertainty k = 0.293676
        20        15        22        37     9      180.000000        9.801748         2    ;  uncertainty k = 0.250858
        20        15        22        37     9        0.000000        0.647644         3    ;  uncertainty k = 0.160502
        20        15        22        37     9      180.000000       -0.317777         4    ;  uncertainty k = 0.163284
        21         7         8        26     9        0.000000        0.138804         1    ;  uncertainty k = 0.594173
        21         7         8        26     9      180.000000        9.235009         2    ;  uncertainty k = 0.467541
        21         7         8        26     9        0.000000        1.382381         3    ;  uncertainty k = 0.262412
        21         7         8        26     9      180.000000        1.571457         4    ;  uncertainty k = 0.158776
        22         9        10        29     9        0.000000       -0.572508         1    ;  uncertainty k = 0.377115
        22         9        10        29     9      180.000000       -0.600289         2    ;  uncertainty k = 0.341220
        22         9        10        29     9        0.000000        1.087420         3    ;  uncertainty k = 0.209284
        22         9        10        29     9      180.000000       -0.040588         4    ;  uncertainty k = 0.052009
        22        15         8        26     9        0.000000       -0.296826         1    ;  uncertainty k = 0.345651
        22        15         8        26     9      180.000000        5.479218         2    ;  uncertainty k = 0.647782
        22        15         8        26     9        0.000000        0.987843         3    ;  uncertainty k = 0.396911
        22        15         8        26     9      180.000000        0.695542         4    ;  uncertainty k = 0.197095
        23         2         4        38     9        0.000000       -0.256173         1    ;  uncertainty k = 0.353238
        23         2         4        38     9      180.000000        9.825872         2    ;  uncertainty k = 0.523112
        23         2         4        38     9        0.000000        0.853010         3    ;  uncertainty k = 0.128421
        23         2         4        38     9      180.000000        1.225547         4    ;  uncertainty k = 0.289996
        24         3         5        25     9        0.000000       -0.165185         1    ;  uncertainty k = 0.408265
        24         3         5        25     9      180.000000        8.244274         2    ;  uncertainty k = 0.456139
        24         3         5        25     9        0.000000       -0.295521         3    ;  uncertainty k = 0.275278
        24         3         5        25     9      180.000000        0.375948         4    ;  uncertainty k = 0.222054
        25         5         6        39     9        0.000000       -0.278057         1    ;  uncertainty k = 0.293444
        25         5         6        39     9      180.000000        7.848355         2    ;  uncertainty k = 0.238047
        25         5         6        39     9        0.000000        0.886395         3    ;  uncertainty k = 0.244315
        25         5         6        39     9      180.000000        1.176474         4    ;  uncertainty k = 0.159329
        27         9        10        29     9        0.000000       -0.062118         1    ;  uncertainty k = 0.175980
        27         9        10        29     9      180.000000       -0.346454         2    ;  uncertainty k = 0.237264
        27         9        10        29     9        0.000000       -0.035091         3    ;  uncertainty k = 0.145025
        27         9        10        29     9      180.000000       -0.049706         4    ;  uncertainty k = 0.074111
        27         9        22        37     9        0.000000        2.288821         1    ;  uncertainty k = 0.507795
        27         9        22        37     9      180.000000       -1.939761         2    ;  uncertainty k = 0.413857
        27         9        22        37     9        0.000000        0.268258         3    ;  uncertainty k = 0.084403
        27         9        22        37     9      180.000000        0.114796         4    ;  uncertainty k = 0.076861
        28         9        10        29     9        0.000000       -0.062118         1    ;  uncertainty k = 0.175980
        28         9        10        29     9      180.000000       -0.346454         2    ;  uncertainty k = 0.237264
        28         9        10        29     9        0.000000       -0.035091         3    ;  uncertainty k = 0.145025
        28         9        10        29     9      180.000000       -0.049706         4    ;  uncertainty k = 0.074111
        28         9        22        37     9        0.000000        2.288821         1    ;  uncertainty k = 0.507795
        28         9        22        37     9      180.000000       -1.939761         2    ;  uncertainty k = 0.413857
        28         9        22        37     9        0.000000        0.268258         3    ;  uncertainty k = 0.084403
        28         9        22        37     9      180.000000        0.114796         4    ;  uncertainty k = 0.076861
        29        10        14        33     9        0.000000       11.445024         1    ;  uncertainty k = 0.077908
        29        10        14        33     9      180.000000       -2.625800         2    ;  uncertainty k = 0.375643
        29        10        14        33     9        0.000000        0.698341         3    ;  uncertainty k = 0.074671
        29        10        14        33     9      180.000000        0.156691         4    ;  uncertainty k = 0.100510
        30        11        12        31     9        0.000000       -0.051759         1    ;  uncertainty k = 0.105402
        30        11        12        31     9      180.000000        7.644705         2    ;  uncertainty k = 0.306864
        30        11        12        31     9        0.000000       -0.441178         3    ;  uncertainty k = 0.237620
        30        11        12        31     9      180.000000        0.096993         4    ;  uncertainty k = 0.103181
        30        11        17        35     9        0.000000       -0.014778         1    ;  uncertainty k = 0.078555
        30        11        17        35     9      180.000000        7.498073         2    ;  uncertainty k = 0.337617
        30        11        17        35     9        0.000000       -0.424125         3    ;  uncertainty k = 0.279662
        30        11        17        35     9      180.000000        0.048151         4    ;  uncertainty k = 0.148926
        32        13        18        36     9        0.000000       -0.051759         1    ;  uncertainty k = 0.105402
        32        13        18        36     9      180.000000        7.644705         2    ;  uncertainty k = 0.306864
        32        13        18        36     9        0.000000       -0.441178         3    ;  uncertainty k = 0.237620
        32        13        18        36     9      180.000000        0.096993         4    ;  uncertainty k = 0.103181
        35        17        18        36     9        0.000000       -0.014778         1    ;  uncertainty k = 0.078555
        35        17        18        36     9      180.000000        7.498073         2    ;  uncertainty k = 0.337617
        35        17        18        36     9        0.000000       -0.424125         3    ;  uncertainty k = 0.279662
        35        17        18        36     9      180.000000        0.048151         4    ;  uncertainty k = 0.148926
        38         4         6        39     9        0.000000       -0.148560         1    ;  uncertainty k = 0.388441
        38         4         6        39     9      180.000000        9.429747         2    ;  uncertainty k = 0.319423
        38         4         6        39     9        0.000000        1.569928         3    ;  uncertainty k = 0.269355
        38         4         6        39     9      180.000000        1.390585         4    ;  uncertainty k = 0.228066
        40        39        41        42     9        0.000000        0.209994         1    ;  uncertainty k = 0.282513
        40        39        41        42     9      180.000000        5.300975         2    ;  uncertainty k = 0.253024
        40        39        41        42     9        0.000000        0.326360         3    ;  uncertainty k = 0.080992
        40        39        41        42     9      180.000000        0.245532         4    ;  uncertainty k = 0.036195
        40        39        41        43     9        0.000000        0.209994         1    ;  uncertainty k = 0.282513
        40        39        41        43     9      180.000000        5.300975         2    ;  uncertainty k = 0.253024
        40        39        41        43     9        0.000000        0.326360         3    ;  uncertainty k = 0.080992
        40        39        41        43     9      180.000000        0.245532         4    ;  uncertainty k = 0.036195
        40        39        41        44     9        0.000000        0.209994         1    ;  uncertainty k = 0.282513
        40        39        41        44     9      180.000000        5.300975         2    ;  uncertainty k = 0.253024
        40        39        41        44     9        0.000000        0.326360         3    ;  uncertainty k = 0.080992
        40        39        41        44     9      180.000000        0.245532         4    ;  uncertainty k = 0.036195

[ dihedrals ] ; impropers
;       ai        aj        ak        al funct           phase               k        pn
         1         2         3         7     4      180.000000       12.060642         2    ;  uncertainty k = 0.140136
         1         3         7         2     4      180.000000       12.060642         2    ;  uncertainty k = 0.140136
         1         7         2         3     4      180.000000       12.060642         2    ;  uncertainty k = 0.140136
         2         1         4        23     4      180.000000        2.253390         2    ;  uncertainty k = 0.202471
         2         4        23         1     4      180.000000        2.253390         2    ;  uncertainty k = 0.202471
         2        23         1         4     4      180.000000        2.253390         2    ;  uncertainty k = 0.202471
         3         1         5        24     4      180.000000        3.428318         2    ;  uncertainty k = 0.133541
         3         5        24         1     4      180.000000        3.428318         2    ;  uncertainty k = 0.133541
         3        24         1         5     4      180.000000        3.428318         2    ;  uncertainty k = 0.133541
         4         2         6        38     4      180.000000       18.355997         2    ;  uncertainty k = 0.066921
         4         6        38         2     4      180.000000       18.355997         2    ;  uncertainty k = 0.066921
         4        38         2         6     4      180.000000       18.355997         2    ;  uncertainty k = 0.066921
         5         3         6        25     4      180.000000        5.133578         2    ;  uncertainty k = 0.092069
         5         6        25         3     4      180.000000        5.133578         2    ;  uncertainty k = 0.092069
         5        25         3         6     4      180.000000        5.133578         2    ;  uncertainty k = 0.092069
         6         4         5        39     4      180.000000        8.195369         2    ;  uncertainty k = 0.218685
         6         5        39         4     4      180.000000        8.195369         2    ;  uncertainty k = 0.218685
         6        39         4         5     4      180.000000        8.195369         2    ;  uncertainty k = 0.218685
         7         1         8        21     4      180.000000       27.431037         2    ;  uncertainty k = 0.031069
         7         8        21         1     4      180.000000       27.431037         2    ;  uncertainty k = 0.031069
         7        21         1         8     4      180.000000       27.431037         2    ;  uncertainty k = 0.031069
         8         7        15        26     4      180.000000        1.770511         2    ;  uncertainty k = 0.425223
         8        15        26         7     4      180.000000        1.770511         2    ;  uncertainty k = 0.425223
         8        26         7        15     4      180.000000        1.770511         2    ;  uncertainty k = 0.425223
        11        12        17        30     4      180.000000        4.234205         2    ;  uncertainty k = 0.081881
        11        17        30        12     4      180.000000        4.234205         2    ;  uncertainty k = 0.081881
        11        30        12        17     4      180.000000        4.234205         2    ;  uncertainty k = 0.081881
        12        11        19        31     4      180.000000        3.983249         2    ;  uncertainty k = 0.116003
        12        19        31        11     4      180.000000        3.983249         2    ;  uncertainty k = 0.116003
        12        31        11        19     4      180.000000        3.983249         2    ;  uncertainty k = 0.116003
        13        18        19        32     4      180.000000        3.983249         2    ;  uncertainty k = 0.116003
        13        19        32        18     4      180.000000        3.983249         2    ;  uncertainty k = 0.116003
        13        32        18        19     4      180.000000        3.983249         2    ;  uncertainty k = 0.116003
        15         8        20        22     4      180.000000       34.921827         2    ;  uncertainty k = 0.079106
        15        20        22         8     4      180.000000       34.921827         2    ;  uncertainty k = 0.079106
        15        22         8        20     4      180.000000       34.921827         2    ;  uncertainty k = 0.079106
        16        20        21        34     4      180.000000       24.227487         2    ;  uncertainty k = 0.059569
        16        21        34        20     4      180.000000       24.227487         2    ;  uncertainty k = 0.059569
        16        34        20        21     4      180.000000       24.227487         2    ;  uncertainty k = 0.059569
        17        11        18        35     4      180.000000        4.404546         2    ;  uncertainty k = 0.145826
        17        18        35        11     4      180.000000        4.404546         2    ;  uncertainty k = 0.145826
        17        35        11        18     4      180.000000        4.404546         2    ;  uncertainty k = 0.145826
        18        13        17        36     4      180.000000        4.234205         2    ;  uncertainty k = 0.081881
        18        17        36        13     4      180.000000        4.234205         2    ;  uncertainty k = 0.081881
        18        36        13        17     4      180.000000        4.234205         2    ;  uncertainty k = 0.081881
        19        10        12        13     4      180.000000       12.157434         2    ;  uncertainty k = 0.087858
        19        12        13        10     4      180.000000       12.157434         2    ;  uncertainty k = 0.087858
        19        13        10        12     4      180.000000       12.157434         2    ;  uncertainty k = 0.087858
        22         9        15        37     4      180.000000        0.223430         2    ;  uncertainty k = 0.499605
        22        15        37         9     4      180.000000        0.223430         2    ;  uncertainty k = 0.499605
        22        37         9        15     4      180.000000        0.223430         2    ;  uncertainty k = 0.499605
        39         6        40        41     4      180.000000       56.428356         2    ;  uncertainty k = 0.034398
        39        40        41         6     4      180.000000       56.428356         2    ;  uncertainty k = 0.034398
        39        41         6        40     4      180.000000       56.428356         2    ;  uncertainty k = 0.034398

[ pairs ]
;       ai        aj funct
         1         6     1
         1        15     1
         1        16     1
         1        25     1
         1        26     1
         1        38     1
         2         5     1
         2         8     1
         2        21     1
         2        24     1
         2        39     1
         3         4     1
         3         8     1
         3        21     1
         3        23     1
         3        39     1
         4         7     1
         4        25     1
         4        40     1
         4        41     1
         5         7     1
         5        38     1
         5        40     1
         5        41     1
         6        23     1
         6        24     1
         6        42     1
         6        43     1
         6        44     1
         7        20     1
         7        22     1
         7        23     1
         7        24     1
         7        34     1
         8         9     1
         8        16     1
         8        37     1
         9        12     1
         9        13     1
         9        20     1
         9        33     1
        10        11     1
        10        15     1
        10        18     1
        10        31     1
        10        32     1
        10        37     1
        11        13     1
        11        36     1
        12        14     1
        12        18     1
        12        29     1
        12        32     1
        12        35     1
        13        14     1
        13        29     1
        13        31     1
        13        35     1
        14        22     1
        14        27     1
        14        28     1
        15        21     1
        15        27     1
        15        28     1
        15        34     1
        16        22     1
        17        19     1
        17        31     1
        17        32     1
        18        30     1
        19        22     1
        19        27     1
        19        28     1
        19        30     1
        19        33     1
        19        36     1
        20        26     1
        20        37     1
        21        26     1
        22        26     1
        22        29     1
        23        38     1
        24        25     1
        25        39     1
        27        29     1
        27        37     1
        28        29     1
        28        37     1
        29        33     1
        30        31     1
        30        35     1
        32        36     1
        35        36     1
        38        39     1
        40        42     1
        40        43     1
        40        44     1
