; ITP file created by ByteFF-joint-25, 2025-07-14 11:36:39.922927

[ atomtypes ]
;name           bonded.type        at.num        mass        charge   ptype           sigma         epsilon
 c0bf                                   6      0.0000       0.00000       A     3.31532e-01     4.13317e-01    ;  uncertainty sigma = 0.000011, epsilon = 0.000761
 c1bf                                   6      0.0000       0.00000       A     3.31520e-01     4.13591e-01    ;  uncertainty sigma = 0.000012, epsilon = 0.000696
 c2bf                                   6      0.0000       0.00000       A     3.31512e-01     4.13426e-01    ;  uncertainty sigma = 0.000007, epsilon = 0.000552
 c3bf                                   6      0.0000       0.00000       A     3.31512e-01     4.13414e-01    ;  uncertainty sigma = 0.000007, epsilon = 0.000706
 c4bf                                   6      0.0000       0.00000       A     3.31520e-01     4.13253e-01    ;  uncertainty sigma = 0.000004, epsilon = 0.000636
 c5bf                                   6      0.0000       0.00000       A     3.31510e-01     4.13382e-01    ;  uncertainty sigma = 0.000010, epsilon = 0.000870
 c6bf                                   6      0.0000       0.00000       A     3.31521e-01     4.13341e-01    ;  uncertainty sigma = 0.000016, epsilon = 0.000678
 c7bf                                   6      0.0000       0.00000       A     3.31527e-01     4.13260e-01    ;  uncertainty sigma = 0.000014, epsilon = 0.001138
 c8bf                                   6      0.0000       0.00000       A     3.39762e-01     4.50673e-01    ;  uncertainty sigma = 0.000011, epsilon = 0.001255
 c9bf                                   6      0.0000       0.00000       A     3.39750e-01     4.50544e-01    ;  uncertainty sigma = 0.000007, epsilon = 0.000791
 c10bf                                  6      0.0000       0.00000       A     3.31517e-01     4.13350e-01    ;  uncertainty sigma = 0.000003, epsilon = 0.000541
 c11bf                                  6      0.0000       0.00000       A     3.31519e-01     4.13304e-01    ;  uncertainty sigma = 0.000003, epsilon = 0.000583
 c12bf                                  6      0.0000       0.00000       A     3.31519e-01     4.13304e-01    ;  uncertainty sigma = 0.000003, epsilon = 0.000583
 o13bf                                  8      0.0000       0.00000       A     3.24257e-01     3.88598e-01    ;  uncertainty sigma = 0.000013, epsilon = 0.001596
 c14bf                                  6      0.0000       0.00000       A     3.31516e-01     4.13349e-01    ;  uncertainty sigma = 0.000011, epsilon = 0.000874
 c15bf                                  6      0.0000       0.00000       A     3.31502e-01     4.13579e-01    ;  uncertainty sigma = 0.000011, epsilon = 0.000388
 c16bf                                  6      0.0000       0.00000       A     3.31519e-01     4.13331e-01    ;  uncertainty sigma = 0.000003, epsilon = 0.000569
 c17bf                                  6      0.0000       0.00000       A     3.31517e-01     4.13350e-01    ;  uncertainty sigma = 0.000003, epsilon = 0.000541
 c18bf                                  6      0.0000       0.00000       A     3.31542e-01     4.12960e-01    ;  uncertainty sigma = 0.000004, epsilon = 0.000669
 n19bf                                  7      0.0000       0.00000       A     3.38417e-01     3.93373e-01    ;  uncertainty sigma = 0.000016, epsilon = 0.001202
 n20bf                                  7      0.0000       0.00000       A     3.38417e-01     3.93426e-01    ;  uncertainty sigma = 0.000018, epsilon = 0.000868
 n21bf                                  7      0.0000       0.00000       A     3.27787e-01     6.48850e-01    ;  uncertainty sigma = 0.000034, epsilon = 0.002592
 h22bf                                  1      0.0000       0.00000       A     2.62561e-01     6.70526e-02    ;  uncertainty sigma = 0.000015, epsilon = 0.000622
 h23bf                                  1      0.0000       0.00000       A     2.62565e-01     6.70447e-02    ;  uncertainty sigma = 0.000011, epsilon = 0.000506
 h24bf                                  1      0.0000       0.00000       A     2.62567e-01     6.70742e-02    ;  uncertainty sigma = 0.000016, epsilon = 0.000535
 h25bf                                  1      0.0000       0.00000       A     2.62541e-01     6.69041e-02    ;  uncertainty sigma = 0.000018, epsilon = 0.000969
 h26bf                                  1      0.0000       0.00000       A     2.42232e-01     8.67796e-02    ;  uncertainty sigma = 0.000037, epsilon = 0.000692
 h27bf                                  1      0.0000       0.00000       A     2.42232e-01     8.67796e-02    ;  uncertainty sigma = 0.000037, epsilon = 0.000692
 h28bf                                  1      0.0000       0.00000       A     2.42260e-01     8.69504e-02    ;  uncertainty sigma = 0.000011, epsilon = 0.000481
 h29bf                                  1      0.0000       0.00000       A     2.62558e-01     6.70324e-02    ;  uncertainty sigma = 0.000010, epsilon = 0.000442
 h30bf                                  1      0.0000       0.00000       A     2.62562e-01     6.70739e-02    ;  uncertainty sigma = 0.000004, epsilon = 0.000538
 h31bf                                  1      0.0000       0.00000       A     2.62562e-01     6.70739e-02    ;  uncertainty sigma = 0.000004, epsilon = 0.000538
 h32bf                                  1      0.0000       0.00000       A     5.38011e-02     1.91837e-02    ;  uncertainty sigma = 0.000073, epsilon = 0.000888
 h33bf                                  1      0.0000       0.00000       A     2.44735e-01     6.71447e-02    ;  uncertainty sigma = 0.000026, epsilon = 0.000712
 h34bf                                  1      0.0000       0.00000       A     2.62552e-01     6.70645e-02    ;  uncertainty sigma = 0.000011, epsilon = 0.000453
 h35bf                                  1      0.0000       0.00000       A     2.62558e-01     6.70324e-02    ;  uncertainty sigma = 0.000010, epsilon = 0.000442
 h36bf                                  1      0.0000       0.00000       A     1.10591e-01     4.16159e-02    ;  uncertainty sigma = 0.000130, epsilon = 0.000719
 f37bf                                  9      0.0000       0.00000       A     3.03457e-01     3.47920e-01    ;  uncertainty sigma = 0.000012, epsilon = 0.001035
 c38bf                                  6      0.0000       0.00000       A     3.39788e-01     4.50623e-01    ;  uncertainty sigma = 0.000015, epsilon = 0.000959
 f39bf                                  9      0.0000       0.00000       A     3.03412e-01     3.47871e-01    ;  uncertainty sigma = 0.000012, epsilon = 0.001199
 f40bf                                  9      0.0000       0.00000       A     3.03412e-01     3.47871e-01    ;  uncertainty sigma = 0.000012, epsilon = 0.001199
 f41bf                                  9      0.0000       0.00000       A     3.03412e-01     3.47871e-01    ;  uncertainty sigma = 0.000012, epsilon = 0.001199

[ moleculetype ]
;name             nrexcl
 MOL                   3

[ atoms ]
;       nr            type      resi   res      atom      cgnr      charge          mass ; qtot
         1            c0bf         1   UNL        c0         1    -0.11297       12.0110 ; qtot   -0.113
         2            c1bf         1   UNL        c1         2    -0.14107       12.0110 ; qtot   -0.254
         3            c2bf         1   UNL        c2         3    -0.11122       12.0110 ; qtot   -0.365
         4            c3bf         1   UNL        c3         4     0.18603       12.0110 ; qtot   -0.179
         5            c4bf         1   UNL        c4         5    -0.05405       12.0110 ; qtot   -0.233
         6            c5bf         1   UNL        c5         6    -0.22670       12.0110 ; qtot   -0.460
         7            c6bf         1   UNL        c6         7     0.52942       12.0110 ; qtot    0.069
         8            c7bf         1   UNL        c7         8    -0.41873       12.0110 ; qtot   -0.349
         9            c8bf         1   UNL        c8         9     0.20508       12.0110 ; qtot   -0.144
        10            c9bf         1   UNL        c9        10     0.17238       12.0110 ; qtot    0.028
        11           c10bf         1   UNL       c10        11    -0.13212       12.0110 ; qtot   -0.104
        12           c11bf         1   UNL       c11        12    -0.11431       12.0110 ; qtot   -0.218
        13           c12bf         1   UNL       c12        13    -0.11431       12.0110 ; qtot   -0.333
        14           o13bf         1   UNL       o13        14    -0.60202       15.9990 ; qtot   -0.935
        15           c14bf         1   UNL       c14        15     0.69818       12.0110 ; qtot   -0.236
        16           c15bf         1   UNL       c15        16     0.68025       12.0110 ; qtot    0.444
        17           c16bf         1   UNL       c16        17    -0.12191       12.0110 ; qtot    0.322
        18           c17bf         1   UNL       c17        18    -0.13212       12.0110 ; qtot    0.190
        19           c18bf         1   UNL       c18        19    -0.11806       12.0110 ; qtot    0.072
        20           n19bf         1   UNL       n19        20    -0.77724       14.0070 ; qtot   -0.705
        21           n20bf         1   UNL       n20        21    -0.73242       14.0070 ; qtot   -1.438
        22           n21bf         1   UNL       n21        22    -0.87199       14.0070 ; qtot   -2.310
        23           h22bf         1   UNL       h22        23     0.16768        1.0080 ; qtot   -2.142
        24           h23bf         1   UNL       h23        24     0.15391        1.0080 ; qtot   -1.988
        25           h24bf         1   UNL       h24        25     0.15993        1.0080 ; qtot   -1.828
        26           h25bf         1   UNL       h25        26     0.15255        1.0080 ; qtot   -1.676
        27           h26bf         1   UNL       h26        27     0.06384        1.0080 ; qtot   -1.612
        28           h27bf         1   UNL       h27        28     0.06384        1.0080 ; qtot   -1.548
        29           h28bf         1   UNL       h28        29     0.05801        1.0080 ; qtot   -1.490
        30           h29bf         1   UNL       h29        30     0.13206        1.0080 ; qtot   -1.358
        31           h30bf         1   UNL       h30        31     0.13699        1.0080 ; qtot   -1.221
        32           h31bf         1   UNL       h31        32     0.13699        1.0080 ; qtot   -1.084
        33           h32bf         1   UNL       h32        33     0.41310        1.0080 ; qtot   -0.671
        34           h33bf         1   UNL       h33        34     0.05077        1.0080 ; qtot   -0.620
        35           h34bf         1   UNL       h34        35     0.13198        1.0080 ; qtot   -0.488
        36           h35bf         1   UNL       h35        36     0.13206        1.0080 ; qtot   -0.356
        37           h36bf         1   UNL       h36        37     0.44064        1.0080 ; qtot    0.084
        38           f37bf         1   UNL       f37        38    -0.12807       18.9980 ; qtot   -0.044
        39           c38bf         1   UNL       c38        39     0.71999       12.0110 ; qtot    0.676
        40           f39bf         1   UNL       f39        40    -0.22546       18.9980 ; qtot    0.451
        41           f40bf         1   UNL       f40        41    -0.22546       18.9980 ; qtot    0.225
        42           f41bf         1   UNL       f41        42    -0.22545       18.9980 ; qtot   -0.000

[ bonds ]
;       ai        aj funct               r               k
         1         2     1        0.139444   353719.864746    ;  uncertainty r = 0.000037, k = 6.444065
         1         3     1        0.139574   344660.549658    ;  uncertainty r = 0.000052, k = 5.044196
         1         7     1        0.147333   259907.659082    ;  uncertainty r = 0.000047, k = 7.183466
         2         4     1        0.138574   351163.242578    ;  uncertainty r = 0.000085, k = 2.175109
         2        23     1        0.108694   335938.477637    ;  uncertainty r = 0.000032, k = 0.446386
         3         5     1        0.139017   361628.350000    ;  uncertainty r = 0.000043, k = 1.435139
         3        24     1        0.108666   333348.938135    ;  uncertainty r = 0.000039, k = 0.654532
         4         6     1        0.139169   349249.057471    ;  uncertainty r = 0.000056, k = 3.370451
         4        38     1        0.134957   336540.310693    ;  uncertainty r = 0.000105, k = 4.549614
         5         6     1        0.139080   358415.245361    ;  uncertainty r = 0.000064, k = 5.237262
         5        25     1        0.108533   331593.312939    ;  uncertainty r = 0.000023, k = 1.678546
         6        39     1        0.149953   218604.219287    ;  uncertainty r = 0.000065, k = 7.633302
         7         8     1        0.140259   426147.090723    ;  uncertainty r = 0.000059, k = 9.345561
         7        21     1        0.135547   395182.834863    ;  uncertainty r = 0.000047, k = 8.910870
         8        15     1        0.142200   437085.145410    ;  uncertainty r = 0.000074, k = 7.312812
         8        26     1        0.108982   347697.397168    ;  uncertainty r = 0.000060, k = 3.509310
         9        10     1        0.153528   198932.485962    ;  uncertainty r = 0.000113, k = 4.485541
         9        22     1        0.144360   258703.533301    ;  uncertainty r = 0.000127, k = 5.188267
         9        27     1        0.109548   306948.010498    ;  uncertainty r = 0.000056, k = 1.476386
         9        28     1        0.109548   306948.010498    ;  uncertainty r = 0.000056, k = 1.476386
        10        14     1        0.143014   262792.254346    ;  uncertainty r = 0.000086, k = 14.622904
        10        19     1        0.151556   222180.461621    ;  uncertainty r = 0.000089, k = 7.017739
        10        29     1        0.109828   303256.263818    ;  uncertainty r = 0.000046, k = 1.650587
        11        12     1        0.139619   365954.387402    ;  uncertainty r = 0.000008, k = 1.292992
        11        17     1        0.139616   371124.732715    ;  uncertainty r = 0.000020, k = 1.036768
        11        30     1        0.108853   334096.639160    ;  uncertainty r = 0.000011, k = 0.985251
        12        19     1        0.139806   351916.766064    ;  uncertainty r = 0.000010, k = 1.187834
        12        31     1        0.108853   333813.534766    ;  uncertainty r = 0.000015, k = 0.555194
        13        18     1        0.139619   365954.387402    ;  uncertainty r = 0.000008, k = 1.292992
        13        19     1        0.139806   351916.766064    ;  uncertainty r = 0.000010, k = 1.187834
        13        32     1        0.108853   333813.534766    ;  uncertainty r = 0.000015, k = 0.555194
        14        33     1        0.097118   460583.525195    ;  uncertainty r = 0.000045, k = 3.102113
        15        20     1        0.135563   598530.699805    ;  uncertainty r = 0.000139, k = 9.101913
        15        22     1        0.139244   503022.932227    ;  uncertainty r = 0.000156, k = 11.982701
        16        20     1        0.134248   427021.200439    ;  uncertainty r = 0.000126, k = 12.560964
        16        21     1        0.133902   409960.291797    ;  uncertainty r = 0.000038, k = 12.892596
        16        34     1        0.108823   332455.624512    ;  uncertainty r = 0.000016, k = 3.398046
        17        18     1        0.139616   371124.758252    ;  uncertainty r = 0.000020, k = 1.036768
        17        35     1        0.108851   334582.457129    ;  uncertainty r = 0.000012, k = 0.680670
        18        36     1        0.108853   334096.639160    ;  uncertainty r = 0.000011, k = 0.985251
        22        37     1        0.101725   420522.644531    ;  uncertainty r = 0.000069, k = 3.098785
        39        40     1        0.135225   284147.125781    ;  uncertainty r = 0.000041, k = 2.918844
        39        41     1        0.135225   284147.125781    ;  uncertainty r = 0.000041, k = 2.918844
        39        42     1        0.135225   284147.125781    ;  uncertainty r = 0.000041, k = 2.918844

[ angles ]
;       ai        aj        ak funct           theta             cth
         1         2         4     1      120.158920      492.249139    ;  uncertainty theta = 0.003671, k = 0.132307
         1         2        23     1      119.769569      262.318305    ;  uncertainty theta = 0.003209, k = 0.082669
         1         3         5     1      120.904617      524.970188    ;  uncertainty theta = 0.002019, k = 0.096591
         1         3        24     1      118.335228      268.832502    ;  uncertainty theta = 0.004121, k = 0.112787
         1         7         8     1      121.077454      397.042134    ;  uncertainty theta = 0.005596, k = 0.190761
         1         7        21     1      117.950577      473.682032    ;  uncertainty theta = 0.004505, k = 0.118433
         2         1         3     1      120.889633      420.653714    ;  uncertainty theta = 0.002649, k = 0.106026
         2         1         7     1      117.432068      397.697129    ;  uncertainty theta = 0.003313, k = 0.110921
         2         4         6     1      125.048973      365.541025    ;  uncertainty theta = 0.006470, k = 0.212008
         2         4        38     1      118.250755      514.921240    ;  uncertainty theta = 0.003359, k = 0.183125
         3         1         7     1      118.256943      400.767392    ;  uncertainty theta = 0.003339, k = 0.091990
         3         5         6     1      122.439285      504.358325    ;  uncertainty theta = 0.002499, k = 0.098393
         3         5        25     1      120.098984      276.514863    ;  uncertainty theta = 0.001803, k = 0.056814
         4         2        23     1      119.801132      281.867728    ;  uncertainty theta = 0.001964, k = 0.045429
         4         6         5     1      120.634178      444.903338    ;  uncertainty theta = 0.004012, k = 0.115418
         4         6        39     1      117.268517      350.897503    ;  uncertainty theta = 0.005232, k = 0.421412
         5         3        24     1      119.963333      288.881623    ;  uncertainty theta = 0.002750, k = 0.069908
         5         6        39     1      117.469398      358.676745    ;  uncertainty theta = 0.005529, k = 0.087944
         6         4        38     1      116.238991      484.734940    ;  uncertainty theta = 0.002034, k = 0.056991
         6         5        25     1      116.748573      266.283947    ;  uncertainty theta = 0.002302, k = 0.098848
         6        39        40     1      112.589706      661.023543    ;  uncertainty theta = 0.001378, k = 0.051907
         6        39        41     1      112.589706      661.023543    ;  uncertainty theta = 0.001378, k = 0.051907
         6        39        42     1      112.589706      661.023543    ;  uncertainty theta = 0.001378, k = 0.051907
         7         8        15     1      117.328995      473.468478    ;  uncertainty theta = 0.006490, k = 0.278543
         7         8        26     1      122.083511      274.806111    ;  uncertainty theta = 0.001872, k = 0.170102
         7        21        16     1      114.127907      410.698934    ;  uncertainty theta = 0.005161, k = 0.196602
         8         7        21     1      121.890884      595.728666    ;  uncertainty theta = 0.004047, k = 0.118861
         8        15        20     1      120.465775      559.577504    ;  uncertainty theta = 0.004274, k = 0.131688
         8        15        22     1      124.405197      635.166262    ;  uncertainty theta = 0.005407, k = 0.116906
         9        10        14     1      108.648598      745.773101    ;  uncertainty theta = 0.001850, k = 0.090465
         9        10        19     1      111.675133      529.233800    ;  uncertainty theta = 0.002433, k = 0.102801
         9        10        29     1      107.655739      397.413157    ;  uncertainty theta = 0.001835, k = 0.063660
         9        22        15     1      115.022720      415.197008    ;  uncertainty theta = 0.003932, k = 0.139541
         9        22        37     1      111.930687      338.512452    ;  uncertainty theta = 0.006639, k = 0.093922
        10         9        22     1      109.072731      588.135334    ;  uncertainty theta = 0.003588, k = 0.076167
        10         9        27     1      108.264954      386.766225    ;  uncertainty theta = 0.001128, k = 0.087129
        10         9        28     1      108.264954      386.766225    ;  uncertainty theta = 0.001128, k = 0.087129
        10        14        33     1      107.778908      462.824962    ;  uncertainty theta = 0.002314, k = 0.060682
        10        19        12     1      119.990318      398.450314    ;  uncertainty theta = 0.001704, k = 0.122614
        10        19        13     1      119.990318      398.450314    ;  uncertainty theta = 0.001704, k = 0.122614
        11        12        19     1      120.930702      517.466172    ;  uncertainty theta = 0.001222, k = 0.047814
        11        12        31     1      120.258339      291.729553    ;  uncertainty theta = 0.002156, k = 0.015437
        11        17        18     1      118.312904      525.474865    ;  uncertainty theta = 0.001259, k = 0.033725
        11        17        35     1      120.606750      289.256635    ;  uncertainty theta = 0.001707, k = 0.007155
        12        11        17     1      119.668961      514.607037    ;  uncertainty theta = 0.000852, k = 0.027695
        12        11        30     1      120.182228      283.193264    ;  uncertainty theta = 0.001483, k = 0.023123
        12        19        13     1      120.620529      467.609435    ;  uncertainty theta = 0.001046, k = 0.044080
        13        18        17     1      119.668961      514.607037    ;  uncertainty theta = 0.000852, k = 0.027695
        13        18        36     1      120.182228      283.193264    ;  uncertainty theta = 0.001483, k = 0.023123
        14        10        19     1      111.132469      757.316130    ;  uncertainty theta = 0.001813, k = 0.056225
        14        10        29     1      107.460892      475.171803    ;  uncertainty theta = 0.003128, k = 0.059555
        15         8        26     1      122.820290      279.161624    ;  uncertainty theta = 0.002177, k = 0.088284
        15        20        16     1      114.208336      402.225401    ;  uncertainty theta = 0.007184, k = 0.116286
        15        22        37     1      114.952065      412.285969    ;  uncertainty theta = 0.001414, k = 0.081088
        17        11        30     1      120.593102      287.981121    ;  uncertainty theta = 0.001462, k = 0.008017
        17        18        36     1      120.593102      287.981121    ;  uncertainty theta = 0.001462, k = 0.008017
        18        13        19     1      120.930702      517.466172    ;  uncertainty theta = 0.001222, k = 0.047814
        18        13        32     1      120.258339      291.729553    ;  uncertainty theta = 0.002156, k = 0.015437
        18        17        35     1      120.606750      289.256635    ;  uncertainty theta = 0.001707, k = 0.007155
        19        10        29     1      107.338806      403.998379    ;  uncertainty theta = 0.003013, k = 0.110102
        19        12        31     1      118.778320      265.740150    ;  uncertainty theta = 0.001504, k = 0.035529
        19        13        32     1      118.778320      265.740150    ;  uncertainty theta = 0.001504, k = 0.035529
        20        15        22     1      122.203979      876.041727    ;  uncertainty theta = 0.006036, k = 0.092665
        20        16        21     1      127.365524      928.346068    ;  uncertainty theta = 0.002641, k = 0.109018
        20        16        34     1      115.958923      303.662438    ;  uncertainty theta = 0.004108, k = 0.062101
        21        16        34     1      116.290024      310.582675    ;  uncertainty theta = 0.004161, k = 0.066237
        22         9        27     1      106.848366      448.950650    ;  uncertainty theta = 0.001286, k = 0.079205
        22         9        28     1      106.848366      448.950650    ;  uncertainty theta = 0.001286, k = 0.079205
        27         9        28     1      106.681496      323.153860    ;  uncertainty theta = 0.001150, k = 0.024224
        40        39        41     1      107.985374      805.813591    ;  uncertainty theta = 0.001035, k = 0.038582
        40        39        42     1      107.985374      805.813591    ;  uncertainty theta = 0.001035, k = 0.038582
        41        39        42     1      107.985374      805.813591    ;  uncertainty theta = 0.001035, k = 0.038582

[ dihedrals ] ; propers for gromacs 4.5 or higher, use funct 9
;       ai        aj        ak        al funct           phase               k        pn
         1         2         4         6     9        0.000000        0.120706         1    ;  uncertainty k = 0.339596
         1         2         4         6     9      180.000000        7.478233         2    ;  uncertainty k = 0.652506
         1         2         4         6     9        0.000000        0.395908         3    ;  uncertainty k = 0.386680
         1         2         4         6     9      180.000000        1.319957         4    ;  uncertainty k = 0.346742
         1         2         4        38     9        0.000000       -0.137102         1    ;  uncertainty k = 0.217213
         1         2         4        38     9      180.000000       13.153332         2    ;  uncertainty k = 0.194047
         1         2         4        38     9        0.000000        1.430082         3    ;  uncertainty k = 0.275619
         1         2         4        38     9      180.000000        1.478730         4    ;  uncertainty k = 0.085653
         1         3         5         6     9        0.000000       -0.066848         1    ;  uncertainty k = 0.532914
         1         3         5         6     9      180.000000       12.096174         2    ;  uncertainty k = 0.530832
         1         3         5         6     9        0.000000       -0.485849         3    ;  uncertainty k = 0.165199
         1         3         5         6     9      180.000000        0.940833         4    ;  uncertainty k = 0.337782
         1         3         5        25     9        0.000000       -0.023608         1    ;  uncertainty k = 0.096690
         1         3         5        25     9      180.000000        7.996988         2    ;  uncertainty k = 0.457704
         1         3         5        25     9        0.000000        1.267212         3    ;  uncertainty k = 0.220914
         1         3         5        25     9      180.000000        1.799590         4    ;  uncertainty k = 0.157299
         1         7         8        15     9        0.000000       -0.202077         1    ;  uncertainty k = 0.581324
         1         7         8        15     9      180.000000        7.693558         2    ;  uncertainty k = 0.937519
         1         7         8        15     9        0.000000        0.716069         3    ;  uncertainty k = 0.314021
         1         7         8        15     9      180.000000        1.153297         4    ;  uncertainty k = 0.369461
         1         7         8        26     9        0.000000       -0.209664         1    ;  uncertainty k = 1.017982
         1         7         8        26     9      180.000000        6.872827         2    ;  uncertainty k = 0.448939
         1         7         8        26     9        0.000000        0.707207         3    ;  uncertainty k = 0.264357
         1         7         8        26     9      180.000000        0.933621         4    ;  uncertainty k = 0.212252
         1         7        21        16     9        0.000000        0.096070         1    ;  uncertainty k = 0.556826
         1         7        21        16     9      180.000000       14.559270         2    ;  uncertainty k = 0.414385
         1         7        21        16     9        0.000000        2.104898         3    ;  uncertainty k = 0.277217
         1         7        21        16     9      180.000000        1.590533         4    ;  uncertainty k = 0.455595
         2         1         3         5     9        0.000000        0.123319         1    ;  uncertainty k = 0.147959
         2         1         3         5     9      180.000000       10.863476         2    ;  uncertainty k = 0.212439
         2         1         3         5     9        0.000000       -0.503743         3    ;  uncertainty k = 0.197074
         2         1         3         5     9      180.000000        0.945249         4    ;  uncertainty k = 0.231201
         2         1         3        24     9        0.000000        0.157583         1    ;  uncertainty k = 0.130156
         2         1         3        24     9      180.000000        7.060564         2    ;  uncertainty k = 0.550814
         2         1         3        24     9        0.000000        1.353357         3    ;  uncertainty k = 0.167990
         2         1         3        24     9      180.000000        1.635219         4    ;  uncertainty k = 0.257829
         2         1         7         8     9        0.000000       -0.237574         1    ;  uncertainty k = 0.479611
         2         1         7         8     9      180.000000        3.703177         2    ;  uncertainty k = 0.308468
         2         1         7         8     9        0.000000        0.395578         3    ;  uncertainty k = 0.223619
         2         1         7         8     9      180.000000       -0.105476         4    ;  uncertainty k = 0.081521
         2         1         7        21     9        0.000000        0.918594         1    ;  uncertainty k = 0.440684
         2         1         7        21     9      180.000000        5.109356         2    ;  uncertainty k = 0.205149
         2         1         7        21     9        0.000000        0.619459         3    ;  uncertainty k = 0.248901
         2         1         7        21     9      180.000000        0.120788         4    ;  uncertainty k = 0.056932
         2         4         6         5     9        0.000000       -0.271675         1    ;  uncertainty k = 0.304794
         2         4         6         5     9      180.000000        6.687223         2    ;  uncertainty k = 0.892264
         2         4         6         5     9        0.000000        0.270686         3    ;  uncertainty k = 0.382448
         2         4         6         5     9      180.000000        1.181926         4    ;  uncertainty k = 0.377844
         2         4         6        39     9        0.000000        0.252338         1    ;  uncertainty k = 0.238678
         2         4         6        39     9      180.000000        7.138173         2    ;  uncertainty k = 0.399515
         2         4         6        39     9        0.000000        1.331839         3    ;  uncertainty k = 0.428237
         2         4         6        39     9      180.000000        1.760907         4    ;  uncertainty k = 0.172157
         3         1         2         4     9        0.000000        0.321500         1    ;  uncertainty k = 0.262919
         3         1         2         4     9      180.000000       10.879206         2    ;  uncertainty k = 0.377921
         3         1         2         4     9        0.000000       -0.374372         3    ;  uncertainty k = 0.315423
         3         1         2         4     9      180.000000        1.050096         4    ;  uncertainty k = 0.244993
         3         1         2        23     9        0.000000        0.311385         1    ;  uncertainty k = 0.164130
         3         1         2        23     9      180.000000        6.971411         2    ;  uncertainty k = 0.505791
         3         1         2        23     9        0.000000        1.346016         3    ;  uncertainty k = 0.265200
         3         1         2        23     9      180.000000        1.645533         4    ;  uncertainty k = 0.264039
         3         1         7         8     9        0.000000       -0.366969         1    ;  uncertainty k = 0.533921
         3         1         7         8     9      180.000000        3.653985         2    ;  uncertainty k = 0.240227
         3         1         7         8     9        0.000000        0.407159         3    ;  uncertainty k = 0.232000
         3         1         7         8     9      180.000000       -0.126667         4    ;  uncertainty k = 0.078369
         3         1         7        21     9        0.000000        1.257990         1    ;  uncertainty k = 0.453128
         3         1         7        21     9      180.000000        4.911415         2    ;  uncertainty k = 0.156562
         3         1         7        21     9        0.000000        0.612850         3    ;  uncertainty k = 0.275425
         3         1         7        21     9      180.000000        0.112761         4    ;  uncertainty k = 0.036861
         3         5         6         4     9        0.000000       -0.172624         1    ;  uncertainty k = 0.167880
         3         5         6         4     9      180.000000       11.468067         2    ;  uncertainty k = 0.359688
         3         5         6         4     9        0.000000       -0.201725         3    ;  uncertainty k = 0.380372
         3         5         6         4     9      180.000000        1.044187         4    ;  uncertainty k = 0.301581
         3         5         6        39     9        0.000000        0.126102         1    ;  uncertainty k = 0.351187
         3         5         6        39     9      180.000000        9.736643         2    ;  uncertainty k = 0.739544
         3         5         6        39     9        0.000000        1.618621         3    ;  uncertainty k = 0.331426
         3         5         6        39     9      180.000000        1.985845         4    ;  uncertainty k = 0.374183
         4         2         1         7     9        0.000000        0.383665         1    ;  uncertainty k = 0.281437
         4         2         1         7     9      180.000000        8.248170         2    ;  uncertainty k = 0.594352
         4         2         1         7     9        0.000000        1.408336         3    ;  uncertainty k = 0.397408
         4         2         1         7     9      180.000000        1.768408         4    ;  uncertainty k = 0.094505
         4         6         5        25     9        0.000000       -0.056229         1    ;  uncertainty k = 0.084135
         4         6         5        25     9      180.000000        7.782776         2    ;  uncertainty k = 0.419285
         4         6         5        25     9        0.000000        1.208330         3    ;  uncertainty k = 0.376688
         4         6         5        25     9      180.000000        1.541270         4    ;  uncertainty k = 0.254063
         4         6        39        40     9        0.000000        0.025603         1    ;  uncertainty k = 0.352018
         4         6        39        40     9      180.000000        2.743153         2    ;  uncertainty k = 0.355641
         4         6        39        40     9        0.000000        0.869415         3    ;  uncertainty k = 0.105744
         4         6        39        40     9      180.000000        0.231021         4    ;  uncertainty k = 0.063612
         4         6        39        41     9        0.000000        0.025603         1    ;  uncertainty k = 0.352018
         4         6        39        41     9      180.000000        2.743153         2    ;  uncertainty k = 0.355641
         4         6        39        41     9        0.000000        0.869415         3    ;  uncertainty k = 0.105744
         4         6        39        41     9      180.000000        0.231021         4    ;  uncertainty k = 0.063612
         4         6        39        42     9        0.000000        0.025603         1    ;  uncertainty k = 0.352018
         4         6        39        42     9      180.000000        2.743153         2    ;  uncertainty k = 0.355641
         4         6        39        42     9        0.000000        0.869415         3    ;  uncertainty k = 0.105744
         4         6        39        42     9      180.000000        0.231021         4    ;  uncertainty k = 0.063612
         5         3         1         7     9        0.000000        0.353033         1    ;  uncertainty k = 0.621053
         5         3         1         7     9      180.000000        8.505875         2    ;  uncertainty k = 0.682530
         5         3         1         7     9        0.000000        1.323786         3    ;  uncertainty k = 0.387949
         5         3         1         7     9      180.000000        1.793556         4    ;  uncertainty k = 0.206749
         5         6         4        38     9        0.000000        0.128448         1    ;  uncertainty k = 0.222255
         5         6         4        38     9      180.000000       10.793514         2    ;  uncertainty k = 0.325662
         5         6         4        38     9        0.000000        1.509990         3    ;  uncertainty k = 0.224550
         5         6         4        38     9      180.000000        1.549139         4    ;  uncertainty k = 0.099046
         5         6        39        40     9        0.000000       -0.787680         1    ;  uncertainty k = 0.298793
         5         6        39        40     9      180.000000        2.628016         2    ;  uncertainty k = 0.232880
         5         6        39        40     9        0.000000        0.384463         3    ;  uncertainty k = 0.088735
         5         6        39        40     9      180.000000        0.148899         4    ;  uncertainty k = 0.036421
         5         6        39        41     9        0.000000       -0.787680         1    ;  uncertainty k = 0.298793
         5         6        39        41     9      180.000000        2.628016         2    ;  uncertainty k = 0.232880
         5         6        39        41     9        0.000000        0.384463         3    ;  uncertainty k = 0.088735
         5         6        39        41     9      180.000000        0.148899         4    ;  uncertainty k = 0.036421
         5         6        39        42     9        0.000000       -0.787680         1    ;  uncertainty k = 0.298793
         5         6        39        42     9      180.000000        2.628016         2    ;  uncertainty k = 0.232880
         5         6        39        42     9        0.000000        0.384463         3    ;  uncertainty k = 0.088735
         5         6        39        42     9      180.000000        0.148899         4    ;  uncertainty k = 0.036421
         6         4         2        23     9        0.000000        0.064902         1    ;  uncertainty k = 0.354926
         6         4         2        23     9      180.000000        5.590247         2    ;  uncertainty k = 0.503639
         6         4         2        23     9        0.000000        1.315581         3    ;  uncertainty k = 0.310010
         6         4         2        23     9      180.000000        1.609788         4    ;  uncertainty k = 0.158086
         6         5         3        24     9        0.000000        0.096534         1    ;  uncertainty k = 0.105916
         6         5         3        24     9      180.000000        7.711393         2    ;  uncertainty k = 0.405560
         6         5         3        24     9        0.000000        1.381944         3    ;  uncertainty k = 0.192406
         6         5         3        24     9      180.000000        1.873382         4    ;  uncertainty k = 0.174123
         7         1         2        23     9        0.000000       -0.345244         1    ;  uncertainty k = 0.448838
         7         1         2        23     9      180.000000        7.114689         2    ;  uncertainty k = 0.232212
         7         1         2        23     9        0.000000        0.626922         3    ;  uncertainty k = 0.131751
         7         1         2        23     9      180.000000        1.145127         4    ;  uncertainty k = 0.115234
         7         1         3        24     9        0.000000       -0.311494         1    ;  uncertainty k = 0.392013
         7         1         3        24     9      180.000000        7.233679         2    ;  uncertainty k = 0.320437
         7         1         3        24     9        0.000000        0.658548         3    ;  uncertainty k = 0.105261
         7         1         3        24     9      180.000000        1.147120         4    ;  uncertainty k = 0.089191
         7         8        15        20     9        0.000000       -0.506323         1    ;  uncertainty k = 0.435360
         7         8        15        20     9      180.000000        7.806488         2    ;  uncertainty k = 0.787850
         7         8        15        20     9        0.000000       -0.901239         3    ;  uncertainty k = 0.557189
         7         8        15        20     9      180.000000        1.182365         4    ;  uncertainty k = 0.313612
         7         8        15        22     9        0.000000       -0.971667         1    ;  uncertainty k = 0.773323
         7         8        15        22     9      180.000000        6.410240         2    ;  uncertainty k = 0.453743
         7         8        15        22     9        0.000000        0.062002         3    ;  uncertainty k = 0.333549
         7         8        15        22     9      180.000000        0.900964         4    ;  uncertainty k = 0.181112
         7        21        16        20     9        0.000000       -0.838040         1    ;  uncertainty k = 0.630002
         7        21        16        20     9      180.000000       16.491671         2    ;  uncertainty k = 0.367983
         7        21        16        20     9        0.000000        0.117143         3    ;  uncertainty k = 0.588350
         7        21        16        20     9      180.000000        1.174211         4    ;  uncertainty k = 0.277030
         7        21        16        34     9        0.000000       -0.417337         1    ;  uncertainty k = 0.440678
         7        21        16        34     9      180.000000       12.399687         2    ;  uncertainty k = 0.411943
         7        21        16        34     9        0.000000        1.723889         3    ;  uncertainty k = 0.672603
         7        21        16        34     9      180.000000        1.276809         4    ;  uncertainty k = 0.432440
         8         7        21        16     9        0.000000       -0.268663         1    ;  uncertainty k = 0.862005
         8         7        21        16     9      180.000000       13.375183         2    ;  uncertainty k = 0.526105
         8         7        21        16     9        0.000000        0.284937         3    ;  uncertainty k = 0.983711
         8         7        21        16     9      180.000000        1.131327         4    ;  uncertainty k = 0.379372
         8        15        20        16     9        0.000000       -0.350078         1    ;  uncertainty k = 0.812325
         8        15        20        16     9      180.000000        9.930014         2    ;  uncertainty k = 0.557509
         8        15        20        16     9        0.000000        0.516622         3    ;  uncertainty k = 0.789553
         8        15        20        16     9      180.000000        1.058186         4    ;  uncertainty k = 0.142047
         8        15        22         9     9        0.000000        5.603689         1    ;  uncertainty k = 0.487731
         8        15        22         9     9      180.000000        9.173858         2    ;  uncertainty k = 0.234225
         8        15        22         9     9        0.000000        0.682452         3    ;  uncertainty k = 0.250442
         8        15        22         9     9      180.000000       -0.440404         4    ;  uncertainty k = 0.169398
         8        15        22        37     9        0.000000        4.297370         1    ;  uncertainty k = 0.414563
         8        15        22        37     9      180.000000        7.947808         2    ;  uncertainty k = 0.147068
         8        15        22        37     9        0.000000        1.249630         3    ;  uncertainty k = 0.211856
         8        15        22        37     9      180.000000       -0.412992         4    ;  uncertainty k = 0.196225
         9        10        14        33     9        0.000000       16.539194         1    ;  uncertainty k = 0.182172
         9        10        14        33     9      180.000000       -3.181446         2    ;  uncertainty k = 0.394315
         9        10        14        33     9        0.000000        1.050863         3    ;  uncertainty k = 0.081907
         9        10        14        33     9      180.000000        0.368805         4    ;  uncertainty k = 0.156069
         9        10        19        12     9        0.000000       -0.273818         1    ;  uncertainty k = 0.106175
         9        10        19        12     9      180.000000        2.079481         2    ;  uncertainty k = 0.182501
         9        10        19        12     9        0.000000        0.512262         3    ;  uncertainty k = 0.147544
         9        10        19        12     9      180.000000        0.343982         4    ;  uncertainty k = 0.021980
         9        10        19        13     9        0.000000       -0.273818         1    ;  uncertainty k = 0.106175
         9        10        19        13     9      180.000000        2.079481         2    ;  uncertainty k = 0.182501
         9        10        19        13     9        0.000000        0.512262         3    ;  uncertainty k = 0.147544
         9        10        19        13     9      180.000000        0.343982         4    ;  uncertainty k = 0.021980
         9        22        15        20     9        0.000000        8.533711         1    ;  uncertainty k = 0.435190
         9        22        15        20     9      180.000000       12.802851         2    ;  uncertainty k = 0.140763
         9        22        15        20     9        0.000000        1.500694         3    ;  uncertainty k = 0.229157
         9        22        15        20     9      180.000000       -0.498831         4    ;  uncertainty k = 0.087310
        10         9        22        15     9        0.000000       -0.181203         1    ;  uncertainty k = 0.437855
        10         9        22        15     9      180.000000       -0.656643         2    ;  uncertainty k = 0.612261
        10         9        22        15     9        0.000000        0.233868         3    ;  uncertainty k = 0.313268
        10         9        22        15     9      180.000000        0.414120         4    ;  uncertainty k = 0.035681
        10         9        22        37     9        0.000000        3.680901         1    ;  uncertainty k = 0.713382
        10         9        22        37     9      180.000000       -3.627771         2    ;  uncertainty k = 0.381036
        10         9        22        37     9        0.000000        0.657609         3    ;  uncertainty k = 0.120801
        10         9        22        37     9      180.000000       -0.046604         4    ;  uncertainty k = 0.144754
        10        19        12        11     9        0.000000        0.277494         1    ;  uncertainty k = 0.259279
        10        19        12        11     9      180.000000        9.380655         2    ;  uncertainty k = 0.580889
        10        19        12        11     9        0.000000        1.260903         3    ;  uncertainty k = 0.297020
        10        19        12        11     9      180.000000        1.849205         4    ;  uncertainty k = 0.223533
        10        19        12        31     9        0.000000       -0.044601         1    ;  uncertainty k = 0.495487
        10        19        12        31     9      180.000000        7.557641         2    ;  uncertainty k = 0.152609
        10        19        12        31     9        0.000000        0.648505         3    ;  uncertainty k = 0.330112
        10        19        12        31     9      180.000000        0.986671         4    ;  uncertainty k = 0.169058
        10        19        13        18     9        0.000000        0.277494         1    ;  uncertainty k = 0.259279
        10        19        13        18     9      180.000000        9.380655         2    ;  uncertainty k = 0.580889
        10        19        13        18     9        0.000000        1.260903         3    ;  uncertainty k = 0.297020
        10        19        13        18     9      180.000000        1.849205         4    ;  uncertainty k = 0.223533
        10        19        13        32     9        0.000000       -0.044601         1    ;  uncertainty k = 0.495487
        10        19        13        32     9      180.000000        7.557641         2    ;  uncertainty k = 0.152609
        10        19        13        32     9        0.000000        0.648505         3    ;  uncertainty k = 0.330112
        10        19        13        32     9      180.000000        0.986671         4    ;  uncertainty k = 0.169058
        11        12        19        13     9        0.000000       -0.165953         1    ;  uncertainty k = 0.169992
        11        12        19        13     9      180.000000       11.757607         2    ;  uncertainty k = 0.401729
        11        12        19        13     9        0.000000       -0.505821         3    ;  uncertainty k = 0.348703
        11        12        19        13     9      180.000000        0.798513         4    ;  uncertainty k = 0.397673
        11        17        18        13     9        0.000000       -0.003189         1    ;  uncertainty k = 0.038440
        11        17        18        13     9      180.000000       15.016788         2    ;  uncertainty k = 0.249663
        11        17        18        13     9        0.000000       -1.210513         3    ;  uncertainty k = 0.492875
        11        17        18        13     9      180.000000        0.498916         4    ;  uncertainty k = 0.293179
        11        17        18        36     9        0.000000        0.038009         1    ;  uncertainty k = 0.035822
        11        17        18        36     9      180.000000        7.549305         2    ;  uncertainty k = 0.334350
        11        17        18        36     9        0.000000        1.438249         3    ;  uncertainty k = 0.318741
        11        17        18        36     9      180.000000        1.792783         4    ;  uncertainty k = 0.163179
        12        11        17        18     9        0.000000       -0.003189         1    ;  uncertainty k = 0.038440
        12        11        17        18     9      180.000000       15.016788         2    ;  uncertainty k = 0.249663
        12        11        17        18     9        0.000000       -1.210513         3    ;  uncertainty k = 0.492875
        12        11        17        18     9      180.000000        0.498916         4    ;  uncertainty k = 0.293179
        12        11        17        35     9        0.000000        0.056378         1    ;  uncertainty k = 0.091793
        12        11        17        35     9      180.000000        7.450064         2    ;  uncertainty k = 0.356222
        12        11        17        35     9        0.000000        1.472207         3    ;  uncertainty k = 0.287391
        12        11        17        35     9      180.000000        1.800180         4    ;  uncertainty k = 0.190036
        12        19        10        14     9        0.000000       -1.453975         1    ;  uncertainty k = 0.447986
        12        19        10        14     9      180.000000        3.360421         2    ;  uncertainty k = 0.198780
        12        19        10        14     9        0.000000        0.848407         3    ;  uncertainty k = 0.189850
        12        19        10        14     9      180.000000        0.435805         4    ;  uncertainty k = 0.036604
        12        19        10        29     9        0.000000       -0.600193         1    ;  uncertainty k = 0.218608
        12        19        10        29     9      180.000000        1.966965         2    ;  uncertainty k = 0.154440
        12        19        10        29     9        0.000000        0.553661         3    ;  uncertainty k = 0.127024
        12        19        10        29     9      180.000000        0.313797         4    ;  uncertainty k = 0.019730
        12        19        13        18     9        0.000000       -0.165953         1    ;  uncertainty k = 0.169992
        12        19        13        18     9      180.000000       11.757607         2    ;  uncertainty k = 0.401729
        12        19        13        18     9        0.000000       -0.505821         3    ;  uncertainty k = 0.348703
        12        19        13        18     9      180.000000        0.798513         4    ;  uncertainty k = 0.397673
        12        19        13        32     9        0.000000        0.131870         1    ;  uncertainty k = 0.167883
        12        19        13        32     9      180.000000        7.224544         2    ;  uncertainty k = 0.567570
        12        19        13        32     9        0.000000        1.415746         3    ;  uncertainty k = 0.327246
        12        19        13        32     9      180.000000        1.668075         4    ;  uncertainty k = 0.170613
        13        18        17        35     9        0.000000        0.056378         1    ;  uncertainty k = 0.091793
        13        18        17        35     9      180.000000        7.450064         2    ;  uncertainty k = 0.356222
        13        18        17        35     9        0.000000        1.472207         3    ;  uncertainty k = 0.287391
        13        18        17        35     9      180.000000        1.800180         4    ;  uncertainty k = 0.190036
        13        19        10        14     9        0.000000       -1.453975         1    ;  uncertainty k = 0.447986
        13        19        10        14     9      180.000000        3.360421         2    ;  uncertainty k = 0.198780
        13        19        10        14     9        0.000000        0.848407         3    ;  uncertainty k = 0.189850
        13        19        10        14     9      180.000000        0.435805         4    ;  uncertainty k = 0.036604
        13        19        10        29     9        0.000000       -0.600193         1    ;  uncertainty k = 0.218608
        13        19        10        29     9      180.000000        1.966965         2    ;  uncertainty k = 0.154440
        13        19        10        29     9        0.000000        0.553661         3    ;  uncertainty k = 0.127024
        13        19        10        29     9      180.000000        0.313797         4    ;  uncertainty k = 0.019730
        13        19        12        31     9        0.000000        0.131870         1    ;  uncertainty k = 0.167883
        13        19        12        31     9      180.000000        7.224544         2    ;  uncertainty k = 0.567570
        13        19        12        31     9        0.000000        1.415746         3    ;  uncertainty k = 0.327246
        13        19        12        31     9      180.000000        1.668075         4    ;  uncertainty k = 0.170613
        14        10         9        22     9        0.000000       -0.052607         1    ;  uncertainty k = 0.764083
        14        10         9        22     9      180.000000       -0.749437         2    ;  uncertainty k = 0.395318
        14        10         9        22     9        0.000000        1.713416         3    ;  uncertainty k = 0.321039
        14        10         9        22     9      180.000000       -0.561414         4    ;  uncertainty k = 0.195159
        14        10         9        27     9        0.000000       -1.242394         1    ;  uncertainty k = 0.559340
        14        10         9        27     9      180.000000       -0.234284         2    ;  uncertainty k = 0.168601
        14        10         9        27     9        0.000000        1.039378         3    ;  uncertainty k = 0.150261
        14        10         9        27     9      180.000000       -0.102798         4    ;  uncertainty k = 0.150575
        14        10         9        28     9        0.000000       -1.242394         1    ;  uncertainty k = 0.559340
        14        10         9        28     9      180.000000       -0.234284         2    ;  uncertainty k = 0.168601
        14        10         9        28     9        0.000000        1.039378         3    ;  uncertainty k = 0.150261
        14        10         9        28     9      180.000000       -0.102798         4    ;  uncertainty k = 0.150575
        15         8         7        21     9        0.000000       -0.233188         1    ;  uncertainty k = 0.469519
        15         8         7        21     9      180.000000       12.656979         2    ;  uncertainty k = 0.533111
        15         8         7        21     9        0.000000       -1.107037         3    ;  uncertainty k = 0.683368
        15         8         7        21     9      180.000000        1.025170         4    ;  uncertainty k = 0.331308
        15        20        16        21     9        0.000000       -0.727031         1    ;  uncertainty k = 1.154526
        15        20        16        21     9      180.000000       15.842485         2    ;  uncertainty k = 0.398145
        15        20        16        21     9        0.000000       -0.257081         3    ;  uncertainty k = 0.319591
        15        20        16        21     9      180.000000        0.992483         4    ;  uncertainty k = 0.176270
        15        20        16        34     9        0.000000       -0.392488         1    ;  uncertainty k = 0.864220
        15        20        16        34     9      180.000000       12.489467         2    ;  uncertainty k = 0.378782
        15        20        16        34     9        0.000000        1.355690         3    ;  uncertainty k = 0.760379
        15        20        16        34     9      180.000000        0.853020         4    ;  uncertainty k = 0.299132
        15        22         9        27     9        0.000000       -1.147632         1    ;  uncertainty k = 0.263721
        15        22         9        27     9      180.000000       -0.482322         2    ;  uncertainty k = 0.302946
        15        22         9        27     9        0.000000        0.226739         3    ;  uncertainty k = 0.211259
        15        22         9        27     9      180.000000        0.248702         4    ;  uncertainty k = 0.013743
        15        22         9        28     9        0.000000       -1.147632         1    ;  uncertainty k = 0.263721
        15        22         9        28     9      180.000000       -0.482322         2    ;  uncertainty k = 0.302946
        15        22         9        28     9        0.000000        0.226739         3    ;  uncertainty k = 0.211259
        15        22         9        28     9      180.000000        0.248702         4    ;  uncertainty k = 0.013743
        16        20        15        22     9        0.000000       -0.152560         1    ;  uncertainty k = 1.153662
        16        20        15        22     9      180.000000       12.736509         2    ;  uncertainty k = 0.218695
        16        20        15        22     9        0.000000        2.232715         3    ;  uncertainty k = 0.423520
        16        20        15        22     9      180.000000        1.585263         4    ;  uncertainty k = 0.416482
        17        11        12        19     9        0.000000       -0.091981         1    ;  uncertainty k = 0.109878
        17        11        12        19     9      180.000000       13.825977         2    ;  uncertainty k = 0.203920
        17        11        12        19     9        0.000000       -0.976820         3    ;  uncertainty k = 0.497977
        17        11        12        19     9      180.000000        0.702825         4    ;  uncertainty k = 0.246026
        17        11        12        31     9        0.000000        0.043151         1    ;  uncertainty k = 0.053762
        17        11        12        31     9      180.000000        7.853416         2    ;  uncertainty k = 0.298299
        17        11        12        31     9        0.000000        1.416969         3    ;  uncertainty k = 0.297576
        17        11        12        31     9      180.000000        1.844954         4    ;  uncertainty k = 0.168713
        17        18        13        19     9        0.000000       -0.091981         1    ;  uncertainty k = 0.109878
        17        18        13        19     9      180.000000       13.825977         2    ;  uncertainty k = 0.203920
        17        18        13        19     9        0.000000       -0.976820         3    ;  uncertainty k = 0.497977
        17        18        13        19     9      180.000000        0.702825         4    ;  uncertainty k = 0.246026
        17        18        13        32     9        0.000000        0.043151         1    ;  uncertainty k = 0.053762
        17        18        13        32     9      180.000000        7.853416         2    ;  uncertainty k = 0.298299
        17        18        13        32     9        0.000000        1.416969         3    ;  uncertainty k = 0.297576
        17        18        13        32     9      180.000000        1.844954         4    ;  uncertainty k = 0.168713
        18        17        11        30     9        0.000000        0.038009         1    ;  uncertainty k = 0.035822
        18        17        11        30     9      180.000000        7.549305         2    ;  uncertainty k = 0.334350
        18        17        11        30     9        0.000000        1.438249         3    ;  uncertainty k = 0.318741
        18        17        11        30     9      180.000000        1.792783         4    ;  uncertainty k = 0.163179
        19        10         9        22     9        0.000000       -2.195261         1    ;  uncertainty k = 0.395882
        19        10         9        22     9      180.000000       -0.031057         2    ;  uncertainty k = 0.681736
        19        10         9        22     9        0.000000        2.005161         3    ;  uncertainty k = 0.343930
        19        10         9        22     9      180.000000        0.115840         4    ;  uncertainty k = 0.059502
        19        10         9        27     9        0.000000       -0.032425         1    ;  uncertainty k = 0.325911
        19        10         9        27     9      180.000000        0.090710         2    ;  uncertainty k = 0.447956
        19        10         9        27     9        0.000000        0.614218         3    ;  uncertainty k = 0.070661
        19        10         9        27     9      180.000000       -0.058272         4    ;  uncertainty k = 0.097588
        19        10         9        28     9        0.000000       -0.032425         1    ;  uncertainty k = 0.325911
        19        10         9        28     9      180.000000        0.090710         2    ;  uncertainty k = 0.447956
        19        10         9        28     9        0.000000        0.614218         3    ;  uncertainty k = 0.070661
        19        10         9        28     9      180.000000       -0.058272         4    ;  uncertainty k = 0.097588
        19        10        14        33     9        0.000000       15.207439         1    ;  uncertainty k = 0.126759
        19        10        14        33     9      180.000000       -2.891249         2    ;  uncertainty k = 0.433974
        19        10        14        33     9        0.000000        1.036217         3    ;  uncertainty k = 0.050697
        19        10        14        33     9      180.000000        0.184126         4    ;  uncertainty k = 0.080140
        19        12        11        30     9        0.000000        0.047860         1    ;  uncertainty k = 0.232277
        19        12        11        30     9      180.000000        7.569870         2    ;  uncertainty k = 0.397811
        19        12        11        30     9        0.000000        1.467091         3    ;  uncertainty k = 0.255631
        19        12        11        30     9      180.000000        1.771465         4    ;  uncertainty k = 0.128664
        19        13        18        36     9        0.000000        0.047860         1    ;  uncertainty k = 0.232277
        19        13        18        36     9      180.000000        7.569870         2    ;  uncertainty k = 0.397811
        19        13        18        36     9        0.000000        1.467091         3    ;  uncertainty k = 0.255631
        19        13        18        36     9      180.000000        1.771465         4    ;  uncertainty k = 0.128664
        20        15         8        26     9        0.000000        0.249111         1    ;  uncertainty k = 0.450714
        20        15         8        26     9      180.000000        6.845142         2    ;  uncertainty k = 0.457090
        20        15         8        26     9        0.000000        1.342062         3    ;  uncertainty k = 0.374432
        20        15         8        26     9      180.000000        1.372476         4    ;  uncertainty k = 0.171953
        20        15        22        37     9        0.000000       12.912348         1    ;  uncertainty k = 0.293676
        20        15        22        37     9      180.000000        9.801748         2    ;  uncertainty k = 0.250858
        20        15        22        37     9        0.000000        0.647644         3    ;  uncertainty k = 0.160502
        20        15        22        37     9      180.000000       -0.317777         4    ;  uncertainty k = 0.163284
        21         7         8        26     9        0.000000        0.138804         1    ;  uncertainty k = 0.594173
        21         7         8        26     9      180.000000        9.235009         2    ;  uncertainty k = 0.467541
        21         7         8        26     9        0.000000        1.382381         3    ;  uncertainty k = 0.262412
        21         7         8        26     9      180.000000        1.571457         4    ;  uncertainty k = 0.158776
        22         9        10        29     9        0.000000       -0.572508         1    ;  uncertainty k = 0.377115
        22         9        10        29     9      180.000000       -0.600289         2    ;  uncertainty k = 0.341220
        22         9        10        29     9        0.000000        1.087420         3    ;  uncertainty k = 0.209284
        22         9        10        29     9      180.000000       -0.040588         4    ;  uncertainty k = 0.052009
        22        15         8        26     9        0.000000       -0.296826         1    ;  uncertainty k = 0.345651
        22        15         8        26     9      180.000000        5.479218         2    ;  uncertainty k = 0.647782
        22        15         8        26     9        0.000000        0.987843         3    ;  uncertainty k = 0.396911
        22        15         8        26     9      180.000000        0.695542         4    ;  uncertainty k = 0.197095
        23         2         4        38     9        0.000000       -0.285197         1    ;  uncertainty k = 0.293949
        23         2         4        38     9      180.000000        9.828960         2    ;  uncertainty k = 0.559959
        23         2         4        38     9        0.000000        0.845416         3    ;  uncertainty k = 0.135667
        23         2         4        38     9      180.000000        1.163987         4    ;  uncertainty k = 0.270550
        24         3         5        25     9        0.000000       -0.051458         1    ;  uncertainty k = 0.329502
        24         3         5        25     9      180.000000        8.181305         2    ;  uncertainty k = 0.457564
        24         3         5        25     9        0.000000       -0.336632         3    ;  uncertainty k = 0.239552
        24         3         5        25     9      180.000000        0.251807         4    ;  uncertainty k = 0.160434
        25         5         6        39     9        0.000000       -0.010020         1    ;  uncertainty k = 0.204257
        25         5         6        39     9      180.000000        8.686913         2    ;  uncertainty k = 0.509848
        25         5         6        39     9        0.000000        0.648986         3    ;  uncertainty k = 0.208354
        25         5         6        39     9      180.000000        1.026141         4    ;  uncertainty k = 0.121296
        27         9        10        29     9        0.000000       -0.062118         1    ;  uncertainty k = 0.175980
        27         9        10        29     9      180.000000       -0.346454         2    ;  uncertainty k = 0.237264
        27         9        10        29     9        0.000000       -0.035091         3    ;  uncertainty k = 0.145025
        27         9        10        29     9      180.000000       -0.049706         4    ;  uncertainty k = 0.074111
        27         9        22        37     9        0.000000        2.288821         1    ;  uncertainty k = 0.507795
        27         9        22        37     9      180.000000       -1.939761         2    ;  uncertainty k = 0.413857
        27         9        22        37     9        0.000000        0.268258         3    ;  uncertainty k = 0.084403
        27         9        22        37     9      180.000000        0.114796         4    ;  uncertainty k = 0.076861
        28         9        10        29     9        0.000000       -0.062118         1    ;  uncertainty k = 0.175980
        28         9        10        29     9      180.000000       -0.346454         2    ;  uncertainty k = 0.237264
        28         9        10        29     9        0.000000       -0.035091         3    ;  uncertainty k = 0.145025
        28         9        10        29     9      180.000000       -0.049706         4    ;  uncertainty k = 0.074111
        28         9        22        37     9        0.000000        2.288821         1    ;  uncertainty k = 0.507795
        28         9        22        37     9      180.000000       -1.939761         2    ;  uncertainty k = 0.413857
        28         9        22        37     9        0.000000        0.268258         3    ;  uncertainty k = 0.084403
        28         9        22        37     9      180.000000        0.114796         4    ;  uncertainty k = 0.076861
        29        10        14        33     9        0.000000       11.445025         1    ;  uncertainty k = 0.077908
        29        10        14        33     9      180.000000       -2.625800         2    ;  uncertainty k = 0.375643
        29        10        14        33     9        0.000000        0.698341         3    ;  uncertainty k = 0.074671
        29        10        14        33     9      180.000000        0.156691         4    ;  uncertainty k = 0.100510
        30        11        12        31     9        0.000000       -0.051759         1    ;  uncertainty k = 0.105402
        30        11        12        31     9      180.000000        7.644705         2    ;  uncertainty k = 0.306864
        30        11        12        31     9        0.000000       -0.441178         3    ;  uncertainty k = 0.237620
        30        11        12        31     9      180.000000        0.096993         4    ;  uncertainty k = 0.103181
        30        11        17        35     9        0.000000       -0.014778         1    ;  uncertainty k = 0.078555
        30        11        17        35     9      180.000000        7.498073         2    ;  uncertainty k = 0.337617
        30        11        17        35     9        0.000000       -0.424125         3    ;  uncertainty k = 0.279662
        30        11        17        35     9      180.000000        0.048151         4    ;  uncertainty k = 0.148926
        32        13        18        36     9        0.000000       -0.051759         1    ;  uncertainty k = 0.105402
        32        13        18        36     9      180.000000        7.644705         2    ;  uncertainty k = 0.306864
        32        13        18        36     9        0.000000       -0.441178         3    ;  uncertainty k = 0.237620
        32        13        18        36     9      180.000000        0.096993         4    ;  uncertainty k = 0.103181
        35        17        18        36     9        0.000000       -0.014778         1    ;  uncertainty k = 0.078555
        35        17        18        36     9      180.000000        7.498073         2    ;  uncertainty k = 0.337617
        35        17        18        36     9        0.000000       -0.424125         3    ;  uncertainty k = 0.279662
        35        17        18        36     9      180.000000        0.048151         4    ;  uncertainty k = 0.148926
        38         4         6        39     9        0.000000       -0.092206         1    ;  uncertainty k = 0.220152
        38         4         6        39     9      180.000000       11.900682         2    ;  uncertainty k = 0.372550
        38         4         6        39     9        0.000000        1.217309         3    ;  uncertainty k = 0.356660
        38         4         6        39     9      180.000000        1.250735         4    ;  uncertainty k = 0.292444

[ dihedrals ] ; impropers
;       ai        aj        ak        al funct           phase               k        pn
         1         2         3         7     4      180.000000       11.705781         2    ;  uncertainty k = 0.150281
         1         3         7         2     4      180.000000       11.705781         2    ;  uncertainty k = 0.150281
         1         7         2         3     4      180.000000       11.705781         2    ;  uncertainty k = 0.150281
         2         1         4        23     4      180.000000        2.421615         2    ;  uncertainty k = 0.328030
         2         4        23         1     4      180.000000        2.421615         2    ;  uncertainty k = 0.328030
         2        23         1         4     4      180.000000        2.421615         2    ;  uncertainty k = 0.328030
         3         1         5        24     4      180.000000        3.670234         2    ;  uncertainty k = 0.155387
         3         5        24         1     4      180.000000        3.670234         2    ;  uncertainty k = 0.155387
         3        24         1         5     4      180.000000        3.670234         2    ;  uncertainty k = 0.155387
         4         2         6        38     4      180.000000       17.886645         2    ;  uncertainty k = 0.049562
         4         6        38         2     4      180.000000       17.886645         2    ;  uncertainty k = 0.049562
         4        38         2         6     4      180.000000       17.886645         2    ;  uncertainty k = 0.049562
         5         3         6        25     4      180.000000        4.727899         2    ;  uncertainty k = 0.088143
         5         6        25         3     4      180.000000        4.727899         2    ;  uncertainty k = 0.088143
         5        25         3         6     4      180.000000        4.727899         2    ;  uncertainty k = 0.088143
         6         4         5        39     4      180.000000        6.327972         2    ;  uncertainty k = 0.215829
         6         5        39         4     4      180.000000        6.327972         2    ;  uncertainty k = 0.215829
         6        39         4         5     4      180.000000        6.327972         2    ;  uncertainty k = 0.215829
         7         1         8        21     4      180.000000       27.431037         2    ;  uncertainty k = 0.031069
         7         8        21         1     4      180.000000       27.431037         2    ;  uncertainty k = 0.031069
         7        21         1         8     4      180.000000       27.431037         2    ;  uncertainty k = 0.031069
         8         7        15        26     4      180.000000        1.770511         2    ;  uncertainty k = 0.425223
         8        15        26         7     4      180.000000        1.770511         2    ;  uncertainty k = 0.425223
         8        26         7        15     4      180.000000        1.770511         2    ;  uncertainty k = 0.425223
        11        12        17        30     4      180.000000        4.234205         2    ;  uncertainty k = 0.081881
        11        17        30        12     4      180.000000        4.234205         2    ;  uncertainty k = 0.081881
        11        30        12        17     4      180.000000        4.234205         2    ;  uncertainty k = 0.081881
        12        11        19        31     4      180.000000        3.983249         2    ;  uncertainty k = 0.116003
        12        19        31        11     4      180.000000        3.983249         2    ;  uncertainty k = 0.116003
        12        31        11        19     4      180.000000        3.983249         2    ;  uncertainty k = 0.116003
        13        18        19        32     4      180.000000        3.983249         2    ;  uncertainty k = 0.116003
        13        19        32        18     4      180.000000        3.983249         2    ;  uncertainty k = 0.116003
        13        32        18        19     4      180.000000        3.983249         2    ;  uncertainty k = 0.116003
        15         8        20        22     4      180.000000       34.921827         2    ;  uncertainty k = 0.079106
        15        20        22         8     4      180.000000       34.921827         2    ;  uncertainty k = 0.079106
        15        22         8        20     4      180.000000       34.921827         2    ;  uncertainty k = 0.079106
        16        20        21        34     4      180.000000       24.227487         2    ;  uncertainty k = 0.059569
        16        21        34        20     4      180.000000       24.227487         2    ;  uncertainty k = 0.059569
        16        34        20        21     4      180.000000       24.227487         2    ;  uncertainty k = 0.059569
        17        11        18        35     4      180.000000        4.404546         2    ;  uncertainty k = 0.145826
        17        18        35        11     4      180.000000        4.404546         2    ;  uncertainty k = 0.145826
        17        35        11        18     4      180.000000        4.404546         2    ;  uncertainty k = 0.145826
        18        13        17        36     4      180.000000        4.234205         2    ;  uncertainty k = 0.081881
        18        17        36        13     4      180.000000        4.234205         2    ;  uncertainty k = 0.081881
        18        36        13        17     4      180.000000        4.234205         2    ;  uncertainty k = 0.081881
        19        10        12        13     4      180.000000       12.157434         2    ;  uncertainty k = 0.087858
        19        12        13        10     4      180.000000       12.157434         2    ;  uncertainty k = 0.087858
        19        13        10        12     4      180.000000       12.157434         2    ;  uncertainty k = 0.087858
        22         9        15        37     4      180.000000        0.223430         2    ;  uncertainty k = 0.499605
        22        15        37         9     4      180.000000        0.223430         2    ;  uncertainty k = 0.499605
        22        37         9        15     4      180.000000        0.223430         2    ;  uncertainty k = 0.499605

[ pairs ]
;       ai        aj funct
         1         6     1
         1        15     1
         1        16     1
         1        25     1
         1        26     1
         1        38     1
         2         5     1
         2         8     1
         2        21     1
         2        24     1
         2        39     1
         3         4     1
         3         8     1
         3        21     1
         3        23     1
         3        39     1
         4         7     1
         4        25     1
         4        40     1
         4        41     1
         4        42     1
         5         7     1
         5        38     1
         5        40     1
         5        41     1
         5        42     1
         6        23     1
         6        24     1
         7        20     1
         7        22     1
         7        23     1
         7        24     1
         7        34     1
         8         9     1
         8        16     1
         8        37     1
         9        12     1
         9        13     1
         9        20     1
         9        33     1
        10        11     1
        10        15     1
        10        18     1
        10        31     1
        10        32     1
        10        37     1
        11        13     1
        11        36     1
        12        14     1
        12        18     1
        12        29     1
        12        32     1
        12        35     1
        13        14     1
        13        29     1
        13        31     1
        13        35     1
        14        22     1
        14        27     1
        14        28     1
        15        21     1
        15        27     1
        15        28     1
        15        34     1
        16        22     1
        17        19     1
        17        31     1
        17        32     1
        18        30     1
        19        22     1
        19        27     1
        19        28     1
        19        30     1
        19        33     1
        19        36     1
        20        26     1
        20        37     1
        21        26     1
        22        26     1
        22        29     1
        23        38     1
        24        25     1
        25        39     1
        27        29     1
        27        37     1
        28        29     1
        28        37     1
        29        33     1
        30        31     1
        30        35     1
        32        36     1
        35        36     1
        38        39     1
