; ITP file created by ByteFF-joint-25, 2025-07-14 11:36:41.924681

[ atomtypes ]
;name           bonded.type        at.num        mass        charge   ptype           sigma         epsilon
 c0bf                                   6      0.0000       0.00000       A     3.31517e-01     4.13269e-01    ;  uncertainty sigma = 0.000012, epsilon = 0.000946
 c1bf                                   6      0.0000       0.00000       A     3.31512e-01     4.13206e-01    ;  uncertainty sigma = 0.000006, epsilon = 0.001067
 c2bf                                   6      0.0000       0.00000       A     3.31518e-01     4.13459e-01    ;  uncertainty sigma = 0.000007, epsilon = 0.000601
 c3bf                                   6      0.0000       0.00000       A     3.31485e-01     4.13679e-01    ;  uncertainty sigma = 0.000011, epsilon = 0.001462
 c4bf                                   6      0.0000       0.00000       A     3.31522e-01     4.13245e-01    ;  uncertainty sigma = 0.000005, epsilon = 0.000551
 c5bf                                   6      0.0000       0.00000       A     3.31521e-01     4.13271e-01    ;  uncertainty sigma = 0.000008, epsilon = 0.000352
 c6bf                                   6      0.0000       0.00000       A     3.31522e-01     4.13381e-01    ;  uncertainty sigma = 0.000016, epsilon = 0.000628
 c7bf                                   6      0.0000       0.00000       A     3.31527e-01     4.13260e-01    ;  uncertainty sigma = 0.000014, epsilon = 0.001138
 c8bf                                   6      0.0000       0.00000       A     3.39762e-01     4.50673e-01    ;  uncertainty sigma = 0.000011, epsilon = 0.001255
 c9bf                                   6      0.0000       0.00000       A     3.39750e-01     4.50544e-01    ;  uncertainty sigma = 0.000007, epsilon = 0.000791
 c10bf                                  6      0.0000       0.00000       A     3.31517e-01     4.13350e-01    ;  uncertainty sigma = 0.000003, epsilon = 0.000541
 c11bf                                  6      0.0000       0.00000       A     3.31519e-01     4.13304e-01    ;  uncertainty sigma = 0.000003, epsilon = 0.000583
 c12bf                                  6      0.0000       0.00000       A     3.31519e-01     4.13304e-01    ;  uncertainty sigma = 0.000003, epsilon = 0.000583
 o13bf                                  8      0.0000       0.00000       A     3.24257e-01     3.88598e-01    ;  uncertainty sigma = 0.000013, epsilon = 0.001596
 c14bf                                  6      0.0000       0.00000       A     3.31516e-01     4.13349e-01    ;  uncertainty sigma = 0.000011, epsilon = 0.000874
 c15bf                                  6      0.0000       0.00000       A     3.31502e-01     4.13579e-01    ;  uncertainty sigma = 0.000011, epsilon = 0.000388
 c16bf                                  6      0.0000       0.00000       A     3.31519e-01     4.13331e-01    ;  uncertainty sigma = 0.000003, epsilon = 0.000569
 c17bf                                  6      0.0000       0.00000       A     3.31517e-01     4.13350e-01    ;  uncertainty sigma = 0.000003, epsilon = 0.000541
 c18bf                                  6      0.0000       0.00000       A     3.31542e-01     4.12960e-01    ;  uncertainty sigma = 0.000004, epsilon = 0.000669
 n19bf                                  7      0.0000       0.00000       A     3.38417e-01     3.93373e-01    ;  uncertainty sigma = 0.000016, epsilon = 0.001202
 n20bf                                  7      0.0000       0.00000       A     3.38417e-01     3.93426e-01    ;  uncertainty sigma = 0.000018, epsilon = 0.000868
 n21bf                                  7      0.0000       0.00000       A     3.27787e-01     6.48850e-01    ;  uncertainty sigma = 0.000034, epsilon = 0.002592
 h22bf                                  1      0.0000       0.00000       A     2.62569e-01     6.74280e-02    ;  uncertainty sigma = 0.000013, epsilon = 0.000910
 h23bf                                  1      0.0000       0.00000       A     2.62562e-01     6.70254e-02    ;  uncertainty sigma = 0.000011, epsilon = 0.000579
 h24bf                                  1      0.0000       0.00000       A     2.62566e-01     6.70373e-02    ;  uncertainty sigma = 0.000010, epsilon = 0.000567
 h25bf                                  1      0.0000       0.00000       A     2.62541e-01     6.69041e-02    ;  uncertainty sigma = 0.000018, epsilon = 0.000969
 h26bf                                  1      0.0000       0.00000       A     2.42232e-01     8.67796e-02    ;  uncertainty sigma = 0.000037, epsilon = 0.000692
 h27bf                                  1      0.0000       0.00000       A     2.42232e-01     8.67796e-02    ;  uncertainty sigma = 0.000037, epsilon = 0.000692
 h28bf                                  1      0.0000       0.00000       A     2.42260e-01     8.69504e-02    ;  uncertainty sigma = 0.000011, epsilon = 0.000481
 h29bf                                  1      0.0000       0.00000       A     2.62558e-01     6.70324e-02    ;  uncertainty sigma = 0.000010, epsilon = 0.000442
 h30bf                                  1      0.0000       0.00000       A     2.62562e-01     6.70739e-02    ;  uncertainty sigma = 0.000004, epsilon = 0.000538
 h31bf                                  1      0.0000       0.00000       A     2.62562e-01     6.70739e-02    ;  uncertainty sigma = 0.000004, epsilon = 0.000538
 h32bf                                  1      0.0000       0.00000       A     5.38011e-02     1.91837e-02    ;  uncertainty sigma = 0.000073, epsilon = 0.000888
 h33bf                                  1      0.0000       0.00000       A     2.44735e-01     6.71447e-02    ;  uncertainty sigma = 0.000026, epsilon = 0.000712
 h34bf                                  1      0.0000       0.00000       A     2.62552e-01     6.70645e-02    ;  uncertainty sigma = 0.000011, epsilon = 0.000453
 h35bf                                  1      0.0000       0.00000       A     2.62558e-01     6.70324e-02    ;  uncertainty sigma = 0.000010, epsilon = 0.000442
 h36bf                                  1      0.0000       0.00000       A     1.10591e-01     4.16159e-02    ;  uncertainty sigma = 0.000130, epsilon = 0.000719
 c37bf                                  6      0.0000       0.00000       A     3.39788e-01     4.50680e-01    ;  uncertainty sigma = 0.000017, epsilon = 0.001293
 cl38bf                                17      0.0000       0.00000       A     3.46667e-01     1.10524e+00    ;  uncertainty sigma = 0.000019, epsilon = 0.001757
 f39bf                                  9      0.0000       0.00000       A     3.03413e-01     3.47814e-01    ;  uncertainty sigma = 0.000011, epsilon = 0.001221
 f40bf                                  9      0.0000       0.00000       A     3.03413e-01     3.47814e-01    ;  uncertainty sigma = 0.000011, epsilon = 0.001221
 f41bf                                  9      0.0000       0.00000       A     3.03413e-01     3.47814e-01    ;  uncertainty sigma = 0.000011, epsilon = 0.001221

[ moleculetype ]
;name             nrexcl
 MOL                   3

[ atoms ]
;       nr            type      resi   res      atom      cgnr      charge          mass ; qtot
         1            c0bf         1   UNL        c0         1    -0.14590       12.0110 ; qtot   -0.146
         2            c1bf         1   UNL        c1         2    -0.03897       12.0110 ; qtot   -0.185
         3            c2bf         1   UNL        c2         3    -0.07193       12.0110 ; qtot   -0.257
         4            c3bf         1   UNL        c3         4    -0.18694       12.0110 ; qtot   -0.444
         5            c4bf         1   UNL        c4         5    -0.13144       12.0110 ; qtot   -0.575
         6            c5bf         1   UNL        c5         6     0.08419       12.0110 ; qtot   -0.491
         7            c6bf         1   UNL        c6         7     0.52530       12.0110 ; qtot    0.034
         8            c7bf         1   UNL        c7         8    -0.42185       12.0110 ; qtot   -0.388
         9            c8bf         1   UNL        c8         9     0.20508       12.0110 ; qtot   -0.182
        10            c9bf         1   UNL        c9        10     0.17238       12.0110 ; qtot   -0.010
        11           c10bf         1   UNL       c10        11    -0.13212       12.0110 ; qtot   -0.142
        12           c11bf         1   UNL       c11        12    -0.11431       12.0110 ; qtot   -0.257
        13           c12bf         1   UNL       c12        13    -0.11431       12.0110 ; qtot   -0.371
        14           o13bf         1   UNL       o13        14    -0.60202       15.9990 ; qtot   -0.973
        15           c14bf         1   UNL       c14        15     0.69818       12.0110 ; qtot   -0.275
        16           c15bf         1   UNL       c15        16     0.68025       12.0110 ; qtot    0.406
        17           c16bf         1   UNL       c16        17    -0.12191       12.0110 ; qtot    0.284
        18           c17bf         1   UNL       c17        18    -0.13212       12.0110 ; qtot    0.152
        19           c18bf         1   UNL       c18        19    -0.11806       12.0110 ; qtot    0.034
        20           n19bf         1   UNL       n19        20    -0.77724       14.0070 ; qtot   -0.744
        21           n20bf         1   UNL       n20        21    -0.73428       14.0070 ; qtot   -1.478
        22           n21bf         1   UNL       n21        22    -0.87199       14.0070 ; qtot   -2.350
        23           h22bf         1   UNL       h22        23     0.17010        1.0080 ; qtot   -2.180
        24           h23bf         1   UNL       h23        24     0.14913        1.0080 ; qtot   -2.031
        25           h24bf         1   UNL       h24        25     0.15947        1.0080 ; qtot   -1.871
        26           h25bf         1   UNL       h25        26     0.15255        1.0080 ; qtot   -1.719
        27           h26bf         1   UNL       h26        27     0.06384        1.0080 ; qtot   -1.655
        28           h27bf         1   UNL       h27        28     0.06384        1.0080 ; qtot   -1.591
        29           h28bf         1   UNL       h28        29     0.05801        1.0080 ; qtot   -1.533
        30           h29bf         1   UNL       h29        30     0.13206        1.0080 ; qtot   -1.401
        31           h30bf         1   UNL       h30        31     0.13699        1.0080 ; qtot   -1.264
        32           h31bf         1   UNL       h31        32     0.13699        1.0080 ; qtot   -1.127
        33           h32bf         1   UNL       h32        33     0.41310        1.0080 ; qtot   -0.714
        34           h33bf         1   UNL       h33        34     0.05077        1.0080 ; qtot   -0.663
        35           h34bf         1   UNL       h34        35     0.13198        1.0080 ; qtot   -0.531
        36           h35bf         1   UNL       h35        36     0.13206        1.0080 ; qtot   -0.399
        37           h36bf         1   UNL       h36        37     0.44064        1.0080 ; qtot    0.042
        38           c37bf         1   UNL       c37        38     0.71474       12.0110 ; qtot    0.756
        39          cl38bf         1   UNL      cl38        39    -0.08307       35.4530 ; qtot    0.673
        40           f39bf         1   UNL       f39        40    -0.22440       18.9980 ; qtot    0.449
        41           f40bf         1   UNL       f40        41    -0.22440       18.9980 ; qtot    0.224
        42           f41bf         1   UNL       f41        42    -0.22439       18.9980 ; qtot   -0.000

[ bonds ]
;       ai        aj funct               r               k
         1         2     1        0.139346   341008.053516    ;  uncertainty r = 0.000055, k = 3.301704
         1         3     1        0.139727   344251.930371    ;  uncertainty r = 0.000049, k = 1.719518
         1         7     1        0.147388   258550.182959    ;  uncertainty r = 0.000075, k = 6.760167
         2         4     1        0.138713   345956.328125    ;  uncertainty r = 0.000109, k = 5.742052
         2        23     1        0.108471   332642.581689    ;  uncertainty r = 0.000049, k = 2.497678
         3         5     1        0.138961   371803.892139    ;  uncertainty r = 0.000066, k = 1.761910
         3        24     1        0.108662   333687.815576    ;  uncertainty r = 0.000026, k = 1.174169
         4         6     1        0.139837   342761.686816    ;  uncertainty r = 0.000070, k = 5.939116
         4        38     1        0.150183   219719.501465    ;  uncertainty r = 0.000049, k = 9.779630
         5         6     1        0.139536   359889.706982    ;  uncertainty r = 0.000030, k = 6.069854
         5        25     1        0.108692   334900.087695    ;  uncertainty r = 0.000015, k = 0.750015
         6        39     1        0.174833   193157.894336    ;  uncertainty r = 0.000101, k = 1.973416
         7         8     1        0.140348   428110.971045    ;  uncertainty r = 0.000064, k = 9.515517
         7        21     1        0.135597   395478.018311    ;  uncertainty r = 0.000037, k = 8.602592
         8        15     1        0.142200   437085.145410    ;  uncertainty r = 0.000074, k = 7.312812
         8        26     1        0.108982   347697.397168    ;  uncertainty r = 0.000060, k = 3.509310
         9        10     1        0.153528   198932.485962    ;  uncertainty r = 0.000113, k = 4.485541
         9        22     1        0.144360   258703.533301    ;  uncertainty r = 0.000127, k = 5.188267
         9        27     1        0.109548   306948.010498    ;  uncertainty r = 0.000056, k = 1.476386
         9        28     1        0.109548   306948.010498    ;  uncertainty r = 0.000056, k = 1.476386
        10        14     1        0.143014   262792.254346    ;  uncertainty r = 0.000086, k = 14.622904
        10        19     1        0.151556   222180.461621    ;  uncertainty r = 0.000089, k = 7.017739
        10        29     1        0.109828   303256.263818    ;  uncertainty r = 0.000046, k = 1.650587
        11        12     1        0.139619   365954.387402    ;  uncertainty r = 0.000008, k = 1.292992
        11        17     1        0.139616   371124.732715    ;  uncertainty r = 0.000020, k = 1.036768
        11        30     1        0.108853   334096.639160    ;  uncertainty r = 0.000011, k = 0.985251
        12        19     1        0.139806   351916.766064    ;  uncertainty r = 0.000010, k = 1.187834
        12        31     1        0.108853   333813.534766    ;  uncertainty r = 0.000015, k = 0.555194
        13        18     1        0.139619   365954.387402    ;  uncertainty r = 0.000008, k = 1.292992
        13        19     1        0.139806   351916.766064    ;  uncertainty r = 0.000010, k = 1.187834
        13        32     1        0.108853   333813.534766    ;  uncertainty r = 0.000015, k = 0.555194
        14        33     1        0.097118   460583.525195    ;  uncertainty r = 0.000045, k = 3.102113
        15        20     1        0.135563   598530.699805    ;  uncertainty r = 0.000139, k = 9.101913
        15        22     1        0.139244   503022.932227    ;  uncertainty r = 0.000156, k = 11.982701
        16        20     1        0.134248   427021.200439    ;  uncertainty r = 0.000126, k = 12.560964
        16        21     1        0.133902   409960.291797    ;  uncertainty r = 0.000038, k = 12.892596
        16        34     1        0.108823   332455.624512    ;  uncertainty r = 0.000016, k = 3.398046
        17        18     1        0.139616   371124.758252    ;  uncertainty r = 0.000020, k = 1.036768
        17        35     1        0.108851   334582.457129    ;  uncertainty r = 0.000012, k = 0.680670
        18        36     1        0.108853   334096.639160    ;  uncertainty r = 0.000011, k = 0.985251
        22        37     1        0.101725   420522.644531    ;  uncertainty r = 0.000069, k = 3.098785
        38        40     1        0.135275   284664.609766    ;  uncertainty r = 0.000039, k = 3.180870
        38        41     1        0.135275   284664.609766    ;  uncertainty r = 0.000039, k = 3.180870
        38        42     1        0.135275   284664.609766    ;  uncertainty r = 0.000039, k = 3.180870

[ angles ]
;       ai        aj        ak funct           theta             cth
         1         2         4     1      123.549500      517.190914    ;  uncertainty theta = 0.002684, k = 0.196805
         1         2        23     1      117.977310      261.971878    ;  uncertainty theta = 0.003060, k = 0.040395
         1         3         5     1      120.895401      524.955983    ;  uncertainty theta = 0.002913, k = 0.074681
         1         3        24     1      118.059799      263.604082    ;  uncertainty theta = 0.003150, k = 0.120273
         1         7         8     1      120.517883      399.126824    ;  uncertainty theta = 0.005354, k = 0.190359
         1         7        21     1      117.524246      467.904389    ;  uncertainty theta = 0.004899, k = 0.173010
         2         1         3     1      121.006973      435.939397    ;  uncertainty theta = 0.000806, k = 0.173086
         2         1         7     1      117.347733      399.246913    ;  uncertainty theta = 0.003542, k = 0.134529
         2         4         6     1      123.084961      447.249113    ;  uncertainty theta = 0.003336, k = 0.149864
         2         4        38     1      115.841591      352.103142    ;  uncertainty theta = 0.005054, k = 0.130766
         3         1         7     1      118.319725      400.085551    ;  uncertainty theta = 0.002938, k = 0.117243
         3         5         6     1      120.357994      494.958817    ;  uncertainty theta = 0.002501, k = 0.097914
         3         5        25     1      120.889565      280.555280    ;  uncertainty theta = 0.000727, k = 0.025671
         4         2        23     1      116.486412      269.926416    ;  uncertainty theta = 0.001962, k = 0.092732
         4         6         5     1      122.660301      357.193773    ;  uncertainty theta = 0.003945, k = 0.107761
         4         6        39     1      117.834557      422.179843    ;  uncertainty theta = 0.002305, k = 0.101299
         4        38        40     1      112.429726      637.561516    ;  uncertainty theta = 0.002348, k = 0.015593
         4        38        41     1      112.429726      637.561516    ;  uncertainty theta = 0.002348, k = 0.015593
         4        38        42     1      112.429726      637.561516    ;  uncertainty theta = 0.002348, k = 0.015593
         5         3        24     1      119.648399      287.568537    ;  uncertainty theta = 0.001597, k = 0.057613
         5         6        39     1      119.472000      454.791243    ;  uncertainty theta = 0.001726, k = 0.102603
         6         4        38     1      116.822533      344.854657    ;  uncertainty theta = 0.003325, k = 0.230363
         6         5        25     1      120.121582      282.097434    ;  uncertainty theta = 0.001113, k = 0.086971
         7         8        15     1      117.423264      475.722192    ;  uncertainty theta = 0.006163, k = 0.291536
         7         8        26     1      122.136292      274.865070    ;  uncertainty theta = 0.001926, k = 0.175869
         7        21        16     1      114.123764      411.073339    ;  uncertainty theta = 0.005165, k = 0.198286
         8         7        21     1      121.765846      596.725507    ;  uncertainty theta = 0.004067, k = 0.125601
         8        15        20     1      120.465775      559.577504    ;  uncertainty theta = 0.004274, k = 0.131688
         8        15        22     1      124.405197      635.166262    ;  uncertainty theta = 0.005407, k = 0.116906
         9        10        14     1      108.648598      745.773101    ;  uncertainty theta = 0.001850, k = 0.090465
         9        10        19     1      111.675133      529.233800    ;  uncertainty theta = 0.002433, k = 0.102801
         9        10        29     1      107.655739      397.413157    ;  uncertainty theta = 0.001835, k = 0.063660
         9        22        15     1      115.022720      415.197008    ;  uncertainty theta = 0.003932, k = 0.139541
         9        22        37     1      111.930687      338.512452    ;  uncertainty theta = 0.006639, k = 0.093922
        10         9        22     1      109.072731      588.135334    ;  uncertainty theta = 0.003588, k = 0.076167
        10         9        27     1      108.264954      386.766225    ;  uncertainty theta = 0.001128, k = 0.087129
        10         9        28     1      108.264954      386.766225    ;  uncertainty theta = 0.001128, k = 0.087129
        10        14        33     1      107.778908      462.824962    ;  uncertainty theta = 0.002314, k = 0.060682
        10        19        12     1      119.990318      398.450314    ;  uncertainty theta = 0.001704, k = 0.122614
        10        19        13     1      119.990318      398.450314    ;  uncertainty theta = 0.001704, k = 0.122614
        11        12        19     1      120.930702      517.466172    ;  uncertainty theta = 0.001222, k = 0.047814
        11        12        31     1      120.258339      291.729553    ;  uncertainty theta = 0.002156, k = 0.015437
        11        17        18     1      118.312904      525.474865    ;  uncertainty theta = 0.001259, k = 0.033725
        11        17        35     1      120.606750      289.256635    ;  uncertainty theta = 0.001707, k = 0.007155
        12        11        17     1      119.668961      514.607037    ;  uncertainty theta = 0.000852, k = 0.027695
        12        11        30     1      120.182228      283.193264    ;  uncertainty theta = 0.001483, k = 0.023123
        12        19        13     1      120.620529      467.609435    ;  uncertainty theta = 0.001046, k = 0.044080
        13        18        17     1      119.668961      514.607037    ;  uncertainty theta = 0.000852, k = 0.027695
        13        18        36     1      120.182228      283.193264    ;  uncertainty theta = 0.001483, k = 0.023123
        14        10        19     1      111.132469      757.316130    ;  uncertainty theta = 0.001813, k = 0.056225
        14        10        29     1      107.460892      475.171803    ;  uncertainty theta = 0.003128, k = 0.059555
        15         8        26     1      122.820290      279.161624    ;  uncertainty theta = 0.002177, k = 0.088284
        15        20        16     1      114.208336      402.225401    ;  uncertainty theta = 0.007184, k = 0.116286
        15        22        37     1      114.952065      412.285969    ;  uncertainty theta = 0.001414, k = 0.081088
        17        11        30     1      120.593102      287.981121    ;  uncertainty theta = 0.001462, k = 0.008017
        17        18        36     1      120.593102      287.981121    ;  uncertainty theta = 0.001462, k = 0.008017
        18        13        19     1      120.930702      517.466172    ;  uncertainty theta = 0.001222, k = 0.047814
        18        13        32     1      120.258339      291.729553    ;  uncertainty theta = 0.002156, k = 0.015437
        18        17        35     1      120.606750      289.256635    ;  uncertainty theta = 0.001707, k = 0.007155
        19        10        29     1      107.338806      403.998379    ;  uncertainty theta = 0.003013, k = 0.110102
        19        12        31     1      118.778320      265.740150    ;  uncertainty theta = 0.001504, k = 0.035529
        19        13        32     1      118.778320      265.740150    ;  uncertainty theta = 0.001504, k = 0.035529
        20        15        22     1      122.203979      876.041727    ;  uncertainty theta = 0.006036, k = 0.092665
        20        16        21     1      127.365524      928.346068    ;  uncertainty theta = 0.002641, k = 0.109018
        20        16        34     1      115.958923      303.662438    ;  uncertainty theta = 0.004108, k = 0.062101
        21        16        34     1      116.290024      310.582675    ;  uncertainty theta = 0.004161, k = 0.066237
        22         9        27     1      106.848366      448.950650    ;  uncertainty theta = 0.001286, k = 0.079205
        22         9        28     1      106.848366      448.950650    ;  uncertainty theta = 0.001286, k = 0.079205
        27         9        28     1      106.681496      323.153860    ;  uncertainty theta = 0.001150, k = 0.024224
        40        38        41     1      107.944580      805.477012    ;  uncertainty theta = 0.001809, k = 0.014115
        40        38        42     1      107.944580      805.477012    ;  uncertainty theta = 0.001809, k = 0.014115
        41        38        42     1      107.944580      805.477012    ;  uncertainty theta = 0.001809, k = 0.014115

[ dihedrals ] ; propers for gromacs 4.5 or higher, use funct 9
;       ai        aj        ak        al funct           phase               k        pn
         1         2         4         6     9        0.000000       -0.108102         1    ;  uncertainty k = 0.146220
         1         2         4         6     9      180.000000       10.495719         2    ;  uncertainty k = 0.595543
         1         2         4         6     9        0.000000        0.194763         3    ;  uncertainty k = 0.289882
         1         2         4         6     9      180.000000        1.196320         4    ;  uncertainty k = 0.417663
         1         2         4        38     9        0.000000        0.357102         1    ;  uncertainty k = 0.438803
         1         2         4        38     9      180.000000       10.289582         2    ;  uncertainty k = 0.663717
         1         2         4        38     9        0.000000        1.562495         3    ;  uncertainty k = 0.350345
         1         2         4        38     9      180.000000        1.931412         4    ;  uncertainty k = 0.420887
         1         3         5         6     9        0.000000        0.030236         1    ;  uncertainty k = 0.318403
         1         3         5         6     9      180.000000       13.430041         2    ;  uncertainty k = 0.341299
         1         3         5         6     9        0.000000       -0.632653         3    ;  uncertainty k = 0.301946
         1         3         5         6     9      180.000000        0.911015         4    ;  uncertainty k = 0.224217
         1         3         5        25     9        0.000000        0.026849         1    ;  uncertainty k = 0.145778
         1         3         5        25     9      180.000000        8.146604         2    ;  uncertainty k = 0.469119
         1         3         5        25     9        0.000000        1.395069         3    ;  uncertainty k = 0.190033
         1         3         5        25     9      180.000000        1.847029         4    ;  uncertainty k = 0.197893
         1         7         8        15     9        0.000000       -0.261495         1    ;  uncertainty k = 0.642842
         1         7         8        15     9      180.000000        7.763119         2    ;  uncertainty k = 0.939336
         1         7         8        15     9        0.000000        0.643042         3    ;  uncertainty k = 0.317609
         1         7         8        15     9      180.000000        1.098091         4    ;  uncertainty k = 0.342539
         1         7         8        26     9        0.000000       -0.246259         1    ;  uncertainty k = 1.092793
         1         7         8        26     9      180.000000        7.034394         2    ;  uncertainty k = 0.566754
         1         7         8        26     9        0.000000        0.711517         3    ;  uncertainty k = 0.249649
         1         7         8        26     9      180.000000        0.924639         4    ;  uncertainty k = 0.228772
         1         7        21        16     9        0.000000        0.050205         1    ;  uncertainty k = 0.608525
         1         7        21        16     9      180.000000       14.477046         2    ;  uncertainty k = 0.421762
         1         7        21        16     9        0.000000        2.015715         3    ;  uncertainty k = 0.352970
         1         7        21        16     9      180.000000        1.536865         4    ;  uncertainty k = 0.461257
         2         1         3         5     9        0.000000        0.115856         1    ;  uncertainty k = 0.187476
         2         1         3         5     9      180.000000       10.623637         2    ;  uncertainty k = 0.352474
         2         1         3         5     9        0.000000       -0.518266         3    ;  uncertainty k = 0.189292
         2         1         3         5     9      180.000000        0.979529         4    ;  uncertainty k = 0.229039
         2         1         3        24     9        0.000000        0.276549         1    ;  uncertainty k = 0.121235
         2         1         3        24     9      180.000000        7.106242         2    ;  uncertainty k = 0.492089
         2         1         3        24     9        0.000000        1.303897         3    ;  uncertainty k = 0.244455
         2         1         3        24     9      180.000000        1.619121         4    ;  uncertainty k = 0.267771
         2         1         7         8     9        0.000000       -0.313721         1    ;  uncertainty k = 0.410441
         2         1         7         8     9      180.000000        3.865941         2    ;  uncertainty k = 0.335539
         2         1         7         8     9        0.000000        0.492527         3    ;  uncertainty k = 0.225919
         2         1         7         8     9      180.000000       -0.128135         4    ;  uncertainty k = 0.059217
         2         1         7        21     9        0.000000        1.421615         1    ;  uncertainty k = 0.580676
         2         1         7        21     9      180.000000        5.022785         2    ;  uncertainty k = 0.217890
         2         1         7        21     9        0.000000        0.654310         3    ;  uncertainty k = 0.236351
         2         1         7        21     9      180.000000        0.105823         4    ;  uncertainty k = 0.041853
         2         4         6         5     9        0.000000       -0.334441         1    ;  uncertainty k = 0.396327
         2         4         6         5     9      180.000000        7.272724         2    ;  uncertainty k = 0.638963
         2         4         6         5     9        0.000000        0.126046         3    ;  uncertainty k = 0.469248
         2         4         6         5     9      180.000000        1.138128         4    ;  uncertainty k = 0.347513
         2         4         6        39     9        0.000000       -0.015056         1    ;  uncertainty k = 0.391161
         2         4         6        39     9      180.000000        8.175760         2    ;  uncertainty k = 0.553289
         2         4         6        39     9        0.000000        1.438261         3    ;  uncertainty k = 0.340581
         2         4         6        39     9      180.000000        1.462544         4    ;  uncertainty k = 0.189748
         2         4        38        40     9        0.000000       -0.780870         1    ;  uncertainty k = 0.150190
         2         4        38        40     9      180.000000        2.583855         2    ;  uncertainty k = 0.254702
         2         4        38        40     9        0.000000        0.201545         3    ;  uncertainty k = 0.079989
         2         4        38        40     9      180.000000        0.162612         4    ;  uncertainty k = 0.050935
         2         4        38        41     9        0.000000       -0.780870         1    ;  uncertainty k = 0.150190
         2         4        38        41     9      180.000000        2.583855         2    ;  uncertainty k = 0.254702
         2         4        38        41     9        0.000000        0.201545         3    ;  uncertainty k = 0.079989
         2         4        38        41     9      180.000000        0.162612         4    ;  uncertainty k = 0.050935
         2         4        38        42     9        0.000000       -0.780870         1    ;  uncertainty k = 0.150190
         2         4        38        42     9      180.000000        2.583855         2    ;  uncertainty k = 0.254702
         2         4        38        42     9        0.000000        0.201545         3    ;  uncertainty k = 0.079989
         2         4        38        42     9      180.000000        0.162612         4    ;  uncertainty k = 0.050935
         3         1         2         4     9        0.000000        0.142222         1    ;  uncertainty k = 0.552746
         3         1         2         4     9      180.000000        9.336751         2    ;  uncertainty k = 0.403356
         3         1         2         4     9        0.000000        0.045776         3    ;  uncertainty k = 0.191467
         3         1         2         4     9      180.000000        1.114210         4    ;  uncertainty k = 0.330652
         3         1         2        23     9        0.000000        0.267652         1    ;  uncertainty k = 0.139340
         3         1         2        23     9      180.000000        7.292946         2    ;  uncertainty k = 0.521160
         3         1         2        23     9        0.000000        1.295312         3    ;  uncertainty k = 0.144349
         3         1         2        23     9      180.000000        1.620315         4    ;  uncertainty k = 0.282932
         3         1         7         8     9        0.000000       -0.335448         1    ;  uncertainty k = 0.449100
         3         1         7         8     9      180.000000        3.880271         2    ;  uncertainty k = 0.270085
         3         1         7         8     9        0.000000        0.462864         3    ;  uncertainty k = 0.215727
         3         1         7         8     9      180.000000       -0.129720         4    ;  uncertainty k = 0.053325
         3         1         7        21     9        0.000000        0.945624         1    ;  uncertainty k = 0.575401
         3         1         7        21     9      180.000000        5.125320         2    ;  uncertainty k = 0.198536
         3         1         7        21     9        0.000000        0.638655         3    ;  uncertainty k = 0.214136
         3         1         7        21     9      180.000000        0.117918         4    ;  uncertainty k = 0.040993
         3         5         6         4     9        0.000000        0.097708         1    ;  uncertainty k = 0.268142
         3         5         6         4     9      180.000000        7.992731         2    ;  uncertainty k = 0.277484
         3         5         6         4     9        0.000000        0.308098         3    ;  uncertainty k = 0.459933
         3         5         6         4     9      180.000000        1.292856         4    ;  uncertainty k = 0.341280
         3         5         6        39     9        0.000000       -0.091850         1    ;  uncertainty k = 0.195082
         3         5         6        39     9      180.000000        9.130815         2    ;  uncertainty k = 0.484148
         3         5         6        39     9        0.000000        1.473443         3    ;  uncertainty k = 0.355696
         3         5         6        39     9      180.000000        1.655844         4    ;  uncertainty k = 0.138676
         4         2         1         7     9        0.000000        0.229754         1    ;  uncertainty k = 0.322631
         4         2         1         7     9      180.000000        7.886494         2    ;  uncertainty k = 0.790636
         4         2         1         7     9        0.000000        1.286043         3    ;  uncertainty k = 0.262544
         4         2         1         7     9      180.000000        1.799341         4    ;  uncertainty k = 0.292556
         4         6         5        25     9        0.000000        0.088587         1    ;  uncertainty k = 0.213687
         4         6         5        25     9      180.000000        6.048908         2    ;  uncertainty k = 0.540025
         4         6         5        25     9        0.000000        1.432556         3    ;  uncertainty k = 0.402310
         4         6         5        25     9      180.000000        1.523940         4    ;  uncertainty k = 0.207483
         5         3         1         7     9        0.000000        0.329722         1    ;  uncertainty k = 0.566653
         5         3         1         7     9      180.000000        8.642113         2    ;  uncertainty k = 0.573061
         5         3         1         7     9        0.000000        1.238737         3    ;  uncertainty k = 0.339483
         5         3         1         7     9      180.000000        1.811276         4    ;  uncertainty k = 0.177850
         5         6         4        38     9        0.000000        0.219430         1    ;  uncertainty k = 0.387336
         5         6         4        38     9      180.000000        7.919656         2    ;  uncertainty k = 0.501291
         5         6         4        38     9        0.000000        1.366674         3    ;  uncertainty k = 0.434867
         5         6         4        38     9      180.000000        1.863557         4    ;  uncertainty k = 0.188926
         6         4         2        23     9        0.000000        0.044978         1    ;  uncertainty k = 0.216375
         6         4         2        23     9      180.000000        8.261554         2    ;  uncertainty k = 0.416089
         6         4         2        23     9        0.000000        1.265561         3    ;  uncertainty k = 0.321380
         6         4         2        23     9      180.000000        1.629304         4    ;  uncertainty k = 0.216027
         6         4        38        40     9        0.000000        0.155679         1    ;  uncertainty k = 0.369609
         6         4        38        40     9      180.000000        2.446701         2    ;  uncertainty k = 0.200161
         6         4        38        40     9        0.000000        0.916866         3    ;  uncertainty k = 0.143628
         6         4        38        40     9      180.000000        0.261553         4    ;  uncertainty k = 0.076910
         6         4        38        41     9        0.000000        0.155679         1    ;  uncertainty k = 0.369609
         6         4        38        41     9      180.000000        2.446701         2    ;  uncertainty k = 0.200161
         6         4        38        41     9        0.000000        0.916866         3    ;  uncertainty k = 0.143628
         6         4        38        41     9      180.000000        0.261553         4    ;  uncertainty k = 0.076910
         6         4        38        42     9        0.000000        0.155679         1    ;  uncertainty k = 0.369609
         6         4        38        42     9      180.000000        2.446701         2    ;  uncertainty k = 0.200161
         6         4        38        42     9        0.000000        0.916866         3    ;  uncertainty k = 0.143628
         6         4        38        42     9      180.000000        0.261553         4    ;  uncertainty k = 0.076910
         6         5         3        24     9        0.000000       -0.014259         1    ;  uncertainty k = 0.131746
         6         5         3        24     9      180.000000        7.767017         2    ;  uncertainty k = 0.220275
         6         5         3        24     9        0.000000        1.446612         3    ;  uncertainty k = 0.225115
         6         5         3        24     9      180.000000        1.905144         4    ;  uncertainty k = 0.180594
         7         1         2        23     9        0.000000       -0.135314         1    ;  uncertainty k = 0.284302
         7         1         2        23     9      180.000000        7.450588         2    ;  uncertainty k = 0.268633
         7         1         2        23     9        0.000000        0.810902         3    ;  uncertainty k = 0.134541
         7         1         2        23     9      180.000000        1.298059         4    ;  uncertainty k = 0.088795
         7         1         3        24     9        0.000000       -0.284403         1    ;  uncertainty k = 0.345323
         7         1         3        24     9      180.000000        7.333442         2    ;  uncertainty k = 0.338653
         7         1         3        24     9        0.000000        0.711190         3    ;  uncertainty k = 0.133751
         7         1         3        24     9      180.000000        1.179142         4    ;  uncertainty k = 0.076413
         7         8        15        20     9        0.000000       -0.500133         1    ;  uncertainty k = 0.439040
         7         8        15        20     9      180.000000        7.834468         2    ;  uncertainty k = 0.794802
         7         8        15        20     9        0.000000       -0.902125         3    ;  uncertainty k = 0.537798
         7         8        15        20     9      180.000000        1.182676         4    ;  uncertainty k = 0.320344
         7         8        15        22     9        0.000000       -0.965370         1    ;  uncertainty k = 0.759248
         7         8        15        22     9      180.000000        6.451864         2    ;  uncertainty k = 0.459721
         7         8        15        22     9        0.000000        0.063391         3    ;  uncertainty k = 0.343169
         7         8        15        22     9      180.000000        0.905959         4    ;  uncertainty k = 0.177698
         7        21        16        20     9        0.000000       -0.819129         1    ;  uncertainty k = 0.644873
         7        21        16        20     9      180.000000       16.551521         2    ;  uncertainty k = 0.382986
         7        21        16        20     9        0.000000        0.076416         3    ;  uncertainty k = 0.570044
         7        21        16        20     9      180.000000        1.171091         4    ;  uncertainty k = 0.289628
         7        21        16        34     9        0.000000       -0.422172         1    ;  uncertainty k = 0.379756
         7        21        16        34     9      180.000000       12.360556         2    ;  uncertainty k = 0.398014
         7        21        16        34     9        0.000000        1.725694         3    ;  uncertainty k = 0.673646
         7        21        16        34     9      180.000000        1.287781         4    ;  uncertainty k = 0.424421
         8         7        21        16     9        0.000000       -0.256090         1    ;  uncertainty k = 0.862245
         8         7        21        16     9      180.000000       13.280856         2    ;  uncertainty k = 0.530960
         8         7        21        16     9        0.000000        0.312819         3    ;  uncertainty k = 0.972868
         8         7        21        16     9      180.000000        1.131435         4    ;  uncertainty k = 0.376839
         8        15        20        16     9        0.000000       -0.350078         1    ;  uncertainty k = 0.812325
         8        15        20        16     9      180.000000        9.930014         2    ;  uncertainty k = 0.557509
         8        15        20        16     9        0.000000        0.516622         3    ;  uncertainty k = 0.789553
         8        15        20        16     9      180.000000        1.058186         4    ;  uncertainty k = 0.142047
         8        15        22         9     9        0.000000        5.603689         1    ;  uncertainty k = 0.487731
         8        15        22         9     9      180.000000        9.173858         2    ;  uncertainty k = 0.234225
         8        15        22         9     9        0.000000        0.682452         3    ;  uncertainty k = 0.250442
         8        15        22         9     9      180.000000       -0.440404         4    ;  uncertainty k = 0.169398
         8        15        22        37     9        0.000000        4.297370         1    ;  uncertainty k = 0.414563
         8        15        22        37     9      180.000000        7.947808         2    ;  uncertainty k = 0.147068
         8        15        22        37     9        0.000000        1.249630         3    ;  uncertainty k = 0.211856
         8        15        22        37     9      180.000000       -0.412992         4    ;  uncertainty k = 0.196225
         9        10        14        33     9        0.000000       16.539194         1    ;  uncertainty k = 0.182172
         9        10        14        33     9      180.000000       -3.181446         2    ;  uncertainty k = 0.394315
         9        10        14        33     9        0.000000        1.050863         3    ;  uncertainty k = 0.081907
         9        10        14        33     9      180.000000        0.368805         4    ;  uncertainty k = 0.156069
         9        10        19        12     9        0.000000       -0.273818         1    ;  uncertainty k = 0.106175
         9        10        19        12     9      180.000000        2.079481         2    ;  uncertainty k = 0.182501
         9        10        19        12     9        0.000000        0.512262         3    ;  uncertainty k = 0.147544
         9        10        19        12     9      180.000000        0.343982         4    ;  uncertainty k = 0.021980
         9        10        19        13     9        0.000000       -0.273818         1    ;  uncertainty k = 0.106175
         9        10        19        13     9      180.000000        2.079481         2    ;  uncertainty k = 0.182501
         9        10        19        13     9        0.000000        0.512262         3    ;  uncertainty k = 0.147544
         9        10        19        13     9      180.000000        0.343982         4    ;  uncertainty k = 0.021980
         9        22        15        20     9        0.000000        8.533711         1    ;  uncertainty k = 0.435190
         9        22        15        20     9      180.000000       12.802851         2    ;  uncertainty k = 0.140763
         9        22        15        20     9        0.000000        1.500694         3    ;  uncertainty k = 0.229157
         9        22        15        20     9      180.000000       -0.498831         4    ;  uncertainty k = 0.087310
        10         9        22        15     9        0.000000       -0.181203         1    ;  uncertainty k = 0.437855
        10         9        22        15     9      180.000000       -0.656643         2    ;  uncertainty k = 0.612261
        10         9        22        15     9        0.000000        0.233868         3    ;  uncertainty k = 0.313268
        10         9        22        15     9      180.000000        0.414120         4    ;  uncertainty k = 0.035681
        10         9        22        37     9        0.000000        3.680901         1    ;  uncertainty k = 0.713382
        10         9        22        37     9      180.000000       -3.627771         2    ;  uncertainty k = 0.381036
        10         9        22        37     9        0.000000        0.657609         3    ;  uncertainty k = 0.120801
        10         9        22        37     9      180.000000       -0.046604         4    ;  uncertainty k = 0.144754
        10        19        12        11     9        0.000000        0.277494         1    ;  uncertainty k = 0.259279
        10        19        12        11     9      180.000000        9.380655         2    ;  uncertainty k = 0.580889
        10        19        12        11     9        0.000000        1.260903         3    ;  uncertainty k = 0.297020
        10        19        12        11     9      180.000000        1.849205         4    ;  uncertainty k = 0.223533
        10        19        12        31     9        0.000000       -0.044601         1    ;  uncertainty k = 0.495487
        10        19        12        31     9      180.000000        7.557641         2    ;  uncertainty k = 0.152609
        10        19        12        31     9        0.000000        0.648505         3    ;  uncertainty k = 0.330112
        10        19        12        31     9      180.000000        0.986671         4    ;  uncertainty k = 0.169058
        10        19        13        18     9        0.000000        0.277494         1    ;  uncertainty k = 0.259279
        10        19        13        18     9      180.000000        9.380655         2    ;  uncertainty k = 0.580889
        10        19        13        18     9        0.000000        1.260903         3    ;  uncertainty k = 0.297020
        10        19        13        18     9      180.000000        1.849205         4    ;  uncertainty k = 0.223533
        10        19        13        32     9        0.000000       -0.044601         1    ;  uncertainty k = 0.495487
        10        19        13        32     9      180.000000        7.557641         2    ;  uncertainty k = 0.152609
        10        19        13        32     9        0.000000        0.648505         3    ;  uncertainty k = 0.330112
        10        19        13        32     9      180.000000        0.986671         4    ;  uncertainty k = 0.169058
        11        12        19        13     9        0.000000       -0.165953         1    ;  uncertainty k = 0.169992
        11        12        19        13     9      180.000000       11.757607         2    ;  uncertainty k = 0.401729
        11        12        19        13     9        0.000000       -0.505821         3    ;  uncertainty k = 0.348703
        11        12        19        13     9      180.000000        0.798513         4    ;  uncertainty k = 0.397673
        11        17        18        13     9        0.000000       -0.003189         1    ;  uncertainty k = 0.038440
        11        17        18        13     9      180.000000       15.016788         2    ;  uncertainty k = 0.249663
        11        17        18        13     9        0.000000       -1.210513         3    ;  uncertainty k = 0.492875
        11        17        18        13     9      180.000000        0.498916         4    ;  uncertainty k = 0.293179
        11        17        18        36     9        0.000000        0.038009         1    ;  uncertainty k = 0.035822
        11        17        18        36     9      180.000000        7.549305         2    ;  uncertainty k = 0.334350
        11        17        18        36     9        0.000000        1.438249         3    ;  uncertainty k = 0.318741
        11        17        18        36     9      180.000000        1.792783         4    ;  uncertainty k = 0.163179
        12        11        17        18     9        0.000000       -0.003189         1    ;  uncertainty k = 0.038440
        12        11        17        18     9      180.000000       15.016788         2    ;  uncertainty k = 0.249663
        12        11        17        18     9        0.000000       -1.210513         3    ;  uncertainty k = 0.492875
        12        11        17        18     9      180.000000        0.498916         4    ;  uncertainty k = 0.293179
        12        11        17        35     9        0.000000        0.056378         1    ;  uncertainty k = 0.091793
        12        11        17        35     9      180.000000        7.450064         2    ;  uncertainty k = 0.356222
        12        11        17        35     9        0.000000        1.472207         3    ;  uncertainty k = 0.287391
        12        11        17        35     9      180.000000        1.800180         4    ;  uncertainty k = 0.190036
        12        19        10        14     9        0.000000       -1.453975         1    ;  uncertainty k = 0.447986
        12        19        10        14     9      180.000000        3.360421         2    ;  uncertainty k = 0.198780
        12        19        10        14     9        0.000000        0.848407         3    ;  uncertainty k = 0.189850
        12        19        10        14     9      180.000000        0.435805         4    ;  uncertainty k = 0.036604
        12        19        10        29     9        0.000000       -0.600193         1    ;  uncertainty k = 0.218608
        12        19        10        29     9      180.000000        1.966965         2    ;  uncertainty k = 0.154440
        12        19        10        29     9        0.000000        0.553661         3    ;  uncertainty k = 0.127024
        12        19        10        29     9      180.000000        0.313797         4    ;  uncertainty k = 0.019730
        12        19        13        18     9        0.000000       -0.165953         1    ;  uncertainty k = 0.169992
        12        19        13        18     9      180.000000       11.757607         2    ;  uncertainty k = 0.401729
        12        19        13        18     9        0.000000       -0.505821         3    ;  uncertainty k = 0.348703
        12        19        13        18     9      180.000000        0.798513         4    ;  uncertainty k = 0.397673
        12        19        13        32     9        0.000000        0.131870         1    ;  uncertainty k = 0.167883
        12        19        13        32     9      180.000000        7.224544         2    ;  uncertainty k = 0.567570
        12        19        13        32     9        0.000000        1.415746         3    ;  uncertainty k = 0.327246
        12        19        13        32     9      180.000000        1.668075         4    ;  uncertainty k = 0.170613
        13        18        17        35     9        0.000000        0.056378         1    ;  uncertainty k = 0.091793
        13        18        17        35     9      180.000000        7.450064         2    ;  uncertainty k = 0.356222
        13        18        17        35     9        0.000000        1.472207         3    ;  uncertainty k = 0.287391
        13        18        17        35     9      180.000000        1.800180         4    ;  uncertainty k = 0.190036
        13        19        10        14     9        0.000000       -1.453975         1    ;  uncertainty k = 0.447986
        13        19        10        14     9      180.000000        3.360421         2    ;  uncertainty k = 0.198780
        13        19        10        14     9        0.000000        0.848407         3    ;  uncertainty k = 0.189850
        13        19        10        14     9      180.000000        0.435805         4    ;  uncertainty k = 0.036604
        13        19        10        29     9        0.000000       -0.600193         1    ;  uncertainty k = 0.218608
        13        19        10        29     9      180.000000        1.966965         2    ;  uncertainty k = 0.154440
        13        19        10        29     9        0.000000        0.553661         3    ;  uncertainty k = 0.127024
        13        19        10        29     9      180.000000        0.313797         4    ;  uncertainty k = 0.019730
        13        19        12        31     9        0.000000        0.131870         1    ;  uncertainty k = 0.167883
        13        19        12        31     9      180.000000        7.224544         2    ;  uncertainty k = 0.567570
        13        19        12        31     9        0.000000        1.415746         3    ;  uncertainty k = 0.327246
        13        19        12        31     9      180.000000        1.668075         4    ;  uncertainty k = 0.170613
        14        10         9        22     9        0.000000       -0.052607         1    ;  uncertainty k = 0.764083
        14        10         9        22     9      180.000000       -0.749437         2    ;  uncertainty k = 0.395318
        14        10         9        22     9        0.000000        1.713416         3    ;  uncertainty k = 0.321039
        14        10         9        22     9      180.000000       -0.561414         4    ;  uncertainty k = 0.195159
        14        10         9        27     9        0.000000       -1.242394         1    ;  uncertainty k = 0.559340
        14        10         9        27     9      180.000000       -0.234284         2    ;  uncertainty k = 0.168601
        14        10         9        27     9        0.000000        1.039378         3    ;  uncertainty k = 0.150261
        14        10         9        27     9      180.000000       -0.102798         4    ;  uncertainty k = 0.150575
        14        10         9        28     9        0.000000       -1.242394         1    ;  uncertainty k = 0.559340
        14        10         9        28     9      180.000000       -0.234284         2    ;  uncertainty k = 0.168601
        14        10         9        28     9        0.000000        1.039378         3    ;  uncertainty k = 0.150261
        14        10         9        28     9      180.000000       -0.102798         4    ;  uncertainty k = 0.150575
        15         8         7        21     9        0.000000       -0.248525         1    ;  uncertainty k = 0.478878
        15         8         7        21     9      180.000000       12.542350         2    ;  uncertainty k = 0.533528
        15         8         7        21     9        0.000000       -1.085268         3    ;  uncertainty k = 0.696342
        15         8         7        21     9      180.000000        1.025470         4    ;  uncertainty k = 0.330640
        15        20        16        21     9        0.000000       -0.727031         1    ;  uncertainty k = 1.154526
        15        20        16        21     9      180.000000       15.842485         2    ;  uncertainty k = 0.398145
        15        20        16        21     9        0.000000       -0.257081         3    ;  uncertainty k = 0.319591
        15        20        16        21     9      180.000000        0.992483         4    ;  uncertainty k = 0.176270
        15        20        16        34     9        0.000000       -0.392488         1    ;  uncertainty k = 0.864220
        15        20        16        34     9      180.000000       12.489467         2    ;  uncertainty k = 0.378782
        15        20        16        34     9        0.000000        1.355690         3    ;  uncertainty k = 0.760379
        15        20        16        34     9      180.000000        0.853020         4    ;  uncertainty k = 0.299132
        15        22         9        27     9        0.000000       -1.147632         1    ;  uncertainty k = 0.263721
        15        22         9        27     9      180.000000       -0.482322         2    ;  uncertainty k = 0.302946
        15        22         9        27     9        0.000000        0.226739         3    ;  uncertainty k = 0.211259
        15        22         9        27     9      180.000000        0.248702         4    ;  uncertainty k = 0.013743
        15        22         9        28     9        0.000000       -1.147632         1    ;  uncertainty k = 0.263721
        15        22         9        28     9      180.000000       -0.482322         2    ;  uncertainty k = 0.302946
        15        22         9        28     9        0.000000        0.226739         3    ;  uncertainty k = 0.211259
        15        22         9        28     9      180.000000        0.248702         4    ;  uncertainty k = 0.013743
        16        20        15        22     9        0.000000       -0.152560         1    ;  uncertainty k = 1.153662
        16        20        15        22     9      180.000000       12.736509         2    ;  uncertainty k = 0.218695
        16        20        15        22     9        0.000000        2.232715         3    ;  uncertainty k = 0.423520
        16        20        15        22     9      180.000000        1.585263         4    ;  uncertainty k = 0.416482
        17        11        12        19     9        0.000000       -0.091981         1    ;  uncertainty k = 0.109878
        17        11        12        19     9      180.000000       13.825977         2    ;  uncertainty k = 0.203920
        17        11        12        19     9        0.000000       -0.976820         3    ;  uncertainty k = 0.497977
        17        11        12        19     9      180.000000        0.702825         4    ;  uncertainty k = 0.246026
        17        11        12        31     9        0.000000        0.043151         1    ;  uncertainty k = 0.053762
        17        11        12        31     9      180.000000        7.853416         2    ;  uncertainty k = 0.298299
        17        11        12        31     9        0.000000        1.416969         3    ;  uncertainty k = 0.297576
        17        11        12        31     9      180.000000        1.844954         4    ;  uncertainty k = 0.168713
        17        18        13        19     9        0.000000       -0.091981         1    ;  uncertainty k = 0.109878
        17        18        13        19     9      180.000000       13.825977         2    ;  uncertainty k = 0.203920
        17        18        13        19     9        0.000000       -0.976820         3    ;  uncertainty k = 0.497977
        17        18        13        19     9      180.000000        0.702825         4    ;  uncertainty k = 0.246026
        17        18        13        32     9        0.000000        0.043151         1    ;  uncertainty k = 0.053762
        17        18        13        32     9      180.000000        7.853416         2    ;  uncertainty k = 0.298299
        17        18        13        32     9        0.000000        1.416969         3    ;  uncertainty k = 0.297576
        17        18        13        32     9      180.000000        1.844954         4    ;  uncertainty k = 0.168713
        18        17        11        30     9        0.000000        0.038009         1    ;  uncertainty k = 0.035822
        18        17        11        30     9      180.000000        7.549305         2    ;  uncertainty k = 0.334350
        18        17        11        30     9        0.000000        1.438249         3    ;  uncertainty k = 0.318741
        18        17        11        30     9      180.000000        1.792783         4    ;  uncertainty k = 0.163179
        19        10         9        22     9        0.000000       -2.195261         1    ;  uncertainty k = 0.395882
        19        10         9        22     9      180.000000       -0.031057         2    ;  uncertainty k = 0.681736
        19        10         9        22     9        0.000000        2.005161         3    ;  uncertainty k = 0.343930
        19        10         9        22     9      180.000000        0.115840         4    ;  uncertainty k = 0.059502
        19        10         9        27     9        0.000000       -0.032425         1    ;  uncertainty k = 0.325911
        19        10         9        27     9      180.000000        0.090710         2    ;  uncertainty k = 0.447956
        19        10         9        27     9        0.000000        0.614218         3    ;  uncertainty k = 0.070661
        19        10         9        27     9      180.000000       -0.058272         4    ;  uncertainty k = 0.097588
        19        10         9        28     9        0.000000       -0.032425         1    ;  uncertainty k = 0.325911
        19        10         9        28     9      180.000000        0.090710         2    ;  uncertainty k = 0.447956
        19        10         9        28     9        0.000000        0.614218         3    ;  uncertainty k = 0.070661
        19        10         9        28     9      180.000000       -0.058272         4    ;  uncertainty k = 0.097588
        19        10        14        33     9        0.000000       15.207439         1    ;  uncertainty k = 0.126759
        19        10        14        33     9      180.000000       -2.891249         2    ;  uncertainty k = 0.433974
        19        10        14        33     9        0.000000        1.036217         3    ;  uncertainty k = 0.050697
        19        10        14        33     9      180.000000        0.184126         4    ;  uncertainty k = 0.080140
        19        12        11        30     9        0.000000        0.047860         1    ;  uncertainty k = 0.232277
        19        12        11        30     9      180.000000        7.569870         2    ;  uncertainty k = 0.397811
        19        12        11        30     9        0.000000        1.467091         3    ;  uncertainty k = 0.255631
        19        12        11        30     9      180.000000        1.771465         4    ;  uncertainty k = 0.128664
        19        13        18        36     9        0.000000        0.047860         1    ;  uncertainty k = 0.232277
        19        13        18        36     9      180.000000        7.569870         2    ;  uncertainty k = 0.397811
        19        13        18        36     9        0.000000        1.467091         3    ;  uncertainty k = 0.255631
        19        13        18        36     9      180.000000        1.771465         4    ;  uncertainty k = 0.128664
        20        15         8        26     9        0.000000        0.249111         1    ;  uncertainty k = 0.450714
        20        15         8        26     9      180.000000        6.845142         2    ;  uncertainty k = 0.457090
        20        15         8        26     9        0.000000        1.342062         3    ;  uncertainty k = 0.374432
        20        15         8        26     9      180.000000        1.372476         4    ;  uncertainty k = 0.171953
        20        15        22        37     9        0.000000       12.912348         1    ;  uncertainty k = 0.293676
        20        15        22        37     9      180.000000        9.801748         2    ;  uncertainty k = 0.250858
        20        15        22        37     9        0.000000        0.647644         3    ;  uncertainty k = 0.160502
        20        15        22        37     9      180.000000       -0.317777         4    ;  uncertainty k = 0.163284
        21         7         8        26     9        0.000000        0.159529         1    ;  uncertainty k = 0.624829
        21         7         8        26     9      180.000000        9.178246         2    ;  uncertainty k = 0.437937
        21         7         8        26     9        0.000000        1.383696         3    ;  uncertainty k = 0.250431
        21         7         8        26     9      180.000000        1.567768         4    ;  uncertainty k = 0.154595
        22         9        10        29     9        0.000000       -0.572508         1    ;  uncertainty k = 0.377115
        22         9        10        29     9      180.000000       -0.600289         2    ;  uncertainty k = 0.341220
        22         9        10        29     9        0.000000        1.087420         3    ;  uncertainty k = 0.209284
        22         9        10        29     9      180.000000       -0.040588         4    ;  uncertainty k = 0.052009
        22        15         8        26     9        0.000000       -0.296826         1    ;  uncertainty k = 0.345651
        22        15         8        26     9      180.000000        5.479218         2    ;  uncertainty k = 0.647782
        22        15         8        26     9        0.000000        0.987843         3    ;  uncertainty k = 0.396911
        22        15         8        26     9      180.000000        0.695542         4    ;  uncertainty k = 0.197095
        23         2         4        38     9        0.000000        0.285640         1    ;  uncertainty k = 0.400750
        23         2         4        38     9      180.000000        9.191508         2    ;  uncertainty k = 0.687106
        23         2         4        38     9        0.000000        0.712423         3    ;  uncertainty k = 0.136816
        23         2         4        38     9      180.000000        1.220717         4    ;  uncertainty k = 0.280403
        24         3         5        25     9        0.000000       -0.098291         1    ;  uncertainty k = 0.168887
        24         3         5        25     9      180.000000        8.191420         2    ;  uncertainty k = 0.350751
        24         3         5        25     9        0.000000       -0.450104         3    ;  uncertainty k = 0.198049
        24         3         5        25     9      180.000000        0.199485         4    ;  uncertainty k = 0.165728
        25         5         6        39     9        0.000000       -0.223974         1    ;  uncertainty k = 0.372787
        25         5         6        39     9      180.000000        7.686775         2    ;  uncertainty k = 0.433499
        25         5         6        39     9        0.000000        0.602760         3    ;  uncertainty k = 0.264844
        25         5         6        39     9      180.000000        1.020660         4    ;  uncertainty k = 0.242255
        27         9        10        29     9        0.000000       -0.062118         1    ;  uncertainty k = 0.175980
        27         9        10        29     9      180.000000       -0.346454         2    ;  uncertainty k = 0.237264
        27         9        10        29     9        0.000000       -0.035091         3    ;  uncertainty k = 0.145025
        27         9        10        29     9      180.000000       -0.049706         4    ;  uncertainty k = 0.074111
        27         9        22        37     9        0.000000        2.288821         1    ;  uncertainty k = 0.507795
        27         9        22        37     9      180.000000       -1.939761         2    ;  uncertainty k = 0.413857
        27         9        22        37     9        0.000000        0.268258         3    ;  uncertainty k = 0.084403
        27         9        22        37     9      180.000000        0.114796         4    ;  uncertainty k = 0.076861
        28         9        10        29     9        0.000000       -0.062118         1    ;  uncertainty k = 0.175980
        28         9        10        29     9      180.000000       -0.346454         2    ;  uncertainty k = 0.237264
        28         9        10        29     9        0.000000       -0.035091         3    ;  uncertainty k = 0.145025
        28         9        10        29     9      180.000000       -0.049706         4    ;  uncertainty k = 0.074111
        28         9        22        37     9        0.000000        2.288821         1    ;  uncertainty k = 0.507795
        28         9        22        37     9      180.000000       -1.939761         2    ;  uncertainty k = 0.413857
        28         9        22        37     9        0.000000        0.268258         3    ;  uncertainty k = 0.084403
        28         9        22        37     9      180.000000        0.114796         4    ;  uncertainty k = 0.076861
        29        10        14        33     9        0.000000       11.445025         1    ;  uncertainty k = 0.077908
        29        10        14        33     9      180.000000       -2.625800         2    ;  uncertainty k = 0.375643
        29        10        14        33     9        0.000000        0.698341         3    ;  uncertainty k = 0.074671
        29        10        14        33     9      180.000000        0.156691         4    ;  uncertainty k = 0.100510
        30        11        12        31     9        0.000000       -0.051759         1    ;  uncertainty k = 0.105402
        30        11        12        31     9      180.000000        7.644705         2    ;  uncertainty k = 0.306864
        30        11        12        31     9        0.000000       -0.441178         3    ;  uncertainty k = 0.237620
        30        11        12        31     9      180.000000        0.096993         4    ;  uncertainty k = 0.103181
        30        11        17        35     9        0.000000       -0.014778         1    ;  uncertainty k = 0.078555
        30        11        17        35     9      180.000000        7.498073         2    ;  uncertainty k = 0.337617
        30        11        17        35     9        0.000000       -0.424125         3    ;  uncertainty k = 0.279662
        30        11        17        35     9      180.000000        0.048151         4    ;  uncertainty k = 0.148926
        32        13        18        36     9        0.000000       -0.051759         1    ;  uncertainty k = 0.105402
        32        13        18        36     9      180.000000        7.644705         2    ;  uncertainty k = 0.306864
        32        13        18        36     9        0.000000       -0.441178         3    ;  uncertainty k = 0.237620
        32        13        18        36     9      180.000000        0.096993         4    ;  uncertainty k = 0.103181
        35        17        18        36     9        0.000000       -0.014778         1    ;  uncertainty k = 0.078555
        35        17        18        36     9      180.000000        7.498073         2    ;  uncertainty k = 0.337617
        35        17        18        36     9        0.000000       -0.424125         3    ;  uncertainty k = 0.279662
        35        17        18        36     9      180.000000        0.048151         4    ;  uncertainty k = 0.148926
        38         4         6        39     9        0.000000        0.028282         1    ;  uncertainty k = 0.538729
        38         4         6        39     9      180.000000        9.592925         2    ;  uncertainty k = 0.362315
        38         4         6        39     9        0.000000        1.300800         3    ;  uncertainty k = 0.319505
        38         4         6        39     9      180.000000        1.289875         4    ;  uncertainty k = 0.247330

[ dihedrals ] ; impropers
;       ai        aj        ak        al funct           phase               k        pn
         1         2         3         7     4      180.000000        9.929304         2    ;  uncertainty k = 0.155026
         1         3         7         2     4      180.000000        9.929304         2    ;  uncertainty k = 0.155026
         1         7         2         3     4      180.000000        9.929304         2    ;  uncertainty k = 0.155026
         2         1         4        23     4      180.000000        5.153662         2    ;  uncertainty k = 0.127863
         2         4        23         1     4      180.000000        5.153662         2    ;  uncertainty k = 0.127863
         2        23         1         4     4      180.000000        5.153662         2    ;  uncertainty k = 0.127863
         3         1         5        24     4      180.000000        4.878334         2    ;  uncertainty k = 0.072958
         3         5        24         1     4      180.000000        4.878334         2    ;  uncertainty k = 0.072958
         3        24         1         5     4      180.000000        4.878334         2    ;  uncertainty k = 0.072958
         4         2         6        38     4      180.000000        8.705162         2    ;  uncertainty k = 0.211320
         4         6        38         2     4      180.000000        8.705162         2    ;  uncertainty k = 0.211320
         4        38         2         6     4      180.000000        8.705162         2    ;  uncertainty k = 0.211320
         5         3         6        25     4      180.000000        2.809989         2    ;  uncertainty k = 0.198283
         5         6        25         3     4      180.000000        2.809989         2    ;  uncertainty k = 0.198283
         5        25         3         6     4      180.000000        2.809989         2    ;  uncertainty k = 0.198283
         6         4         5        39     4      180.000000       16.072066         2    ;  uncertainty k = 0.024391
         6         5        39         4     4      180.000000       16.072066         2    ;  uncertainty k = 0.024391
         6        39         4         5     4      180.000000       16.072066         2    ;  uncertainty k = 0.024391
         7         1         8        21     4      180.000000       27.617240         2    ;  uncertainty k = 0.030731
         7         8        21         1     4      180.000000       27.617240         2    ;  uncertainty k = 0.030731
         7        21         1         8     4      180.000000       27.617240         2    ;  uncertainty k = 0.030731
         8         7        15        26     4      180.000000        1.775014         2    ;  uncertainty k = 0.439146
         8        15        26         7     4      180.000000        1.775014         2    ;  uncertainty k = 0.439146
         8        26         7        15     4      180.000000        1.775014         2    ;  uncertainty k = 0.439146
        11        12        17        30     4      180.000000        4.234205         2    ;  uncertainty k = 0.081881
        11        17        30        12     4      180.000000        4.234205         2    ;  uncertainty k = 0.081881
        11        30        12        17     4      180.000000        4.234205         2    ;  uncertainty k = 0.081881
        12        11        19        31     4      180.000000        3.983249         2    ;  uncertainty k = 0.116003
        12        19        31        11     4      180.000000        3.983249         2    ;  uncertainty k = 0.116003
        12        31        11        19     4      180.000000        3.983249         2    ;  uncertainty k = 0.116003
        13        18        19        32     4      180.000000        3.983249         2    ;  uncertainty k = 0.116003
        13        19        32        18     4      180.000000        3.983249         2    ;  uncertainty k = 0.116003
        13        32        18        19     4      180.000000        3.983249         2    ;  uncertainty k = 0.116003
        15         8        20        22     4      180.000000       34.921827         2    ;  uncertainty k = 0.079106
        15        20        22         8     4      180.000000       34.921827         2    ;  uncertainty k = 0.079106
        15        22         8        20     4      180.000000       34.921827         2    ;  uncertainty k = 0.079106
        16        20        21        34     4      180.000000       24.227487         2    ;  uncertainty k = 0.059569
        16        21        34        20     4      180.000000       24.227487         2    ;  uncertainty k = 0.059569
        16        34        20        21     4      180.000000       24.227487         2    ;  uncertainty k = 0.059569
        17        11        18        35     4      180.000000        4.404546         2    ;  uncertainty k = 0.145826
        17        18        35        11     4      180.000000        4.404546         2    ;  uncertainty k = 0.145826
        17        35        11        18     4      180.000000        4.404546         2    ;  uncertainty k = 0.145826
        18        13        17        36     4      180.000000        4.234205         2    ;  uncertainty k = 0.081881
        18        17        36        13     4      180.000000        4.234205         2    ;  uncertainty k = 0.081881
        18        36        13        17     4      180.000000        4.234205         2    ;  uncertainty k = 0.081881
        19        10        12        13     4      180.000000       12.157434         2    ;  uncertainty k = 0.087858
        19        12        13        10     4      180.000000       12.157434         2    ;  uncertainty k = 0.087858
        19        13        10        12     4      180.000000       12.157434         2    ;  uncertainty k = 0.087858
        22         9        15        37     4      180.000000        0.223430         2    ;  uncertainty k = 0.499605
        22        15        37         9     4      180.000000        0.223430         2    ;  uncertainty k = 0.499605
        22        37         9        15     4      180.000000        0.223430         2    ;  uncertainty k = 0.499605

[ pairs ]
;       ai        aj funct
         1         6     1
         1        15     1
         1        16     1
         1        25     1
         1        26     1
         1        38     1
         2         5     1
         2         8     1
         2        21     1
         2        24     1
         2        39     1
         2        40     1
         2        41     1
         2        42     1
         3         4     1
         3         8     1
         3        21     1
         3        23     1
         3        39     1
         4         7     1
         4        25     1
         5         7     1
         5        38     1
         6        23     1
         6        24     1
         6        40     1
         6        41     1
         6        42     1
         7        20     1
         7        22     1
         7        23     1
         7        24     1
         7        34     1
         8         9     1
         8        16     1
         8        37     1
         9        12     1
         9        13     1
         9        20     1
         9        33     1
        10        11     1
        10        15     1
        10        18     1
        10        31     1
        10        32     1
        10        37     1
        11        13     1
        11        36     1
        12        14     1
        12        18     1
        12        29     1
        12        32     1
        12        35     1
        13        14     1
        13        29     1
        13        31     1
        13        35     1
        14        22     1
        14        27     1
        14        28     1
        15        21     1
        15        27     1
        15        28     1
        15        34     1
        16        22     1
        17        19     1
        17        31     1
        17        32     1
        18        30     1
        19        22     1
        19        27     1
        19        28     1
        19        30     1
        19        33     1
        19        36     1
        20        26     1
        20        37     1
        21        26     1
        22        26     1
        22        29     1
        23        38     1
        24        25     1
        25        39     1
        27        29     1
        27        37     1
        28        29     1
        28        37     1
        29        33     1
        30        31     1
        30        35     1
        32        36     1
        35        36     1
        38        39     1
