; ITP file created by ByteFF-joint-25, 2025-07-14 11:36:42.713706

[ atomtypes ]
;name           bonded.type        at.num        mass        charge   ptype           sigma         epsilon
 c0bf                                   6      0.0000       0.00000       A     3.31529e-01     4.13287e-01    ;  uncertainty sigma = 0.000012, epsilon = 0.000817
 c1bf                                   6      0.0000       0.00000       A     3.31527e-01     4.13416e-01    ;  uncertainty sigma = 0.000012, epsilon = 0.000653
 c2bf                                   6      0.0000       0.00000       A     3.31512e-01     4.13462e-01    ;  uncertainty sigma = 0.000007, epsilon = 0.000571
 c3bf                                   6      0.0000       0.00000       A     3.31528e-01     4.13435e-01    ;  uncertainty sigma = 0.000010, epsilon = 0.000457
 c4bf                                   6      0.0000       0.00000       A     3.31509e-01     4.13090e-01    ;  uncertainty sigma = 0.000004, epsilon = 0.000604
 c5bf                                   6      0.0000       0.00000       A     3.31502e-01     4.13551e-01    ;  uncertainty sigma = 0.000010, epsilon = 0.001327
 c6bf                                   6      0.0000       0.00000       A     3.31521e-01     4.13338e-01    ;  uncertainty sigma = 0.000016, epsilon = 0.000691
 c7bf                                   6      0.0000       0.00000       A     3.31527e-01     4.13260e-01    ;  uncertainty sigma = 0.000014, epsilon = 0.001138
 c8bf                                   6      0.0000       0.00000       A     3.39762e-01     4.50673e-01    ;  uncertainty sigma = 0.000011, epsilon = 0.001255
 c9bf                                   6      0.0000       0.00000       A     3.39750e-01     4.50544e-01    ;  uncertainty sigma = 0.000007, epsilon = 0.000791
 c10bf                                  6      0.0000       0.00000       A     3.31517e-01     4.13350e-01    ;  uncertainty sigma = 0.000003, epsilon = 0.000541
 c11bf                                  6      0.0000       0.00000       A     3.31519e-01     4.13304e-01    ;  uncertainty sigma = 0.000003, epsilon = 0.000583
 c12bf                                  6      0.0000       0.00000       A     3.31519e-01     4.13304e-01    ;  uncertainty sigma = 0.000003, epsilon = 0.000583
 o13bf                                  8      0.0000       0.00000       A     3.24257e-01     3.88598e-01    ;  uncertainty sigma = 0.000013, epsilon = 0.001596
 c14bf                                  6      0.0000       0.00000       A     3.31516e-01     4.13349e-01    ;  uncertainty sigma = 0.000011, epsilon = 0.000874
 c15bf                                  6      0.0000       0.00000       A     3.31502e-01     4.13579e-01    ;  uncertainty sigma = 0.000011, epsilon = 0.000388
 c16bf                                  6      0.0000       0.00000       A     3.31519e-01     4.13331e-01    ;  uncertainty sigma = 0.000003, epsilon = 0.000569
 c17bf                                  6      0.0000       0.00000       A     3.31517e-01     4.13350e-01    ;  uncertainty sigma = 0.000003, epsilon = 0.000541
 c18bf                                  6      0.0000       0.00000       A     3.31542e-01     4.12960e-01    ;  uncertainty sigma = 0.000004, epsilon = 0.000669
 n19bf                                  7      0.0000       0.00000       A     3.38417e-01     3.93373e-01    ;  uncertainty sigma = 0.000016, epsilon = 0.001202
 n20bf                                  7      0.0000       0.00000       A     3.38417e-01     3.93426e-01    ;  uncertainty sigma = 0.000018, epsilon = 0.000868
 n21bf                                  7      0.0000       0.00000       A     3.27787e-01     6.48850e-01    ;  uncertainty sigma = 0.000034, epsilon = 0.002592
 h22bf                                  1      0.0000       0.00000       A     2.62571e-01     6.71532e-02    ;  uncertainty sigma = 0.000014, epsilon = 0.000602
 h23bf                                  1      0.0000       0.00000       A     2.62565e-01     6.70447e-02    ;  uncertainty sigma = 0.000011, epsilon = 0.000506
 h24bf                                  1      0.0000       0.00000       A     2.62565e-01     6.70999e-02    ;  uncertainty sigma = 0.000017, epsilon = 0.000526
 h25bf                                  1      0.0000       0.00000       A     2.62541e-01     6.69041e-02    ;  uncertainty sigma = 0.000018, epsilon = 0.000969
 h26bf                                  1      0.0000       0.00000       A     2.42232e-01     8.67796e-02    ;  uncertainty sigma = 0.000037, epsilon = 0.000692
 h27bf                                  1      0.0000       0.00000       A     2.42232e-01     8.67796e-02    ;  uncertainty sigma = 0.000037, epsilon = 0.000692
 h28bf                                  1      0.0000       0.00000       A     2.42260e-01     8.69504e-02    ;  uncertainty sigma = 0.000011, epsilon = 0.000481
 h29bf                                  1      0.0000       0.00000       A     2.62558e-01     6.70324e-02    ;  uncertainty sigma = 0.000010, epsilon = 0.000442
 h30bf                                  1      0.0000       0.00000       A     2.62562e-01     6.70739e-02    ;  uncertainty sigma = 0.000004, epsilon = 0.000538
 h31bf                                  1      0.0000       0.00000       A     2.62562e-01     6.70739e-02    ;  uncertainty sigma = 0.000004, epsilon = 0.000538
 h32bf                                  1      0.0000       0.00000       A     5.38011e-02     1.91837e-02    ;  uncertainty sigma = 0.000073, epsilon = 0.000888
 h33bf                                  1      0.0000       0.00000       A     2.44735e-01     6.71447e-02    ;  uncertainty sigma = 0.000026, epsilon = 0.000712
 h34bf                                  1      0.0000       0.00000       A     2.62552e-01     6.70645e-02    ;  uncertainty sigma = 0.000011, epsilon = 0.000453
 h35bf                                  1      0.0000       0.00000       A     2.62558e-01     6.70324e-02    ;  uncertainty sigma = 0.000010, epsilon = 0.000442
 h36bf                                  1      0.0000       0.00000       A     1.10591e-01     4.16159e-02    ;  uncertainty sigma = 0.000130, epsilon = 0.000719
 cl37bf                                17      0.0000       0.00000       A     3.46655e-01     1.10513e+00    ;  uncertainty sigma = 0.000022, epsilon = 0.001695
 c38bf                                  6      0.0000       0.00000       A     3.39791e-01     4.50611e-01    ;  uncertainty sigma = 0.000015, epsilon = 0.001229
 f39bf                                  9      0.0000       0.00000       A     3.03413e-01     3.47814e-01    ;  uncertainty sigma = 0.000011, epsilon = 0.001221
 f40bf                                  9      0.0000       0.00000       A     3.03413e-01     3.47814e-01    ;  uncertainty sigma = 0.000011, epsilon = 0.001221
 f41bf                                  9      0.0000       0.00000       A     3.03413e-01     3.47814e-01    ;  uncertainty sigma = 0.000011, epsilon = 0.001221

[ moleculetype ]
;name             nrexcl
 MOL                   3

[ atoms ]
;       nr            type      resi   res      atom      cgnr      charge          mass ; qtot
         1            c0bf         1   UNL        c0         1    -0.13270       12.0110 ; qtot   -0.133
         2            c1bf         1   UNL        c1         2    -0.09401       12.0110 ; qtot   -0.227
         3            c2bf         1   UNL        c2         3    -0.09569       12.0110 ; qtot   -0.322
         4            c3bf         1   UNL        c3         4     0.07816       12.0110 ; qtot   -0.244
         5            c4bf         1   UNL        c4         5    -0.07414       12.0110 ; qtot   -0.318
         6            c5bf         1   UNL        c5         6    -0.17736       12.0110 ; qtot   -0.496
         7            c6bf         1   UNL        c6         7     0.52931       12.0110 ; qtot    0.034
         8            c7bf         1   UNL        c7         8    -0.41864       12.0110 ; qtot   -0.385
         9            c8bf         1   UNL        c8         9     0.20508       12.0110 ; qtot   -0.180
        10            c9bf         1   UNL        c9        10     0.17238       12.0110 ; qtot   -0.008
        11           c10bf         1   UNL       c10        11    -0.13212       12.0110 ; qtot   -0.140
        12           c11bf         1   UNL       c11        12    -0.11431       12.0110 ; qtot   -0.254
        13           c12bf         1   UNL       c12        13    -0.11431       12.0110 ; qtot   -0.368
        14           o13bf         1   UNL       o13        14    -0.60202       15.9990 ; qtot   -0.970
        15           c14bf         1   UNL       c14        15     0.69818       12.0110 ; qtot   -0.272
        16           c15bf         1   UNL       c15        16     0.68025       12.0110 ; qtot    0.408
        17           c16bf         1   UNL       c16        17    -0.12191       12.0110 ; qtot    0.286
        18           c17bf         1   UNL       c17        18    -0.13212       12.0110 ; qtot    0.154
        19           c18bf         1   UNL       c18        19    -0.11806       12.0110 ; qtot    0.036
        20           n19bf         1   UNL       n19        20    -0.77724       14.0070 ; qtot   -0.741
        21           n20bf         1   UNL       n20        21    -0.73236       14.0070 ; qtot   -1.474
        22           n21bf         1   UNL       n21        22    -0.87199       14.0070 ; qtot   -2.346
        23           h22bf         1   UNL       h22        23     0.16512        1.0080 ; qtot   -2.181
        24           h23bf         1   UNL       h23        24     0.15394        1.0080 ; qtot   -2.027
        25           h24bf         1   UNL       h24        25     0.15944        1.0080 ; qtot   -1.867
        26           h25bf         1   UNL       h25        26     0.15255        1.0080 ; qtot   -1.715
        27           h26bf         1   UNL       h26        27     0.06384        1.0080 ; qtot   -1.651
        28           h27bf         1   UNL       h27        28     0.06384        1.0080 ; qtot   -1.587
        29           h28bf         1   UNL       h28        29     0.05801        1.0080 ; qtot   -1.529
        30           h29bf         1   UNL       h29        30     0.13206        1.0080 ; qtot   -1.397
        31           h30bf         1   UNL       h30        31     0.13699        1.0080 ; qtot   -1.260
        32           h31bf         1   UNL       h31        32     0.13699        1.0080 ; qtot   -1.123
        33           h32bf         1   UNL       h32        33     0.41310        1.0080 ; qtot   -0.710
        34           h33bf         1   UNL       h33        34     0.05077        1.0080 ; qtot   -0.659
        35           h34bf         1   UNL       h34        35     0.13198        1.0080 ; qtot   -0.527
        36           h35bf         1   UNL       h35        36     0.13206        1.0080 ; qtot   -0.395
        37           h36bf         1   UNL       h36        37     0.44064        1.0080 ; qtot    0.046
        38          cl37bf         1   UNL      cl37        38    -0.08434       35.4530 ; qtot   -0.039
        39           c38bf         1   UNL       c38        39     0.71334       12.0110 ; qtot    0.675
        40           f39bf         1   UNL       f39        40    -0.22491       18.9980 ; qtot    0.450
        41           f40bf         1   UNL       f40        41    -0.22491       18.9980 ; qtot    0.225
        42           f41bf         1   UNL       f41        42    -0.22489       18.9980 ; qtot   -0.000

[ bonds ]
;       ai        aj funct               r               k
         1         2     1        0.139387   351131.014746    ;  uncertainty r = 0.000024, k = 7.643860
         1         3     1        0.139498   346156.794434    ;  uncertainty r = 0.000042, k = 5.162235
         1         7     1        0.147416   260541.694434    ;  uncertainty r = 0.000051, k = 6.224248
         2         4     1        0.139187   350493.838330    ;  uncertainty r = 0.000068, k = 3.921144
         2        23     1        0.108614   334827.460156    ;  uncertainty r = 0.000026, k = 0.615491
         3         5     1        0.138976   363192.651172    ;  uncertainty r = 0.000042, k = 1.979762
         3        24     1        0.108661   333290.943359    ;  uncertainty r = 0.000042, k = 0.534023
         4         6     1        0.139762   340789.047266    ;  uncertainty r = 0.000075, k = 5.748086
         4        38     1        0.174863   192535.274072    ;  uncertainty r = 0.000082, k = 1.166254
         5         6     1        0.139157   356783.449609    ;  uncertainty r = 0.000059, k = 5.104680
         5        25     1        0.108525   331834.664160    ;  uncertainty r = 0.000019, k = 1.481924
         6        39     1        0.150230   221061.936230    ;  uncertainty r = 0.000067, k = 9.364037
         7         8     1        0.140261   426638.680078    ;  uncertainty r = 0.000058, k = 10.008238
         7        21     1        0.135550   395656.497168    ;  uncertainty r = 0.000046, k = 8.778963
         8        15     1        0.142200   437085.145410    ;  uncertainty r = 0.000074, k = 7.312812
         8        26     1        0.108982   347697.397168    ;  uncertainty r = 0.000060, k = 3.509310
         9        10     1        0.153528   198932.485962    ;  uncertainty r = 0.000113, k = 4.485541
         9        22     1        0.144360   258703.533301    ;  uncertainty r = 0.000127, k = 5.188267
         9        27     1        0.109548   306948.010498    ;  uncertainty r = 0.000056, k = 1.476386
         9        28     1        0.109548   306948.010498    ;  uncertainty r = 0.000056, k = 1.476386
        10        14     1        0.143014   262792.254346    ;  uncertainty r = 0.000086, k = 14.622904
        10        19     1        0.151556   222180.461621    ;  uncertainty r = 0.000089, k = 7.017739
        10        29     1        0.109828   303256.263818    ;  uncertainty r = 0.000046, k = 1.650587
        11        12     1        0.139619   365954.387402    ;  uncertainty r = 0.000008, k = 1.292992
        11        17     1        0.139616   371124.732715    ;  uncertainty r = 0.000020, k = 1.036768
        11        30     1        0.108853   334096.639160    ;  uncertainty r = 0.000011, k = 0.985251
        12        19     1        0.139806   351916.766064    ;  uncertainty r = 0.000010, k = 1.187834
        12        31     1        0.108853   333813.534766    ;  uncertainty r = 0.000015, k = 0.555194
        13        18     1        0.139619   365954.387402    ;  uncertainty r = 0.000008, k = 1.292992
        13        19     1        0.139806   351916.766064    ;  uncertainty r = 0.000010, k = 1.187834
        13        32     1        0.108853   333813.534766    ;  uncertainty r = 0.000015, k = 0.555194
        14        33     1        0.097118   460583.525195    ;  uncertainty r = 0.000045, k = 3.102113
        15        20     1        0.135563   598530.699805    ;  uncertainty r = 0.000139, k = 9.101913
        15        22     1        0.139244   503022.932227    ;  uncertainty r = 0.000156, k = 11.982701
        16        20     1        0.134248   427021.200439    ;  uncertainty r = 0.000126, k = 12.560964
        16        21     1        0.133902   409960.291797    ;  uncertainty r = 0.000038, k = 12.892596
        16        34     1        0.108823   332455.624512    ;  uncertainty r = 0.000016, k = 3.398046
        17        18     1        0.139616   371124.758252    ;  uncertainty r = 0.000020, k = 1.036768
        17        35     1        0.108851   334582.457129    ;  uncertainty r = 0.000012, k = 0.680670
        18        36     1        0.108853   334096.639160    ;  uncertainty r = 0.000011, k = 0.985251
        22        37     1        0.101725   420522.644531    ;  uncertainty r = 0.000069, k = 3.098785
        39        40     1        0.135318   284516.264697    ;  uncertainty r = 0.000049, k = 3.530126
        39        41     1        0.135318   284516.264697    ;  uncertainty r = 0.000049, k = 3.530126
        39        42     1        0.135318   284516.264697    ;  uncertainty r = 0.000049, k = 3.530126

[ angles ]
;       ai        aj        ak funct           theta             cth
         1         2         4     1      121.085388      501.617427    ;  uncertainty theta = 0.002104, k = 0.062637
         1         2        23     1      118.969528      264.111967    ;  uncertainty theta = 0.002809, k = 0.058043
         1         3         5     1      120.797852      528.477614    ;  uncertainty theta = 0.002440, k = 0.111110
         1         3        24     1      118.384972      268.393775    ;  uncertainty theta = 0.003872, k = 0.103019
         1         7         8     1      121.074692      397.936189    ;  uncertainty theta = 0.005463, k = 0.194857
         1         7        21     1      117.990517      474.175664    ;  uncertainty theta = 0.004665, k = 0.132497
         2         1         3     1      120.493118      419.382668    ;  uncertainty theta = 0.003129, k = 0.149766
         2         1         7     1      117.469765      395.320422    ;  uncertainty theta = 0.003469, k = 0.103034
         2         4         6     1      124.032242      368.948888    ;  uncertainty theta = 0.003997, k = 0.193035
         2         4        38     1      119.003441      450.683184    ;  uncertainty theta = 0.001529, k = 0.118533
         3         1         7     1      118.347023      401.711307    ;  uncertainty theta = 0.003327, k = 0.098896
         3         5         6     1      122.593735      496.104731    ;  uncertainty theta = 0.002794, k = 0.098898
         3         5        25     1      120.002281      278.209824    ;  uncertainty theta = 0.001852, k = 0.050946
         4         2        23     1      120.077332      287.941059    ;  uncertainty theta = 0.002870, k = 0.076795
         4         6         5     1      121.596581      457.569840    ;  uncertainty theta = 0.003242, k = 0.133646
         4         6        39     1      116.847435      347.153412    ;  uncertainty theta = 0.004236, k = 0.298472
         5         3        24     1      120.007889      288.063542    ;  uncertainty theta = 0.002400, k = 0.063962
         5         6        39     1      116.294022      363.912427    ;  uncertainty theta = 0.004440, k = 0.106351
         6         4        38     1      117.791306      413.663856    ;  uncertainty theta = 0.001190, k = 0.102435
         6         5        25     1      116.614769      266.010588    ;  uncertainty theta = 0.002789, k = 0.106039
         6        39        40     1      112.602943      639.936594    ;  uncertainty theta = 0.002836, k = 0.076450
         6        39        41     1      112.602943      639.936594    ;  uncertainty theta = 0.002836, k = 0.076450
         6        39        42     1      112.602943      639.936594    ;  uncertainty theta = 0.002836, k = 0.076450
         7         8        15     1      117.325096      473.941617    ;  uncertainty theta = 0.006479, k = 0.274664
         7         8        26     1      122.085487      274.950076    ;  uncertainty theta = 0.001862, k = 0.169687
         7        21        16     1      114.118759      411.076308    ;  uncertainty theta = 0.005056, k = 0.193805
         8         7        21     1      121.895241      595.945540    ;  uncertainty theta = 0.004003, k = 0.118559
         8        15        20     1      120.465775      559.577504    ;  uncertainty theta = 0.004274, k = 0.131688
         8        15        22     1      124.405197      635.166262    ;  uncertainty theta = 0.005407, k = 0.116906
         9        10        14     1      108.648598      745.773101    ;  uncertainty theta = 0.001850, k = 0.090465
         9        10        19     1      111.675133      529.233800    ;  uncertainty theta = 0.002433, k = 0.102801
         9        10        29     1      107.655739      397.413157    ;  uncertainty theta = 0.001835, k = 0.063660
         9        22        15     1      115.022720      415.197008    ;  uncertainty theta = 0.003932, k = 0.139541
         9        22        37     1      111.930687      338.512452    ;  uncertainty theta = 0.006639, k = 0.093922
        10         9        22     1      109.072731      588.135334    ;  uncertainty theta = 0.003588, k = 0.076167
        10         9        27     1      108.264954      386.766225    ;  uncertainty theta = 0.001128, k = 0.087129
        10         9        28     1      108.264954      386.766225    ;  uncertainty theta = 0.001128, k = 0.087129
        10        14        33     1      107.778908      462.824962    ;  uncertainty theta = 0.002314, k = 0.060682
        10        19        12     1      119.990318      398.450314    ;  uncertainty theta = 0.001704, k = 0.122614
        10        19        13     1      119.990318      398.450314    ;  uncertainty theta = 0.001704, k = 0.122614
        11        12        19     1      120.930702      517.466172    ;  uncertainty theta = 0.001222, k = 0.047814
        11        12        31     1      120.258339      291.729553    ;  uncertainty theta = 0.002156, k = 0.015437
        11        17        18     1      118.312904      525.474865    ;  uncertainty theta = 0.001259, k = 0.033725
        11        17        35     1      120.606750      289.256635    ;  uncertainty theta = 0.001707, k = 0.007155
        12        11        17     1      119.668961      514.607037    ;  uncertainty theta = 0.000852, k = 0.027695
        12        11        30     1      120.182228      283.193264    ;  uncertainty theta = 0.001483, k = 0.023123
        12        19        13     1      120.620529      467.609435    ;  uncertainty theta = 0.001046, k = 0.044080
        13        18        17     1      119.668961      514.607037    ;  uncertainty theta = 0.000852, k = 0.027695
        13        18        36     1      120.182228      283.193264    ;  uncertainty theta = 0.001483, k = 0.023123
        14        10        19     1      111.132469      757.316130    ;  uncertainty theta = 0.001813, k = 0.056225
        14        10        29     1      107.460892      475.171803    ;  uncertainty theta = 0.003128, k = 0.059555
        15         8        26     1      122.820290      279.161624    ;  uncertainty theta = 0.002177, k = 0.088284
        15        20        16     1      114.208336      402.225401    ;  uncertainty theta = 0.007184, k = 0.116286
        15        22        37     1      114.952065      412.285969    ;  uncertainty theta = 0.001414, k = 0.081088
        17        11        30     1      120.593102      287.981121    ;  uncertainty theta = 0.001462, k = 0.008017
        17        18        36     1      120.593102      287.981121    ;  uncertainty theta = 0.001462, k = 0.008017
        18        13        19     1      120.930702      517.466172    ;  uncertainty theta = 0.001222, k = 0.047814
        18        13        32     1      120.258339      291.729553    ;  uncertainty theta = 0.002156, k = 0.015437
        18        17        35     1      120.606750      289.256635    ;  uncertainty theta = 0.001707, k = 0.007155
        19        10        29     1      107.338806      403.998379    ;  uncertainty theta = 0.003013, k = 0.110102
        19        12        31     1      118.778320      265.740150    ;  uncertainty theta = 0.001504, k = 0.035529
        19        13        32     1      118.778320      265.740150    ;  uncertainty theta = 0.001504, k = 0.035529
        20        15        22     1      122.203979      876.041727    ;  uncertainty theta = 0.006036, k = 0.092665
        20        16        21     1      127.365524      928.346068    ;  uncertainty theta = 0.002641, k = 0.109018
        20        16        34     1      115.958923      303.662438    ;  uncertainty theta = 0.004108, k = 0.062101
        21        16        34     1      116.290024      310.582675    ;  uncertainty theta = 0.004161, k = 0.066237
        22         9        27     1      106.848366      448.950650    ;  uncertainty theta = 0.001286, k = 0.079205
        22         9        28     1      106.848366      448.950650    ;  uncertainty theta = 0.001286, k = 0.079205
        27         9        28     1      106.681496      323.153860    ;  uncertainty theta = 0.001150, k = 0.024224
        40        39        41     1      107.906540      806.138104    ;  uncertainty theta = 0.001971, k = 0.027072
        40        39        42     1      107.906540      806.138104    ;  uncertainty theta = 0.001971, k = 0.027072
        41        39        42     1      107.906540      806.138104    ;  uncertainty theta = 0.001971, k = 0.027072

[ dihedrals ] ; propers for gromacs 4.5 or higher, use funct 9
;       ai        aj        ak        al funct           phase               k        pn
         1         2         4         6     9        0.000000        0.147055         1    ;  uncertainty k = 0.440193
         1         2         4         6     9      180.000000        7.904321         2    ;  uncertainty k = 0.536003
         1         2         4         6     9        0.000000        0.401756         3    ;  uncertainty k = 0.371582
         1         2         4         6     9      180.000000        1.280574         4    ;  uncertainty k = 0.391486
         1         2         4        38     9        0.000000        0.002751         1    ;  uncertainty k = 0.200334
         1         2         4        38     9      180.000000        9.545877         2    ;  uncertainty k = 0.360534
         1         2         4        38     9        0.000000        1.355702         3    ;  uncertainty k = 0.291410
         1         2         4        38     9      180.000000        1.717919         4    ;  uncertainty k = 0.069131
         1         3         5         6     9        0.000000       -0.102795         1    ;  uncertainty k = 0.521836
         1         3         5         6     9      180.000000       11.703935         2    ;  uncertainty k = 0.616488
         1         3         5         6     9        0.000000       -0.478111         3    ;  uncertainty k = 0.118835
         1         3         5         6     9      180.000000        0.959114         4    ;  uncertainty k = 0.348387
         1         3         5        25     9        0.000000       -0.012209         1    ;  uncertainty k = 0.073822
         1         3         5        25     9      180.000000        8.161434         2    ;  uncertainty k = 0.502963
         1         3         5        25     9        0.000000        1.247810         3    ;  uncertainty k = 0.220257
         1         3         5        25     9      180.000000        1.811916         4    ;  uncertainty k = 0.164012
         1         7         8        15     9        0.000000       -0.217537         1    ;  uncertainty k = 0.593511
         1         7         8        15     9      180.000000        7.743146         2    ;  uncertainty k = 0.929718
         1         7         8        15     9        0.000000        0.695554         3    ;  uncertainty k = 0.316891
         1         7         8        15     9      180.000000        1.146428         4    ;  uncertainty k = 0.368965
         1         7         8        26     9        0.000000       -0.214273         1    ;  uncertainty k = 1.027366
         1         7         8        26     9      180.000000        6.899665         2    ;  uncertainty k = 0.448126
         1         7         8        26     9        0.000000        0.702257         3    ;  uncertainty k = 0.259074
         1         7         8        26     9      180.000000        0.935090         4    ;  uncertainty k = 0.207057
         1         7        21        16     9        0.000000        0.092931         1    ;  uncertainty k = 0.541312
         1         7        21        16     9      180.000000       14.592956         2    ;  uncertainty k = 0.405283
         1         7        21        16     9        0.000000        2.087467         3    ;  uncertainty k = 0.300826
         1         7        21        16     9      180.000000        1.580863         4    ;  uncertainty k = 0.450630
         2         1         3         5     9        0.000000        0.129286         1    ;  uncertainty k = 0.081801
         2         1         3         5     9      180.000000       10.722104         2    ;  uncertainty k = 0.201014
         2         1         3         5     9        0.000000       -0.502276         3    ;  uncertainty k = 0.157436
         2         1         3         5     9      180.000000        0.952858         4    ;  uncertainty k = 0.219253
         2         1         3        24     9        0.000000        0.162087         1    ;  uncertainty k = 0.086218
         2         1         3        24     9      180.000000        7.035023         2    ;  uncertainty k = 0.507108
         2         1         3        24     9        0.000000        1.338863         3    ;  uncertainty k = 0.163161
         2         1         3        24     9      180.000000        1.611973         4    ;  uncertainty k = 0.263224
         2         1         7         8     9        0.000000       -0.300346         1    ;  uncertainty k = 0.543378
         2         1         7         8     9      180.000000        3.786453         2    ;  uncertainty k = 0.357587
         2         1         7         8     9        0.000000        0.420353         3    ;  uncertainty k = 0.220213
         2         1         7         8     9      180.000000       -0.096473         4    ;  uncertainty k = 0.064003
         2         1         7        21     9        0.000000        1.148344         1    ;  uncertainty k = 0.475185
         2         1         7        21     9      180.000000        5.079864         2    ;  uncertainty k = 0.233694
         2         1         7        21     9        0.000000        0.618587         3    ;  uncertainty k = 0.226724
         2         1         7        21     9      180.000000        0.119406         4    ;  uncertainty k = 0.053538
         2         4         6         5     9        0.000000       -0.289300         1    ;  uncertainty k = 0.386735
         2         4         6         5     9      180.000000        7.251092         2    ;  uncertainty k = 0.686693
         2         4         6         5     9        0.000000        0.124522         3    ;  uncertainty k = 0.483804
         2         4         6         5     9      180.000000        1.111694         4    ;  uncertainty k = 0.376762
         2         4         6        39     9        0.000000        0.125816         1    ;  uncertainty k = 0.338476
         2         4         6        39     9      180.000000        7.553412         2    ;  uncertainty k = 0.487973
         2         4         6        39     9        0.000000        1.374991         3    ;  uncertainty k = 0.376556
         2         4         6        39     9      180.000000        1.852457         4    ;  uncertainty k = 0.219471
         3         1         2         4     9        0.000000        0.284761         1    ;  uncertainty k = 0.203921
         3         1         2         4     9      180.000000       11.026140         2    ;  uncertainty k = 0.304312
         3         1         2         4     9        0.000000       -0.395436         3    ;  uncertainty k = 0.304689
         3         1         2         4     9      180.000000        1.004701         4    ;  uncertainty k = 0.212789
         3         1         2        23     9        0.000000        0.247129         1    ;  uncertainty k = 0.152366
         3         1         2        23     9      180.000000        7.059452         2    ;  uncertainty k = 0.504301
         3         1         2        23     9        0.000000        1.297530         3    ;  uncertainty k = 0.221037
         3         1         2        23     9      180.000000        1.642430         4    ;  uncertainty k = 0.272066
         3         1         7         8     9        0.000000       -0.352692         1    ;  uncertainty k = 0.560575
         3         1         7         8     9      180.000000        3.691192         2    ;  uncertainty k = 0.264906
         3         1         7         8     9        0.000000        0.429703         3    ;  uncertainty k = 0.229798
         3         1         7         8     9      180.000000       -0.122771         4    ;  uncertainty k = 0.075700
         3         1         7        21     9        0.000000        1.208958         1    ;  uncertainty k = 0.467121
         3         1         7        21     9      180.000000        4.971643         2    ;  uncertainty k = 0.149190
         3         1         7        21     9        0.000000        0.619549         3    ;  uncertainty k = 0.257406
         3         1         7        21     9      180.000000        0.113083         4    ;  uncertainty k = 0.044915
         3         5         6         4     9        0.000000       -0.158350         1    ;  uncertainty k = 0.131077
         3         5         6         4     9      180.000000       11.217961         2    ;  uncertainty k = 0.327009
         3         5         6         4     9        0.000000       -0.106279         3    ;  uncertainty k = 0.330576
         3         5         6         4     9      180.000000        1.076985         4    ;  uncertainty k = 0.271172
         3         5         6        39     9        0.000000        0.163089         1    ;  uncertainty k = 0.353221
         3         5         6        39     9      180.000000        9.964742         2    ;  uncertainty k = 0.814079
         3         5         6        39     9        0.000000        1.620613         3    ;  uncertainty k = 0.285106
         3         5         6        39     9      180.000000        1.991083         4    ;  uncertainty k = 0.415704
         4         2         1         7     9        0.000000        0.455534         1    ;  uncertainty k = 0.503373
         4         2         1         7     9      180.000000        8.488818         2    ;  uncertainty k = 0.493240
         4         2         1         7     9        0.000000        1.444654         3    ;  uncertainty k = 0.374841
         4         2         1         7     9      180.000000        1.781966         4    ;  uncertainty k = 0.136914
         4         6         5        25     9        0.000000        0.049425         1    ;  uncertainty k = 0.219580
         4         6         5        25     9      180.000000        7.984051         2    ;  uncertainty k = 0.473287
         4         6         5        25     9        0.000000        1.268055         3    ;  uncertainty k = 0.325470
         4         6         5        25     9      180.000000        1.588598         4    ;  uncertainty k = 0.249405
         4         6        39        40     9        0.000000        0.115669         1    ;  uncertainty k = 0.455107
         4         6        39        40     9      180.000000        2.511859         2    ;  uncertainty k = 0.247717
         4         6        39        40     9        0.000000        0.890765         3    ;  uncertainty k = 0.111212
         4         6        39        40     9      180.000000        0.265816         4    ;  uncertainty k = 0.065920
         4         6        39        41     9        0.000000        0.115669         1    ;  uncertainty k = 0.455107
         4         6        39        41     9      180.000000        2.511859         2    ;  uncertainty k = 0.247717
         4         6        39        41     9        0.000000        0.890765         3    ;  uncertainty k = 0.111212
         4         6        39        41     9      180.000000        0.265816         4    ;  uncertainty k = 0.065920
         4         6        39        42     9        0.000000        0.115669         1    ;  uncertainty k = 0.455107
         4         6        39        42     9      180.000000        2.511859         2    ;  uncertainty k = 0.247717
         4         6        39        42     9        0.000000        0.890765         3    ;  uncertainty k = 0.111212
         4         6        39        42     9      180.000000        0.265816         4    ;  uncertainty k = 0.065920
         5         3         1         7     9        0.000000        0.356597         1    ;  uncertainty k = 0.605429
         5         3         1         7     9      180.000000        8.557927         2    ;  uncertainty k = 0.676418
         5         3         1         7     9        0.000000        1.299818         3    ;  uncertainty k = 0.386649
         5         3         1         7     9      180.000000        1.784132         4    ;  uncertainty k = 0.207979
         5         6         4        38     9        0.000000        0.052725         1    ;  uncertainty k = 0.301885
         5         6         4        38     9      180.000000        8.262091         2    ;  uncertainty k = 0.551026
         5         6         4        38     9        0.000000        1.407044         3    ;  uncertainty k = 0.301689
         5         6         4        38     9      180.000000        1.526560         4    ;  uncertainty k = 0.196844
         5         6        39        40     9        0.000000       -0.900452         1    ;  uncertainty k = 0.469086
         5         6        39        40     9      180.000000        2.563764         2    ;  uncertainty k = 0.192430
         5         6        39        40     9        0.000000        0.322140         3    ;  uncertainty k = 0.080266
         5         6        39        40     9      180.000000        0.180035         4    ;  uncertainty k = 0.048802
         5         6        39        41     9        0.000000       -0.900452         1    ;  uncertainty k = 0.469086
         5         6        39        41     9      180.000000        2.563764         2    ;  uncertainty k = 0.192430
         5         6        39        41     9        0.000000        0.322140         3    ;  uncertainty k = 0.080266
         5         6        39        41     9      180.000000        0.180035         4    ;  uncertainty k = 0.048802
         5         6        39        42     9        0.000000       -0.900452         1    ;  uncertainty k = 0.469086
         5         6        39        42     9      180.000000        2.563764         2    ;  uncertainty k = 0.192430
         5         6        39        42     9        0.000000        0.322140         3    ;  uncertainty k = 0.080266
         5         6        39        42     9      180.000000        0.180035         4    ;  uncertainty k = 0.048802
         6         4         2        23     9        0.000000        0.130098         1    ;  uncertainty k = 0.235807
         6         4         2        23     9      180.000000        6.072979         2    ;  uncertainty k = 0.484500
         6         4         2        23     9        0.000000        1.399347         3    ;  uncertainty k = 0.354470
         6         4         2        23     9      180.000000        1.642316         4    ;  uncertainty k = 0.195146
         6         5         3        24     9        0.000000        0.101500         1    ;  uncertainty k = 0.166350
         6         5         3        24     9      180.000000        7.719452         2    ;  uncertainty k = 0.303409
         6         5         3        24     9        0.000000        1.397608         3    ;  uncertainty k = 0.134210
         6         5         3        24     9      180.000000        1.824506         4    ;  uncertainty k = 0.166545
         7         1         2        23     9        0.000000       -0.305530         1    ;  uncertainty k = 0.327561
         7         1         2        23     9      180.000000        7.308666         2    ;  uncertainty k = 0.307637
         7         1         2        23     9        0.000000        0.650408         3    ;  uncertainty k = 0.115271
         7         1         2        23     9      180.000000        1.178241         4    ;  uncertainty k = 0.105508
         7         1         3        24     9        0.000000       -0.303458         1    ;  uncertainty k = 0.347570
         7         1         3        24     9      180.000000        7.244618         2    ;  uncertainty k = 0.307816
         7         1         3        24     9        0.000000        0.647394         3    ;  uncertainty k = 0.120246
         7         1         3        24     9      180.000000        1.153731         4    ;  uncertainty k = 0.088989
         7         8        15        20     9        0.000000       -0.502896         1    ;  uncertainty k = 0.429723
         7         8        15        20     9      180.000000        7.805510         2    ;  uncertainty k = 0.788663
         7         8        15        20     9        0.000000       -0.903027         3    ;  uncertainty k = 0.556683
         7         8        15        20     9      180.000000        1.183427         4    ;  uncertainty k = 0.315223
         7         8        15        22     9        0.000000       -0.966272         1    ;  uncertainty k = 0.784158
         7         8        15        22     9      180.000000        6.411791         2    ;  uncertainty k = 0.456149
         7         8        15        22     9        0.000000        0.063954         3    ;  uncertainty k = 0.336379
         7         8        15        22     9      180.000000        0.899904         4    ;  uncertainty k = 0.181898
         7        21        16        20     9        0.000000       -0.829496         1    ;  uncertainty k = 0.625542
         7        21        16        20     9      180.000000       16.507558         2    ;  uncertainty k = 0.369845
         7        21        16        20     9        0.000000        0.118959         3    ;  uncertainty k = 0.582404
         7        21        16        20     9      180.000000        1.173576         4    ;  uncertainty k = 0.279813
         7        21        16        34     9        0.000000       -0.410975         1    ;  uncertainty k = 0.434551
         7        21        16        34     9      180.000000       12.409998         2    ;  uncertainty k = 0.410582
         7        21        16        34     9        0.000000        1.723604         3    ;  uncertainty k = 0.671836
         7        21        16        34     9      180.000000        1.277348         4    ;  uncertainty k = 0.431773
         8         7        21        16     9        0.000000       -0.268193         1    ;  uncertainty k = 0.864498
         8         7        21        16     9      180.000000       13.386702         2    ;  uncertainty k = 0.526137
         8         7        21        16     9        0.000000        0.287639         3    ;  uncertainty k = 0.976877
         8         7        21        16     9      180.000000        1.134189         4    ;  uncertainty k = 0.376217
         8        15        20        16     9        0.000000       -0.350078         1    ;  uncertainty k = 0.812325
         8        15        20        16     9      180.000000        9.930014         2    ;  uncertainty k = 0.557509
         8        15        20        16     9        0.000000        0.516622         3    ;  uncertainty k = 0.789553
         8        15        20        16     9      180.000000        1.058186         4    ;  uncertainty k = 0.142047
         8        15        22         9     9        0.000000        5.603689         1    ;  uncertainty k = 0.487731
         8        15        22         9     9      180.000000        9.173858         2    ;  uncertainty k = 0.234225
         8        15        22         9     9        0.000000        0.682452         3    ;  uncertainty k = 0.250442
         8        15        22         9     9      180.000000       -0.440404         4    ;  uncertainty k = 0.169398
         8        15        22        37     9        0.000000        4.297370         1    ;  uncertainty k = 0.414563
         8        15        22        37     9      180.000000        7.947808         2    ;  uncertainty k = 0.147068
         8        15        22        37     9        0.000000        1.249630         3    ;  uncertainty k = 0.211856
         8        15        22        37     9      180.000000       -0.412992         4    ;  uncertainty k = 0.196225
         9        10        14        33     9        0.000000       16.539194         1    ;  uncertainty k = 0.182172
         9        10        14        33     9      180.000000       -3.181446         2    ;  uncertainty k = 0.394315
         9        10        14        33     9        0.000000        1.050863         3    ;  uncertainty k = 0.081907
         9        10        14        33     9      180.000000        0.368805         4    ;  uncertainty k = 0.156069
         9        10        19        12     9        0.000000       -0.273818         1    ;  uncertainty k = 0.106175
         9        10        19        12     9      180.000000        2.079481         2    ;  uncertainty k = 0.182501
         9        10        19        12     9        0.000000        0.512262         3    ;  uncertainty k = 0.147544
         9        10        19        12     9      180.000000        0.343982         4    ;  uncertainty k = 0.021980
         9        10        19        13     9        0.000000       -0.273818         1    ;  uncertainty k = 0.106175
         9        10        19        13     9      180.000000        2.079481         2    ;  uncertainty k = 0.182501
         9        10        19        13     9        0.000000        0.512262         3    ;  uncertainty k = 0.147544
         9        10        19        13     9      180.000000        0.343982         4    ;  uncertainty k = 0.021980
         9        22        15        20     9        0.000000        8.533711         1    ;  uncertainty k = 0.435190
         9        22        15        20     9      180.000000       12.802851         2    ;  uncertainty k = 0.140763
         9        22        15        20     9        0.000000        1.500694         3    ;  uncertainty k = 0.229157
         9        22        15        20     9      180.000000       -0.498831         4    ;  uncertainty k = 0.087310
        10         9        22        15     9        0.000000       -0.181203         1    ;  uncertainty k = 0.437855
        10         9        22        15     9      180.000000       -0.656643         2    ;  uncertainty k = 0.612261
        10         9        22        15     9        0.000000        0.233868         3    ;  uncertainty k = 0.313268
        10         9        22        15     9      180.000000        0.414120         4    ;  uncertainty k = 0.035681
        10         9        22        37     9        0.000000        3.680901         1    ;  uncertainty k = 0.713382
        10         9        22        37     9      180.000000       -3.627771         2    ;  uncertainty k = 0.381036
        10         9        22        37     9        0.000000        0.657609         3    ;  uncertainty k = 0.120801
        10         9        22        37     9      180.000000       -0.046604         4    ;  uncertainty k = 0.144754
        10        19        12        11     9        0.000000        0.277494         1    ;  uncertainty k = 0.259279
        10        19        12        11     9      180.000000        9.380655         2    ;  uncertainty k = 0.580889
        10        19        12        11     9        0.000000        1.260903         3    ;  uncertainty k = 0.297020
        10        19        12        11     9      180.000000        1.849205         4    ;  uncertainty k = 0.223533
        10        19        12        31     9        0.000000       -0.044601         1    ;  uncertainty k = 0.495487
        10        19        12        31     9      180.000000        7.557641         2    ;  uncertainty k = 0.152609
        10        19        12        31     9        0.000000        0.648505         3    ;  uncertainty k = 0.330112
        10        19        12        31     9      180.000000        0.986671         4    ;  uncertainty k = 0.169058
        10        19        13        18     9        0.000000        0.277494         1    ;  uncertainty k = 0.259279
        10        19        13        18     9      180.000000        9.380655         2    ;  uncertainty k = 0.580889
        10        19        13        18     9        0.000000        1.260903         3    ;  uncertainty k = 0.297020
        10        19        13        18     9      180.000000        1.849205         4    ;  uncertainty k = 0.223533
        10        19        13        32     9        0.000000       -0.044601         1    ;  uncertainty k = 0.495487
        10        19        13        32     9      180.000000        7.557641         2    ;  uncertainty k = 0.152609
        10        19        13        32     9        0.000000        0.648505         3    ;  uncertainty k = 0.330112
        10        19        13        32     9      180.000000        0.986671         4    ;  uncertainty k = 0.169058
        11        12        19        13     9        0.000000       -0.165953         1    ;  uncertainty k = 0.169992
        11        12        19        13     9      180.000000       11.757607         2    ;  uncertainty k = 0.401729
        11        12        19        13     9        0.000000       -0.505821         3    ;  uncertainty k = 0.348703
        11        12        19        13     9      180.000000        0.798513         4    ;  uncertainty k = 0.397673
        11        17        18        13     9        0.000000       -0.003189         1    ;  uncertainty k = 0.038440
        11        17        18        13     9      180.000000       15.016788         2    ;  uncertainty k = 0.249663
        11        17        18        13     9        0.000000       -1.210513         3    ;  uncertainty k = 0.492875
        11        17        18        13     9      180.000000        0.498916         4    ;  uncertainty k = 0.293179
        11        17        18        36     9        0.000000        0.038009         1    ;  uncertainty k = 0.035822
        11        17        18        36     9      180.000000        7.549305         2    ;  uncertainty k = 0.334350
        11        17        18        36     9        0.000000        1.438249         3    ;  uncertainty k = 0.318741
        11        17        18        36     9      180.000000        1.792783         4    ;  uncertainty k = 0.163179
        12        11        17        18     9        0.000000       -0.003189         1    ;  uncertainty k = 0.038440
        12        11        17        18     9      180.000000       15.016788         2    ;  uncertainty k = 0.249663
        12        11        17        18     9        0.000000       -1.210513         3    ;  uncertainty k = 0.492875
        12        11        17        18     9      180.000000        0.498916         4    ;  uncertainty k = 0.293179
        12        11        17        35     9        0.000000        0.056378         1    ;  uncertainty k = 0.091793
        12        11        17        35     9      180.000000        7.450064         2    ;  uncertainty k = 0.356222
        12        11        17        35     9        0.000000        1.472207         3    ;  uncertainty k = 0.287391
        12        11        17        35     9      180.000000        1.800180         4    ;  uncertainty k = 0.190036
        12        19        10        14     9        0.000000       -1.453975         1    ;  uncertainty k = 0.447986
        12        19        10        14     9      180.000000        3.360421         2    ;  uncertainty k = 0.198780
        12        19        10        14     9        0.000000        0.848407         3    ;  uncertainty k = 0.189850
        12        19        10        14     9      180.000000        0.435805         4    ;  uncertainty k = 0.036604
        12        19        10        29     9        0.000000       -0.600193         1    ;  uncertainty k = 0.218608
        12        19        10        29     9      180.000000        1.966965         2    ;  uncertainty k = 0.154440
        12        19        10        29     9        0.000000        0.553661         3    ;  uncertainty k = 0.127024
        12        19        10        29     9      180.000000        0.313797         4    ;  uncertainty k = 0.019730
        12        19        13        18     9        0.000000       -0.165953         1    ;  uncertainty k = 0.169992
        12        19        13        18     9      180.000000       11.757607         2    ;  uncertainty k = 0.401729
        12        19        13        18     9        0.000000       -0.505821         3    ;  uncertainty k = 0.348703
        12        19        13        18     9      180.000000        0.798513         4    ;  uncertainty k = 0.397673
        12        19        13        32     9        0.000000        0.131870         1    ;  uncertainty k = 0.167883
        12        19        13        32     9      180.000000        7.224544         2    ;  uncertainty k = 0.567570
        12        19        13        32     9        0.000000        1.415746         3    ;  uncertainty k = 0.327246
        12        19        13        32     9      180.000000        1.668075         4    ;  uncertainty k = 0.170613
        13        18        17        35     9        0.000000        0.056378         1    ;  uncertainty k = 0.091793
        13        18        17        35     9      180.000000        7.450064         2    ;  uncertainty k = 0.356222
        13        18        17        35     9        0.000000        1.472207         3    ;  uncertainty k = 0.287391
        13        18        17        35     9      180.000000        1.800180         4    ;  uncertainty k = 0.190036
        13        19        10        14     9        0.000000       -1.453975         1    ;  uncertainty k = 0.447986
        13        19        10        14     9      180.000000        3.360421         2    ;  uncertainty k = 0.198780
        13        19        10        14     9        0.000000        0.848407         3    ;  uncertainty k = 0.189850
        13        19        10        14     9      180.000000        0.435805         4    ;  uncertainty k = 0.036604
        13        19        10        29     9        0.000000       -0.600193         1    ;  uncertainty k = 0.218608
        13        19        10        29     9      180.000000        1.966965         2    ;  uncertainty k = 0.154440
        13        19        10        29     9        0.000000        0.553661         3    ;  uncertainty k = 0.127024
        13        19        10        29     9      180.000000        0.313797         4    ;  uncertainty k = 0.019730
        13        19        12        31     9        0.000000        0.131870         1    ;  uncertainty k = 0.167883
        13        19        12        31     9      180.000000        7.224544         2    ;  uncertainty k = 0.567570
        13        19        12        31     9        0.000000        1.415746         3    ;  uncertainty k = 0.327246
        13        19        12        31     9      180.000000        1.668075         4    ;  uncertainty k = 0.170613
        14        10         9        22     9        0.000000       -0.052607         1    ;  uncertainty k = 0.764083
        14        10         9        22     9      180.000000       -0.749437         2    ;  uncertainty k = 0.395318
        14        10         9        22     9        0.000000        1.713416         3    ;  uncertainty k = 0.321039
        14        10         9        22     9      180.000000       -0.561414         4    ;  uncertainty k = 0.195159
        14        10         9        27     9        0.000000       -1.242394         1    ;  uncertainty k = 0.559340
        14        10         9        27     9      180.000000       -0.234284         2    ;  uncertainty k = 0.168601
        14        10         9        27     9        0.000000        1.039378         3    ;  uncertainty k = 0.150261
        14        10         9        27     9      180.000000       -0.102798         4    ;  uncertainty k = 0.150575
        14        10         9        28     9        0.000000       -1.242394         1    ;  uncertainty k = 0.559340
        14        10         9        28     9      180.000000       -0.234284         2    ;  uncertainty k = 0.168601
        14        10         9        28     9        0.000000        1.039378         3    ;  uncertainty k = 0.150261
        14        10         9        28     9      180.000000       -0.102798         4    ;  uncertainty k = 0.150575
        15         8         7        21     9        0.000000       -0.236034         1    ;  uncertainty k = 0.468609
        15         8         7        21     9      180.000000       12.682117         2    ;  uncertainty k = 0.529608
        15         8         7        21     9        0.000000       -1.109003         3    ;  uncertainty k = 0.683977
        15         8         7        21     9      180.000000        1.022512         4    ;  uncertainty k = 0.330754
        15        20        16        21     9        0.000000       -0.727031         1    ;  uncertainty k = 1.154526
        15        20        16        21     9      180.000000       15.842485         2    ;  uncertainty k = 0.398145
        15        20        16        21     9        0.000000       -0.257081         3    ;  uncertainty k = 0.319591
        15        20        16        21     9      180.000000        0.992483         4    ;  uncertainty k = 0.176270
        15        20        16        34     9        0.000000       -0.392488         1    ;  uncertainty k = 0.864220
        15        20        16        34     9      180.000000       12.489467         2    ;  uncertainty k = 0.378782
        15        20        16        34     9        0.000000        1.355690         3    ;  uncertainty k = 0.760379
        15        20        16        34     9      180.000000        0.853020         4    ;  uncertainty k = 0.299132
        15        22         9        27     9        0.000000       -1.147632         1    ;  uncertainty k = 0.263721
        15        22         9        27     9      180.000000       -0.482322         2    ;  uncertainty k = 0.302946
        15        22         9        27     9        0.000000        0.226739         3    ;  uncertainty k = 0.211259
        15        22         9        27     9      180.000000        0.248702         4    ;  uncertainty k = 0.013743
        15        22         9        28     9        0.000000       -1.147632         1    ;  uncertainty k = 0.263721
        15        22         9        28     9      180.000000       -0.482322         2    ;  uncertainty k = 0.302946
        15        22         9        28     9        0.000000        0.226739         3    ;  uncertainty k = 0.211259
        15        22         9        28     9      180.000000        0.248702         4    ;  uncertainty k = 0.013743
        16        20        15        22     9        0.000000       -0.152560         1    ;  uncertainty k = 1.153662
        16        20        15        22     9      180.000000       12.736509         2    ;  uncertainty k = 0.218695
        16        20        15        22     9        0.000000        2.232715         3    ;  uncertainty k = 0.423520
        16        20        15        22     9      180.000000        1.585263         4    ;  uncertainty k = 0.416482
        17        11        12        19     9        0.000000       -0.091981         1    ;  uncertainty k = 0.109878
        17        11        12        19     9      180.000000       13.825977         2    ;  uncertainty k = 0.203920
        17        11        12        19     9        0.000000       -0.976820         3    ;  uncertainty k = 0.497977
        17        11        12        19     9      180.000000        0.702825         4    ;  uncertainty k = 0.246026
        17        11        12        31     9        0.000000        0.043151         1    ;  uncertainty k = 0.053762
        17        11        12        31     9      180.000000        7.853416         2    ;  uncertainty k = 0.298299
        17        11        12        31     9        0.000000        1.416969         3    ;  uncertainty k = 0.297576
        17        11        12        31     9      180.000000        1.844954         4    ;  uncertainty k = 0.168713
        17        18        13        19     9        0.000000       -0.091981         1    ;  uncertainty k = 0.109878
        17        18        13        19     9      180.000000       13.825977         2    ;  uncertainty k = 0.203920
        17        18        13        19     9        0.000000       -0.976820         3    ;  uncertainty k = 0.497977
        17        18        13        19     9      180.000000        0.702825         4    ;  uncertainty k = 0.246026
        17        18        13        32     9        0.000000        0.043151         1    ;  uncertainty k = 0.053762
        17        18        13        32     9      180.000000        7.853416         2    ;  uncertainty k = 0.298299
        17        18        13        32     9        0.000000        1.416969         3    ;  uncertainty k = 0.297576
        17        18        13        32     9      180.000000        1.844954         4    ;  uncertainty k = 0.168713
        18        17        11        30     9        0.000000        0.038009         1    ;  uncertainty k = 0.035822
        18        17        11        30     9      180.000000        7.549305         2    ;  uncertainty k = 0.334350
        18        17        11        30     9        0.000000        1.438249         3    ;  uncertainty k = 0.318741
        18        17        11        30     9      180.000000        1.792783         4    ;  uncertainty k = 0.163179
        19        10         9        22     9        0.000000       -2.195261         1    ;  uncertainty k = 0.395882
        19        10         9        22     9      180.000000       -0.031057         2    ;  uncertainty k = 0.681736
        19        10         9        22     9        0.000000        2.005161         3    ;  uncertainty k = 0.343930
        19        10         9        22     9      180.000000        0.115840         4    ;  uncertainty k = 0.059502
        19        10         9        27     9        0.000000       -0.032425         1    ;  uncertainty k = 0.325911
        19        10         9        27     9      180.000000        0.090710         2    ;  uncertainty k = 0.447956
        19        10         9        27     9        0.000000        0.614218         3    ;  uncertainty k = 0.070661
        19        10         9        27     9      180.000000       -0.058272         4    ;  uncertainty k = 0.097588
        19        10         9        28     9        0.000000       -0.032425         1    ;  uncertainty k = 0.325911
        19        10         9        28     9      180.000000        0.090710         2    ;  uncertainty k = 0.447956
        19        10         9        28     9        0.000000        0.614218         3    ;  uncertainty k = 0.070661
        19        10         9        28     9      180.000000       -0.058272         4    ;  uncertainty k = 0.097588
        19        10        14        33     9        0.000000       15.207439         1    ;  uncertainty k = 0.126759
        19        10        14        33     9      180.000000       -2.891249         2    ;  uncertainty k = 0.433974
        19        10        14        33     9        0.000000        1.036217         3    ;  uncertainty k = 0.050697
        19        10        14        33     9      180.000000        0.184126         4    ;  uncertainty k = 0.080140
        19        12        11        30     9        0.000000        0.047860         1    ;  uncertainty k = 0.232277
        19        12        11        30     9      180.000000        7.569870         2    ;  uncertainty k = 0.397811
        19        12        11        30     9        0.000000        1.467091         3    ;  uncertainty k = 0.255631
        19        12        11        30     9      180.000000        1.771465         4    ;  uncertainty k = 0.128664
        19        13        18        36     9        0.000000        0.047860         1    ;  uncertainty k = 0.232277
        19        13        18        36     9      180.000000        7.569870         2    ;  uncertainty k = 0.397811
        19        13        18        36     9        0.000000        1.467091         3    ;  uncertainty k = 0.255631
        19        13        18        36     9      180.000000        1.771465         4    ;  uncertainty k = 0.128664
        20        15         8        26     9        0.000000        0.249111         1    ;  uncertainty k = 0.450714
        20        15         8        26     9      180.000000        6.845142         2    ;  uncertainty k = 0.457090
        20        15         8        26     9        0.000000        1.342062         3    ;  uncertainty k = 0.374432
        20        15         8        26     9      180.000000        1.372476         4    ;  uncertainty k = 0.171953
        20        15        22        37     9        0.000000       12.912348         1    ;  uncertainty k = 0.293676
        20        15        22        37     9      180.000000        9.801748         2    ;  uncertainty k = 0.250858
        20        15        22        37     9        0.000000        0.647644         3    ;  uncertainty k = 0.160502
        20        15        22        37     9      180.000000       -0.317777         4    ;  uncertainty k = 0.163284
        21         7         8        26     9        0.000000        0.142053         1    ;  uncertainty k = 0.591144
        21         7         8        26     9      180.000000        9.240385         2    ;  uncertainty k = 0.467655
        21         7         8        26     9        0.000000        1.382417         3    ;  uncertainty k = 0.262163
        21         7         8        26     9      180.000000        1.572761         4    ;  uncertainty k = 0.162036
        22         9        10        29     9        0.000000       -0.572508         1    ;  uncertainty k = 0.377115
        22         9        10        29     9      180.000000       -0.600289         2    ;  uncertainty k = 0.341220
        22         9        10        29     9        0.000000        1.087420         3    ;  uncertainty k = 0.209284
        22         9        10        29     9      180.000000       -0.040588         4    ;  uncertainty k = 0.052009
        22        15         8        26     9        0.000000       -0.296826         1    ;  uncertainty k = 0.345651
        22        15         8        26     9      180.000000        5.479218         2    ;  uncertainty k = 0.647782
        22        15         8        26     9        0.000000        0.987843         3    ;  uncertainty k = 0.396911
        22        15         8        26     9      180.000000        0.695542         4    ;  uncertainty k = 0.197095
        23         2         4        38     9        0.000000       -0.277797         1    ;  uncertainty k = 0.553770
        23         2         4        38     9      180.000000        8.000105         2    ;  uncertainty k = 0.536533
        23         2         4        38     9        0.000000        0.611615         3    ;  uncertainty k = 0.189340
        23         2         4        38     9      180.000000        1.114350         4    ;  uncertainty k = 0.287243
        24         3         5        25     9        0.000000       -0.001370         1    ;  uncertainty k = 0.321235
        24         3         5        25     9      180.000000        8.281277         2    ;  uncertainty k = 0.474792
        24         3         5        25     9        0.000000       -0.360200         3    ;  uncertainty k = 0.251392
        24         3         5        25     9      180.000000        0.258757         4    ;  uncertainty k = 0.173334
        25         5         6        39     9        0.000000        0.034697         1    ;  uncertainty k = 0.251048
        25         5         6        39     9      180.000000        8.989426         2    ;  uncertainty k = 0.604891
        25         5         6        39     9        0.000000        0.714619         3    ;  uncertainty k = 0.196441
        25         5         6        39     9      180.000000        1.086222         4    ;  uncertainty k = 0.169594
        27         9        10        29     9        0.000000       -0.062118         1    ;  uncertainty k = 0.175980
        27         9        10        29     9      180.000000       -0.346454         2    ;  uncertainty k = 0.237264
        27         9        10        29     9        0.000000       -0.035091         3    ;  uncertainty k = 0.145025
        27         9        10        29     9      180.000000       -0.049706         4    ;  uncertainty k = 0.074111
        27         9        22        37     9        0.000000        2.288821         1    ;  uncertainty k = 0.507795
        27         9        22        37     9      180.000000       -1.939761         2    ;  uncertainty k = 0.413857
        27         9        22        37     9        0.000000        0.268258         3    ;  uncertainty k = 0.084403
        27         9        22        37     9      180.000000        0.114796         4    ;  uncertainty k = 0.076861
        28         9        10        29     9        0.000000       -0.062118         1    ;  uncertainty k = 0.175980
        28         9        10        29     9      180.000000       -0.346454         2    ;  uncertainty k = 0.237264
        28         9        10        29     9        0.000000       -0.035091         3    ;  uncertainty k = 0.145025
        28         9        10        29     9      180.000000       -0.049706         4    ;  uncertainty k = 0.074111
        28         9        22        37     9        0.000000        2.288821         1    ;  uncertainty k = 0.507795
        28         9        22        37     9      180.000000       -1.939761         2    ;  uncertainty k = 0.413857
        28         9        22        37     9        0.000000        0.268258         3    ;  uncertainty k = 0.084403
        28         9        22        37     9      180.000000        0.114796         4    ;  uncertainty k = 0.076861
        29        10        14        33     9        0.000000       11.445025         1    ;  uncertainty k = 0.077908
        29        10        14        33     9      180.000000       -2.625800         2    ;  uncertainty k = 0.375643
        29        10        14        33     9        0.000000        0.698341         3    ;  uncertainty k = 0.074671
        29        10        14        33     9      180.000000        0.156691         4    ;  uncertainty k = 0.100510
        30        11        12        31     9        0.000000       -0.051759         1    ;  uncertainty k = 0.105402
        30        11        12        31     9      180.000000        7.644705         2    ;  uncertainty k = 0.306864
        30        11        12        31     9        0.000000       -0.441178         3    ;  uncertainty k = 0.237620
        30        11        12        31     9      180.000000        0.096993         4    ;  uncertainty k = 0.103181
        30        11        17        35     9        0.000000       -0.014778         1    ;  uncertainty k = 0.078555
        30        11        17        35     9      180.000000        7.498073         2    ;  uncertainty k = 0.337617
        30        11        17        35     9        0.000000       -0.424125         3    ;  uncertainty k = 0.279662
        30        11        17        35     9      180.000000        0.048151         4    ;  uncertainty k = 0.148926
        32        13        18        36     9        0.000000       -0.051759         1    ;  uncertainty k = 0.105402
        32        13        18        36     9      180.000000        7.644705         2    ;  uncertainty k = 0.306864
        32        13        18        36     9        0.000000       -0.441178         3    ;  uncertainty k = 0.237620
        32        13        18        36     9      180.000000        0.096993         4    ;  uncertainty k = 0.103181
        35        17        18        36     9        0.000000       -0.014778         1    ;  uncertainty k = 0.078555
        35        17        18        36     9      180.000000        7.498073         2    ;  uncertainty k = 0.337617
        35        17        18        36     9        0.000000       -0.424125         3    ;  uncertainty k = 0.279662
        35        17        18        36     9      180.000000        0.048151         4    ;  uncertainty k = 0.148926
        38         4         6        39     9        0.000000       -0.021981         1    ;  uncertainty k = 0.453837
        38         4         6        39     9      180.000000        9.529973         2    ;  uncertainty k = 0.363934
        38         4         6        39     9        0.000000        1.288932         3    ;  uncertainty k = 0.283061
        38         4         6        39     9      180.000000        1.294797         4    ;  uncertainty k = 0.255246

[ dihedrals ] ; impropers
;       ai        aj        ak        al funct           phase               k        pn
         1         2         3         7     4      180.000000       11.221040         2    ;  uncertainty k = 0.138089
         1         3         7         2     4      180.000000       11.221040         2    ;  uncertainty k = 0.138089
         1         7         2         3     4      180.000000       11.221040         2    ;  uncertainty k = 0.138089
         2         1         4        23     4      180.000000        3.824747         2    ;  uncertainty k = 0.164282
         2         4        23         1     4      180.000000        3.824747         2    ;  uncertainty k = 0.164282
         2        23         1         4     4      180.000000        3.824747         2    ;  uncertainty k = 0.164282
         3         1         5        24     4      180.000000        4.014740         2    ;  uncertainty k = 0.137436
         3         5        24         1     4      180.000000        4.014740         2    ;  uncertainty k = 0.137436
         3        24         1         5     4      180.000000        4.014740         2    ;  uncertainty k = 0.137436
         4         2         6        38     4      180.000000       15.346527         2    ;  uncertainty k = 0.051231
         4         6        38         2     4      180.000000       15.346527         2    ;  uncertainty k = 0.051231
         4        38         2         6     4      180.000000       15.346527         2    ;  uncertainty k = 0.051231
         5         3         6        25     4      180.000000        4.433864         2    ;  uncertainty k = 0.074149
         5         6        25         3     4      180.000000        4.433864         2    ;  uncertainty k = 0.074149
         5        25         3         6     4      180.000000        4.433864         2    ;  uncertainty k = 0.074149
         6         4         5        39     4      180.000000        8.823206         2    ;  uncertainty k = 0.136133
         6         5        39         4     4      180.000000        8.823206         2    ;  uncertainty k = 0.136133
         6        39         4         5     4      180.000000        8.823206         2    ;  uncertainty k = 0.136133
         7         1         8        21     4      180.000000       27.415068         2    ;  uncertainty k = 0.028614
         7         8        21         1     4      180.000000       27.415068         2    ;  uncertainty k = 0.028614
         7        21         1         8     4      180.000000       27.415068         2    ;  uncertainty k = 0.028614
         8         7        15        26     4      180.000000        1.744947         2    ;  uncertainty k = 0.419948
         8        15        26         7     4      180.000000        1.744947         2    ;  uncertainty k = 0.419948
         8        26         7        15     4      180.000000        1.744947         2    ;  uncertainty k = 0.419948
        11        12        17        30     4      180.000000        4.234205         2    ;  uncertainty k = 0.081881
        11        17        30        12     4      180.000000        4.234205         2    ;  uncertainty k = 0.081881
        11        30        12        17     4      180.000000        4.234205         2    ;  uncertainty k = 0.081881
        12        11        19        31     4      180.000000        3.983249         2    ;  uncertainty k = 0.116003
        12        19        31        11     4      180.000000        3.983249         2    ;  uncertainty k = 0.116003
        12        31        11        19     4      180.000000        3.983249         2    ;  uncertainty k = 0.116003
        13        18        19        32     4      180.000000        3.983249         2    ;  uncertainty k = 0.116003
        13        19        32        18     4      180.000000        3.983249         2    ;  uncertainty k = 0.116003
        13        32        18        19     4      180.000000        3.983249         2    ;  uncertainty k = 0.116003
        15         8        20        22     4      180.000000       34.921827         2    ;  uncertainty k = 0.079106
        15        20        22         8     4      180.000000       34.921827         2    ;  uncertainty k = 0.079106
        15        22         8        20     4      180.000000       34.921827         2    ;  uncertainty k = 0.079106
        16        20        21        34     4      180.000000       24.227487         2    ;  uncertainty k = 0.059569
        16        21        34        20     4      180.000000       24.227487         2    ;  uncertainty k = 0.059569
        16        34        20        21     4      180.000000       24.227487         2    ;  uncertainty k = 0.059569
        17        11        18        35     4      180.000000        4.404546         2    ;  uncertainty k = 0.145826
        17        18        35        11     4      180.000000        4.404546         2    ;  uncertainty k = 0.145826
        17        35        11        18     4      180.000000        4.404546         2    ;  uncertainty k = 0.145826
        18        13        17        36     4      180.000000        4.234205         2    ;  uncertainty k = 0.081881
        18        17        36        13     4      180.000000        4.234205         2    ;  uncertainty k = 0.081881
        18        36        13        17     4      180.000000        4.234205         2    ;  uncertainty k = 0.081881
        19        10        12        13     4      180.000000       12.157434         2    ;  uncertainty k = 0.087858
        19        12        13        10     4      180.000000       12.157434         2    ;  uncertainty k = 0.087858
        19        13        10        12     4      180.000000       12.157434         2    ;  uncertainty k = 0.087858
        22         9        15        37     4      180.000000        0.223430         2    ;  uncertainty k = 0.499605
        22        15        37         9     4      180.000000        0.223430         2    ;  uncertainty k = 0.499605
        22        37         9        15     4      180.000000        0.223430         2    ;  uncertainty k = 0.499605

[ pairs ]
;       ai        aj funct
         1         6     1
         1        15     1
         1        16     1
         1        25     1
         1        26     1
         1        38     1
         2         5     1
         2         8     1
         2        21     1
         2        24     1
         2        39     1
         3         4     1
         3         8     1
         3        21     1
         3        23     1
         3        39     1
         4         7     1
         4        25     1
         4        40     1
         4        41     1
         4        42     1
         5         7     1
         5        38     1
         5        40     1
         5        41     1
         5        42     1
         6        23     1
         6        24     1
         7        20     1
         7        22     1
         7        23     1
         7        24     1
         7        34     1
         8         9     1
         8        16     1
         8        37     1
         9        12     1
         9        13     1
         9        20     1
         9        33     1
        10        11     1
        10        15     1
        10        18     1
        10        31     1
        10        32     1
        10        37     1
        11        13     1
        11        36     1
        12        14     1
        12        18     1
        12        29     1
        12        32     1
        12        35     1
        13        14     1
        13        29     1
        13        31     1
        13        35     1
        14        22     1
        14        27     1
        14        28     1
        15        21     1
        15        27     1
        15        28     1
        15        34     1
        16        22     1
        17        19     1
        17        31     1
        17        32     1
        18        30     1
        19        22     1
        19        27     1
        19        28     1
        19        30     1
        19        33     1
        19        36     1
        20        26     1
        20        37     1
        21        26     1
        22        26     1
        22        29     1
        23        38     1
        24        25     1
        25        39     1
        27        29     1
        27        37     1
        28        29     1
        28        37     1
        29        33     1
        30        31     1
        30        35     1
        32        36     1
        35        36     1
        38        39     1
