; ITP file created by ByteFF-joint-25, 2025-07-14 11:36:40.810937

[ atomtypes ]
;name           bonded.type        at.num        mass        charge   ptype           sigma         epsilon
 c0bf                                   6      0.0000       0.00000       A     3.31518e-01     4.13059e-01    ;  uncertainty sigma = 0.000013, epsilon = 0.001015
 c1bf                                   6      0.0000       0.00000       A     3.31514e-01     4.13382e-01    ;  uncertainty sigma = 0.000011, epsilon = 0.000538
 c2bf                                   6      0.0000       0.00000       A     3.31516e-01     4.13351e-01    ;  uncertainty sigma = 0.000007, epsilon = 0.000482
 c3bf                                   6      0.0000       0.00000       A     3.31512e-01     4.13343e-01    ;  uncertainty sigma = 0.000006, epsilon = 0.000818
 c4bf                                   6      0.0000       0.00000       A     3.31521e-01     4.13462e-01    ;  uncertainty sigma = 0.000004, epsilon = 0.000774
 c5bf                                   6      0.0000       0.00000       A     3.31508e-01     4.13381e-01    ;  uncertainty sigma = 0.000003, epsilon = 0.000757
 c6bf                                   6      0.0000       0.00000       A     3.31520e-01     4.13458e-01    ;  uncertainty sigma = 0.000018, epsilon = 0.000624
 c7bf                                   6      0.0000       0.00000       A     3.31526e-01     4.13261e-01    ;  uncertainty sigma = 0.000014, epsilon = 0.001131
 c8bf                                   6      0.0000       0.00000       A     3.39762e-01     4.50673e-01    ;  uncertainty sigma = 0.000011, epsilon = 0.001255
 c9bf                                   6      0.0000       0.00000       A     3.39750e-01     4.50544e-01    ;  uncertainty sigma = 0.000007, epsilon = 0.000791
 c10bf                                  6      0.0000       0.00000       A     3.31517e-01     4.13350e-01    ;  uncertainty sigma = 0.000003, epsilon = 0.000541
 c11bf                                  6      0.0000       0.00000       A     3.31519e-01     4.13304e-01    ;  uncertainty sigma = 0.000003, epsilon = 0.000583
 c12bf                                  6      0.0000       0.00000       A     3.31519e-01     4.13304e-01    ;  uncertainty sigma = 0.000003, epsilon = 0.000583
 o13bf                                  8      0.0000       0.00000       A     3.24257e-01     3.88598e-01    ;  uncertainty sigma = 0.000013, epsilon = 0.001596
 c14bf                                  6      0.0000       0.00000       A     3.39774e-01     4.50864e-01    ;  uncertainty sigma = 0.000009, epsilon = 0.000621
 c15bf                                  6      0.0000       0.00000       A     3.31516e-01     4.13349e-01    ;  uncertainty sigma = 0.000011, epsilon = 0.000874
 c16bf                                  6      0.0000       0.00000       A     3.31502e-01     4.13579e-01    ;  uncertainty sigma = 0.000011, epsilon = 0.000388
 c17bf                                  6      0.0000       0.00000       A     3.31519e-01     4.13331e-01    ;  uncertainty sigma = 0.000003, epsilon = 0.000569
 c18bf                                  6      0.0000       0.00000       A     3.31517e-01     4.13350e-01    ;  uncertainty sigma = 0.000003, epsilon = 0.000541
 c19bf                                  6      0.0000       0.00000       A     3.31542e-01     4.12960e-01    ;  uncertainty sigma = 0.000004, epsilon = 0.000669
 c20bf                                  6      0.0000       0.00000       A     3.39774e-01     4.50864e-01    ;  uncertainty sigma = 0.000009, epsilon = 0.000621
 n21bf                                  7      0.0000       0.00000       A     3.38417e-01     3.93373e-01    ;  uncertainty sigma = 0.000016, epsilon = 0.001202
 n22bf                                  7      0.0000       0.00000       A     3.38419e-01     3.93430e-01    ;  uncertainty sigma = 0.000018, epsilon = 0.000866
 n23bf                                  7      0.0000       0.00000       A     3.27787e-01     6.48850e-01    ;  uncertainty sigma = 0.000034, epsilon = 0.002592
 o24bf                                  8      0.0000       0.00000       A     3.15622e-01     3.03641e-01    ;  uncertainty sigma = 0.000015, epsilon = 0.000957
 o25bf                                  8      0.0000       0.00000       A     3.15634e-01     3.03755e-01    ;  uncertainty sigma = 0.000014, epsilon = 0.000927
 h26bf                                  1      0.0000       0.00000       A     2.62552e-01     6.71672e-02    ;  uncertainty sigma = 0.000011, epsilon = 0.000595
 h27bf                                  1      0.0000       0.00000       A     2.62562e-01     6.71926e-02    ;  uncertainty sigma = 0.000010, epsilon = 0.000548
 h28bf                                  1      0.0000       0.00000       A     2.62562e-01     6.68741e-02    ;  uncertainty sigma = 0.000009, epsilon = 0.000591
 h29bf                                  1      0.0000       0.00000       A     2.62541e-01     6.69041e-02    ;  uncertainty sigma = 0.000018, epsilon = 0.000969
 h30bf                                  1      0.0000       0.00000       A     2.42232e-01     8.67796e-02    ;  uncertainty sigma = 0.000037, epsilon = 0.000692
 h31bf                                  1      0.0000       0.00000       A     2.42232e-01     8.67796e-02    ;  uncertainty sigma = 0.000037, epsilon = 0.000692
 h32bf                                  1      0.0000       0.00000       A     2.42260e-01     8.69504e-02    ;  uncertainty sigma = 0.000011, epsilon = 0.000481
 h33bf                                  1      0.0000       0.00000       A     2.62558e-01     6.70324e-02    ;  uncertainty sigma = 0.000010, epsilon = 0.000442
 h34bf                                  1      0.0000       0.00000       A     2.62562e-01     6.70739e-02    ;  uncertainty sigma = 0.000004, epsilon = 0.000538
 h35bf                                  1      0.0000       0.00000       A     2.62562e-01     6.70739e-02    ;  uncertainty sigma = 0.000004, epsilon = 0.000538
 h36bf                                  1      0.0000       0.00000       A     5.38011e-02     1.91837e-02    ;  uncertainty sigma = 0.000073, epsilon = 0.000888
 h37bf                                  1      0.0000       0.00000       A     2.42208e-01     8.68243e-02    ;  uncertainty sigma = 0.000028, epsilon = 0.000782
 h38bf                                  1      0.0000       0.00000       A     2.42208e-01     8.68243e-02    ;  uncertainty sigma = 0.000028, epsilon = 0.000782
 h39bf                                  1      0.0000       0.00000       A     2.44735e-01     6.71447e-02    ;  uncertainty sigma = 0.000026, epsilon = 0.000712
 h40bf                                  1      0.0000       0.00000       A     2.62552e-01     6.70645e-02    ;  uncertainty sigma = 0.000011, epsilon = 0.000453
 h41bf                                  1      0.0000       0.00000       A     2.62558e-01     6.70324e-02    ;  uncertainty sigma = 0.000010, epsilon = 0.000442
 h42bf                                  1      0.0000       0.00000       A     2.42208e-01     8.68243e-02    ;  uncertainty sigma = 0.000028, epsilon = 0.000782
 h43bf                                  1      0.0000       0.00000       A     2.42208e-01     8.68243e-02    ;  uncertainty sigma = 0.000028, epsilon = 0.000782
 h44bf                                  1      0.0000       0.00000       A     1.10591e-01     4.16158e-02    ;  uncertainty sigma = 0.000130, epsilon = 0.000719

[ moleculetype ]
;name             nrexcl
 MOL                   3

[ atoms ]
;       nr            type      resi   res      atom      cgnr      charge          mass ; qtot
         1            c0bf         1   UNL        c0         1    -0.16422       12.0110 ; qtot   -0.164
         2            c1bf         1   UNL        c1         2    -0.08890       12.0110 ; qtot   -0.253
         3            c2bf         1   UNL        c2         3    -0.08896       12.0110 ; qtot   -0.342
         4            c3bf         1   UNL        c3         4     0.04562       12.0110 ; qtot   -0.296
         5            c4bf         1   UNL        c4         5    -0.13367       12.0110 ; qtot   -0.430
         6            c5bf         1   UNL        c5         6     0.07068       12.0110 ; qtot   -0.359
         7            c6bf         1   UNL        c6         7     0.53489       12.0110 ; qtot    0.175
         8            c7bf         1   UNL        c7         8    -0.42062       12.0110 ; qtot   -0.245
         9            c8bf         1   UNL        c8         9     0.20508       12.0110 ; qtot   -0.040
        10            c9bf         1   UNL        c9        10     0.17238       12.0110 ; qtot    0.132
        11           c10bf         1   UNL       c10        11    -0.13212       12.0110 ; qtot    0.000
        12           c11bf         1   UNL       c11        12    -0.11431       12.0110 ; qtot   -0.114
        13           c12bf         1   UNL       c12        13    -0.11431       12.0110 ; qtot   -0.228
        14           o13bf         1   UNL       o13        14    -0.60202       15.9990 ; qtot   -0.830
        15           c14bf         1   UNL       c14        15     0.09336       12.0110 ; qtot   -0.737
        16           c15bf         1   UNL       c15        16     0.69828       12.0110 ; qtot   -0.039
        17           c16bf         1   UNL       c16        17     0.68063       12.0110 ; qtot    0.642
        18           c17bf         1   UNL       c17        18    -0.12191       12.0110 ; qtot    0.520
        19           c18bf         1   UNL       c18        19    -0.13212       12.0110 ; qtot    0.388
        20           c19bf         1   UNL       c19        20    -0.11806       12.0110 ; qtot    0.270
        21           c20bf         1   UNL       c20        21     0.09300       12.0110 ; qtot    0.363
        22           n21bf         1   UNL       n21        22    -0.77724       14.0070 ; qtot   -0.415
        23           n22bf         1   UNL       n22        23    -0.73458       14.0070 ; qtot   -1.149
        24           n23bf         1   UNL       n23        24    -0.87199       14.0070 ; qtot   -2.021
        25           o24bf         1   UNL       o24        25    -0.31283       15.9990 ; qtot   -2.334
        26           o25bf         1   UNL       o25        26    -0.31230       15.9990 ; qtot   -2.646
        27           h26bf         1   UNL       h26        27     0.15751        1.0080 ; qtot   -2.489
        28           h27bf         1   UNL       h27        28     0.14930        1.0080 ; qtot   -2.339
        29           h28bf         1   UNL       h28        29     0.15035        1.0080 ; qtot   -2.189
        30           h29bf         1   UNL       h29        30     0.15253        1.0080 ; qtot   -2.037
        31           h30bf         1   UNL       h30        31     0.06384        1.0080 ; qtot   -1.973
        32           h31bf         1   UNL       h31        32     0.06384        1.0080 ; qtot   -1.909
        33           h32bf         1   UNL       h32        33     0.05801        1.0080 ; qtot   -1.851
        34           h33bf         1   UNL       h33        34     0.13206        1.0080 ; qtot   -1.719
        35           h34bf         1   UNL       h34        35     0.13699        1.0080 ; qtot   -1.582
        36           h35bf         1   UNL       h35        36     0.13699        1.0080 ; qtot   -1.445
        37           h36bf         1   UNL       h36        37     0.41310        1.0080 ; qtot   -1.032
        38           h37bf         1   UNL       h37        38     0.06907        1.0080 ; qtot   -0.963
        39           h38bf         1   UNL       h38        39     0.06907        1.0080 ; qtot   -0.894
        40           h39bf         1   UNL       h39        40     0.05077        1.0080 ; qtot   -0.843
        41           h40bf         1   UNL       h40        41     0.13198        1.0080 ; qtot   -0.711
        42           h41bf         1   UNL       h41        42     0.13206        1.0080 ; qtot   -0.579
        43           h42bf         1   UNL       h42        43     0.06907        1.0080 ; qtot   -0.510
        44           h43bf         1   UNL       h43        44     0.06907        1.0080 ; qtot   -0.441
        45           h44bf         1   UNL       h44        45     0.44063        1.0080 ; qtot   -0.000

[ bonds ]
;       ai        aj funct               r               k
         1         2     1        0.139715   353447.332715    ;  uncertainty r = 0.000032, k = 4.028961
         1         3     1        0.140142   342641.483643    ;  uncertainty r = 0.000038, k = 3.314136
         1         7     1        0.147254   260186.447705    ;  uncertainty r = 0.000077, k = 7.595788
         2         4     1        0.139357   356876.251465    ;  uncertainty r = 0.000101, k = 3.284875
         2        27     1        0.108733   337068.877783    ;  uncertainty r = 0.000028, k = 1.548310
         3         5     1        0.139077   370080.596924    ;  uncertainty r = 0.000045, k = 2.436979
         3        28     1        0.108645   333274.548535    ;  uncertainty r = 0.000014, k = 1.402994
         4         6     1        0.140268   350280.960986    ;  uncertainty r = 0.000023, k = 2.805909
         4        26     1        0.137484   314649.313184    ;  uncertainty r = 0.000049, k = 3.310624
         5         6     1        0.139758   358499.747656    ;  uncertainty r = 0.000038, k = 3.716252
         5        29     1        0.108796   336858.528613    ;  uncertainty r = 0.000020, k = 1.717704
         6        25     1        0.137443   315368.974463    ;  uncertainty r = 0.000047, k = 4.887640
         7         8     1        0.140354   428123.228857    ;  uncertainty r = 0.000067, k = 8.174285
         7        23     1        0.135623   396775.048096    ;  uncertainty r = 0.000057, k = 8.494244
         8        16     1        0.142210   437033.560449    ;  uncertainty r = 0.000078, k = 7.352134
         8        30     1        0.108984   347701.100049    ;  uncertainty r = 0.000060, k = 3.482747
         9        10     1        0.153528   198932.485962    ;  uncertainty r = 0.000113, k = 4.485541
         9        24     1        0.144360   258703.533301    ;  uncertainty r = 0.000127, k = 5.188267
         9        31     1        0.109548   306948.010498    ;  uncertainty r = 0.000056, k = 1.476386
         9        32     1        0.109548   306948.010498    ;  uncertainty r = 0.000056, k = 1.476386
        10        14     1        0.143014   262792.254346    ;  uncertainty r = 0.000086, k = 14.622904
        10        20     1        0.151556   222180.461621    ;  uncertainty r = 0.000089, k = 7.017739
        10        33     1        0.109828   303256.263818    ;  uncertainty r = 0.000046, k = 1.650587
        11        12     1        0.139619   365954.387402    ;  uncertainty r = 0.000008, k = 1.292992
        11        18     1        0.139616   371124.732715    ;  uncertainty r = 0.000020, k = 1.036768
        11        34     1        0.108853   334096.639160    ;  uncertainty r = 0.000011, k = 0.985251
        12        20     1        0.139806   351916.766064    ;  uncertainty r = 0.000010, k = 1.187834
        12        35     1        0.108853   333813.534766    ;  uncertainty r = 0.000015, k = 0.555194
        13        19     1        0.139619   365954.387402    ;  uncertainty r = 0.000008, k = 1.292992
        13        20     1        0.139806   351916.766064    ;  uncertainty r = 0.000010, k = 1.187834
        13        36     1        0.108853   333813.534766    ;  uncertainty r = 0.000015, k = 0.555194
        14        37     1        0.097118   460583.525195    ;  uncertainty r = 0.000045, k = 3.102113
        15        21     1        0.151713   212288.662305    ;  uncertainty r = 0.000039, k = 2.607937
        15        26     1        0.142803   266501.749316    ;  uncertainty r = 0.000025, k = 5.618306
        15        38     1        0.109608   310862.619531    ;  uncertainty r = 0.000022, k = 1.508456
        15        39     1        0.109608   310862.619531    ;  uncertainty r = 0.000022, k = 1.508456
        16        22     1        0.135563   598530.699805    ;  uncertainty r = 0.000139, k = 9.101913
        16        24     1        0.139244   503022.932227    ;  uncertainty r = 0.000156, k = 11.982701
        17        22     1        0.134248   427021.200439    ;  uncertainty r = 0.000126, k = 12.560964
        17        23     1        0.133914   410341.228857    ;  uncertainty r = 0.000048, k = 12.504213
        17        40     1        0.108823   332455.624512    ;  uncertainty r = 0.000016, k = 3.398046
        18        19     1        0.139616   371124.758252    ;  uncertainty r = 0.000020, k = 1.036768
        18        41     1        0.108851   334582.457129    ;  uncertainty r = 0.000012, k = 0.680670
        19        42     1        0.108853   334096.639160    ;  uncertainty r = 0.000011, k = 0.985251
        21        25     1        0.142779   266479.072363    ;  uncertainty r = 0.000025, k = 5.740062
        21        43     1        0.109608   310862.619531    ;  uncertainty r = 0.000022, k = 1.508456
        21        44     1        0.109608   310862.619531    ;  uncertainty r = 0.000022, k = 1.508456
        24        45     1        0.101725   420522.644531    ;  uncertainty r = 0.000069, k = 3.098785

[ angles ]
;       ai        aj        ak funct           theta             cth
         1         2         4     1      121.873459      497.034442    ;  uncertainty theta = 0.002301, k = 0.115228
         1         2        27     1      119.242996      264.963566    ;  uncertainty theta = 0.002542, k = 0.104934
         1         3         5     1      121.454872      530.044859    ;  uncertainty theta = 0.002558, k = 0.133952
         1         3        28     1      118.107742      268.949781    ;  uncertainty theta = 0.003700, k = 0.119189
         1         7         8     1      121.307373      397.539693    ;  uncertainty theta = 0.007093, k = 0.217642
         1         7        23     1      118.150406      476.672204    ;  uncertainty theta = 0.004303, k = 0.163380
         2         1         3     1      121.857407      430.299878    ;  uncertainty theta = 0.004066, k = 0.133634
         2         1         7     1      117.671707      385.373016    ;  uncertainty theta = 0.002937, k = 0.138917
         2         4         6     1      121.239624      344.536305    ;  uncertainty theta = 0.003585, k = 0.122158
         2         4        26     1      119.438858      529.227575    ;  uncertainty theta = 0.001853, k = 0.078435
         3         1         7     1      118.121254      408.572905    ;  uncertainty theta = 0.003219, k = 0.157985
         3         5         6     1      120.992676      506.872134    ;  uncertainty theta = 0.001980, k = 0.080112
         3         5        29     1      121.179794      277.772310    ;  uncertainty theta = 0.000533, k = 0.041382
         4         2        27     1      119.936539      289.007042    ;  uncertainty theta = 0.004071, k = 0.143797
         4         6         5     1      119.794449      342.156949    ;  uncertainty theta = 0.002731, k = 0.110330
         4         6        25     1      122.222656      489.193368    ;  uncertainty theta = 0.003037, k = 0.059604
         4        26        15     1      112.158997      494.583486    ;  uncertainty theta = 0.002121, k = 0.123007
         5         3        28     1      119.822403      292.201543    ;  uncertainty theta = 0.001359, k = 0.107986
         5         6        25     1      120.010422      542.084903    ;  uncertainty theta = 0.001953, k = 0.069145
         6         4        26     1      122.115196      479.065702    ;  uncertainty theta = 0.002397, k = 0.226789
         6         5        29     1      120.045631      281.126099    ;  uncertainty theta = 0.001822, k = 0.125718
         6        25        21     1      112.219482      485.394468    ;  uncertainty theta = 0.001872, k = 0.083237
         7         8        16     1      117.434204      475.257959    ;  uncertainty theta = 0.006223, k = 0.284174
         7         8        30     1      122.102982      274.426438    ;  uncertainty theta = 0.001797, k = 0.177964
         7        23        17     1      114.160744      411.547308    ;  uncertainty theta = 0.005802, k = 0.209510
         8         7        23     1      121.768982      596.125002    ;  uncertainty theta = 0.004385, k = 0.126065
         8        16        22     1      120.474098      559.443370    ;  uncertainty theta = 0.004253, k = 0.132832
         8        16        24     1      124.413963      635.393032    ;  uncertainty theta = 0.005386, k = 0.115952
         9        10        14     1      108.648598      745.773101    ;  uncertainty theta = 0.001850, k = 0.090465
         9        10        20     1      111.675133      529.233800    ;  uncertainty theta = 0.002433, k = 0.102801
         9        10        33     1      107.655739      397.413157    ;  uncertainty theta = 0.001835, k = 0.063660
         9        24        16     1      115.022720      415.197008    ;  uncertainty theta = 0.003932, k = 0.139541
         9        24        45     1      111.930687      338.512452    ;  uncertainty theta = 0.006639, k = 0.093922
        10         9        24     1      109.072731      588.135334    ;  uncertainty theta = 0.003588, k = 0.076167
        10         9        31     1      108.264954      386.766225    ;  uncertainty theta = 0.001128, k = 0.087129
        10         9        32     1      108.264954      386.766225    ;  uncertainty theta = 0.001128, k = 0.087129
        10        14        37     1      107.778908      462.824962    ;  uncertainty theta = 0.002314, k = 0.060682
        10        20        12     1      119.990318      398.450314    ;  uncertainty theta = 0.001704, k = 0.122614
        10        20        13     1      119.990318      398.450314    ;  uncertainty theta = 0.001704, k = 0.122614
        11        12        20     1      120.930702      517.466172    ;  uncertainty theta = 0.001222, k = 0.047814
        11        12        35     1      120.258339      291.729553    ;  uncertainty theta = 0.002156, k = 0.015437
        11        18        19     1      118.312904      525.474865    ;  uncertainty theta = 0.001259, k = 0.033725
        11        18        41     1      120.606750      289.256635    ;  uncertainty theta = 0.001707, k = 0.007155
        12        11        18     1      119.668961      514.607037    ;  uncertainty theta = 0.000852, k = 0.027695
        12        11        34     1      120.182228      283.193264    ;  uncertainty theta = 0.001483, k = 0.023123
        12        20        13     1      120.620529      467.609435    ;  uncertainty theta = 0.001046, k = 0.044080
        13        19        18     1      119.668961      514.607037    ;  uncertainty theta = 0.000852, k = 0.027695
        13        19        42     1      120.182228      283.193264    ;  uncertainty theta = 0.001483, k = 0.023123
        14        10        20     1      111.132469      757.316130    ;  uncertainty theta = 0.001813, k = 0.056225
        14        10        33     1      107.460892      475.171803    ;  uncertainty theta = 0.003128, k = 0.059555
        15        21        25     1      110.054214      704.742308    ;  uncertainty theta = 0.001694, k = 0.053722
        15        21        43     1      109.816628      405.838487    ;  uncertainty theta = 0.001500, k = 0.079719
        15        21        44     1      109.816628      405.838487    ;  uncertainty theta = 0.001500, k = 0.079719
        16         8        30     1      122.815651      279.123095    ;  uncertainty theta = 0.002136, k = 0.084785
        16        22        17     1      114.208336      402.225401    ;  uncertainty theta = 0.007184, k = 0.116286
        16        24        45     1      114.952065      412.285969    ;  uncertainty theta = 0.001414, k = 0.081088
        18        11        34     1      120.593102      287.981121    ;  uncertainty theta = 0.001462, k = 0.008017
        18        19        42     1      120.593102      287.981121    ;  uncertainty theta = 0.001462, k = 0.008017
        19        13        20     1      120.930702      517.466172    ;  uncertainty theta = 0.001222, k = 0.047814
        19        13        36     1      120.258339      291.729553    ;  uncertainty theta = 0.002156, k = 0.015437
        19        18        41     1      120.606750      289.256635    ;  uncertainty theta = 0.001707, k = 0.007155
        20        10        33     1      107.338806      403.998379    ;  uncertainty theta = 0.003013, k = 0.110102
        20        12        35     1      118.778320      265.740150    ;  uncertainty theta = 0.001504, k = 0.035529
        20        13        36     1      118.778320      265.740150    ;  uncertainty theta = 0.001504, k = 0.035529
        21        15        26     1      110.061600      704.296814    ;  uncertainty theta = 0.001752, k = 0.052082
        21        15        38     1      109.816628      405.838487    ;  uncertainty theta = 0.001500, k = 0.079719
        21        15        39     1      109.816628      405.838487    ;  uncertainty theta = 0.001500, k = 0.079719
        22        16        24     1      122.203979      876.041727    ;  uncertainty theta = 0.006036, k = 0.092665
        22        17        23     1      127.381554      928.492204    ;  uncertainty theta = 0.002613, k = 0.114019
        22        17        40     1      115.958923      303.662438    ;  uncertainty theta = 0.004108, k = 0.062101
        23        17        40     1      116.293129      310.411321    ;  uncertainty theta = 0.004137, k = 0.066539
        24         9        31     1      106.848366      448.950650    ;  uncertainty theta = 0.001286, k = 0.079205
        24         9        32     1      106.848366      448.950650    ;  uncertainty theta = 0.001286, k = 0.079205
        25        21        43     1      107.358688      470.641839    ;  uncertainty theta = 0.001635, k = 0.061523
        25        21        44     1      107.358688      470.641839    ;  uncertainty theta = 0.001635, k = 0.061523
        26        15        38     1      107.343361      471.498545    ;  uncertainty theta = 0.001661, k = 0.063851
        26        15        39     1      107.343361      471.498545    ;  uncertainty theta = 0.001661, k = 0.063851
        31         9        32     1      106.681496      323.153860    ;  uncertainty theta = 0.001150, k = 0.024224
        38        15        39     1      108.206787      317.590154    ;  uncertainty theta = 0.001971, k = 0.060966
        43        21        44     1      108.206787      317.590154    ;  uncertainty theta = 0.001971, k = 0.060966

[ dihedrals ] ; propers for gromacs 4.5 or higher, use funct 9
;       ai        aj        ak        al funct           phase               k        pn
         1         2         4         6     9        0.000000        0.059763         1    ;  uncertainty k = 0.569082
         1         2         4         6     9      180.000000        8.410932         2    ;  uncertainty k = 0.674663
         1         2         4         6     9        0.000000        0.251128         3    ;  uncertainty k = 0.356714
         1         2         4         6     9      180.000000        1.213063         4    ;  uncertainty k = 0.362158
         1         2         4        26     9        0.000000        0.282331         1    ;  uncertainty k = 0.287637
         1         2         4        26     9      180.000000       11.274658         2    ;  uncertainty k = 0.268426
         1         2         4        26     9        0.000000        1.548502         3    ;  uncertainty k = 0.279340
         1         2         4        26     9      180.000000        1.664203         4    ;  uncertainty k = 0.157999
         1         3         5         6     9        0.000000       -0.013118         1    ;  uncertainty k = 0.248527
         1         3         5         6     9      180.000000       13.663265         2    ;  uncertainty k = 0.259007
         1         3         5         6     9        0.000000       -0.538111         3    ;  uncertainty k = 0.577499
         1         3         5         6     9      180.000000        0.978712         4    ;  uncertainty k = 0.246268
         1         3         5        29     9        0.000000        0.118497         1    ;  uncertainty k = 0.173658
         1         3         5        29     9      180.000000        8.012009         2    ;  uncertainty k = 0.426230
         1         3         5        29     9        0.000000        1.496577         3    ;  uncertainty k = 0.231067
         1         3         5        29     9      180.000000        1.899428         4    ;  uncertainty k = 0.200548
         1         7         8        16     9        0.000000       -0.248191         1    ;  uncertainty k = 0.602447
         1         7         8        16     9      180.000000        7.663568         2    ;  uncertainty k = 0.917876
         1         7         8        16     9        0.000000        0.663144         3    ;  uncertainty k = 0.289805
         1         7         8        16     9      180.000000        1.138328         4    ;  uncertainty k = 0.333954
         1         7         8        30     9        0.000000       -0.233361         1    ;  uncertainty k = 1.069586
         1         7         8        30     9      180.000000        6.881135         2    ;  uncertainty k = 0.506296
         1         7         8        30     9        0.000000        0.730027         3    ;  uncertainty k = 0.277317
         1         7         8        30     9      180.000000        0.943465         4    ;  uncertainty k = 0.212593
         1         7        23        17     9        0.000000        0.033651         1    ;  uncertainty k = 0.626885
         1         7        23        17     9      180.000000       14.488325         2    ;  uncertainty k = 0.350767
         1         7        23        17     9        0.000000        2.120919         3    ;  uncertainty k = 0.284574
         1         7        23        17     9      180.000000        1.541347         4    ;  uncertainty k = 0.453357
         2         1         3         5     9        0.000000       -0.057262         1    ;  uncertainty k = 0.175468
         2         1         3         5     9      180.000000       11.473666         2    ;  uncertainty k = 0.333565
         2         1         3         5     9        0.000000       -0.629595         3    ;  uncertainty k = 0.234151
         2         1         3         5     9      180.000000        0.921100         4    ;  uncertainty k = 0.241813
         2         1         3        28     9        0.000000        0.121427         1    ;  uncertainty k = 0.143948
         2         1         3        28     9      180.000000        6.875191         2    ;  uncertainty k = 0.478185
         2         1         3        28     9        0.000000        1.350105         3    ;  uncertainty k = 0.180905
         2         1         3        28     9      180.000000        1.627110         4    ;  uncertainty k = 0.240688
         2         1         7         8     9        0.000000       -0.150966         1    ;  uncertainty k = 0.522286
         2         1         7         8     9      180.000000        4.141556         2    ;  uncertainty k = 0.367874
         2         1         7         8     9        0.000000        0.499370         3    ;  uncertainty k = 0.206072
         2         1         7         8     9      180.000000       -0.071856         4    ;  uncertainty k = 0.040874
         2         1         7        23     9        0.000000        0.567975         1    ;  uncertainty k = 0.529384
         2         1         7        23     9      180.000000        5.509105         2    ;  uncertainty k = 0.211126
         2         1         7        23     9        0.000000        0.688042         3    ;  uncertainty k = 0.158502
         2         1         7        23     9      180.000000        0.098464         4    ;  uncertainty k = 0.056537
         2         4         6         5     9        0.000000       -0.042134         1    ;  uncertainty k = 0.687985
         2         4         6         5     9      180.000000        5.145246         2    ;  uncertainty k = 1.343969
         2         4         6         5     9        0.000000        0.245590         3    ;  uncertainty k = 0.304379
         2         4         6         5     9      180.000000        1.245724         4    ;  uncertainty k = 0.389001
         2         4         6        25     9        0.000000        0.387229         1    ;  uncertainty k = 0.311423
         2         4         6        25     9      180.000000        6.720830         2    ;  uncertainty k = 0.386487
         2         4         6        25     9        0.000000        1.373462         3    ;  uncertainty k = 0.384022
         2         4         6        25     9      180.000000        1.625221         4    ;  uncertainty k = 0.230559
         2         4        26        15     9        0.000000       -0.954868         1    ;  uncertainty k = 0.783969
         2         4        26        15     9      180.000000        2.746847         2    ;  uncertainty k = 0.108537
         2         4        26        15     9        0.000000        0.569033         3    ;  uncertainty k = 0.223977
         2         4        26        15     9      180.000000        0.130004         4    ;  uncertainty k = 0.196885
         3         1         2         4     9        0.000000        0.005696         1    ;  uncertainty k = 0.244523
         3         1         2         4     9      180.000000       11.496519         2    ;  uncertainty k = 0.468377
         3         1         2         4     9        0.000000       -0.286028         3    ;  uncertainty k = 0.360259
         3         1         2         4     9      180.000000        0.969365         4    ;  uncertainty k = 0.358772
         3         1         2        27     9        0.000000        0.239262         1    ;  uncertainty k = 0.162191
         3         1         2        27     9      180.000000        6.965430         2    ;  uncertainty k = 0.360641
         3         1         2        27     9        0.000000        1.410369         3    ;  uncertainty k = 0.238486
         3         1         2        27     9      180.000000        1.634498         4    ;  uncertainty k = 0.164912
         3         1         7         8     9        0.000000       -0.360137         1    ;  uncertainty k = 0.571193
         3         1         7         8     9      180.000000        4.069624         2    ;  uncertainty k = 0.247391
         3         1         7         8     9        0.000000        0.511325         3    ;  uncertainty k = 0.168000
         3         1         7         8     9      180.000000       -0.117883         4    ;  uncertainty k = 0.047203
         3         1         7        23     9        0.000000        1.216143         1    ;  uncertainty k = 0.598355
         3         1         7        23     9      180.000000        5.243336         2    ;  uncertainty k = 0.154348
         3         1         7        23     9        0.000000        0.641340         3    ;  uncertainty k = 0.197253
         3         1         7        23     9      180.000000        0.102175         4    ;  uncertainty k = 0.056556
         3         5         6         4     9        0.000000       -0.070421         1    ;  uncertainty k = 0.306692
         3         5         6         4     9      180.000000        8.280138         2    ;  uncertainty k = 0.747470
         3         5         6         4     9        0.000000        0.006404         3    ;  uncertainty k = 0.372838
         3         5         6         4     9      180.000000        1.209769         4    ;  uncertainty k = 0.329302
         3         5         6        25     9        0.000000        0.300195         1    ;  uncertainty k = 0.284708
         3         5         6        25     9      180.000000       10.621786         2    ;  uncertainty k = 0.271258
         3         5         6        25     9        0.000000        1.609167         3    ;  uncertainty k = 0.305394
         3         5         6        25     9      180.000000        1.672786         4    ;  uncertainty k = 0.125738
         4         2         1         7     9        0.000000        0.192693         1    ;  uncertainty k = 0.358246
         4         2         1         7     9      180.000000        9.159727         2    ;  uncertainty k = 0.313877
         4         2         1         7     9        0.000000        1.261089         3    ;  uncertainty k = 0.239150
         4         2         1         7     9      180.000000        1.686714         4    ;  uncertainty k = 0.113075
         4         6         5        29     9        0.000000        0.197406         1    ;  uncertainty k = 0.310088
         4         6         5        29     9      180.000000        5.855467         2    ;  uncertainty k = 0.529996
         4         6         5        29     9        0.000000        1.348701         3    ;  uncertainty k = 0.247549
         4         6         5        29     9      180.000000        1.395390         4    ;  uncertainty k = 0.083344
         4         6        25        21     9        0.000000        0.293273         1    ;  uncertainty k = 2.328581
         4         6        25        21     9      180.000000        1.345639         2    ;  uncertainty k = 0.376429
         4         6        25        21     9        0.000000       -0.572751         3    ;  uncertainty k = 0.284233
         4         6        25        21     9      180.000000        0.359858         4    ;  uncertainty k = 0.218259
         4        26        15        21     9        0.000000       -0.529448         1    ;  uncertainty k = 1.489441
         4        26        15        21     9      180.000000       -1.137332         2    ;  uncertainty k = 1.061758
         4        26        15        21     9        0.000000        0.181179         3    ;  uncertainty k = 0.121992
         4        26        15        21     9      180.000000        0.338795         4    ;  uncertainty k = 0.162662
         4        26        15        38     9        0.000000       -1.184073         1    ;  uncertainty k = 0.893109
         4        26        15        38     9      180.000000       -0.317179         2    ;  uncertainty k = 0.340919
         4        26        15        38     9        0.000000        0.862236         3    ;  uncertainty k = 0.220534
         4        26        15        38     9      180.000000        0.059585         4    ;  uncertainty k = 0.103113
         4        26        15        39     9        0.000000       -1.184073         1    ;  uncertainty k = 0.893109
         4        26        15        39     9      180.000000       -0.317179         2    ;  uncertainty k = 0.340919
         4        26        15        39     9        0.000000        0.862236         3    ;  uncertainty k = 0.220534
         4        26        15        39     9      180.000000        0.059585         4    ;  uncertainty k = 0.103113
         5         3         1         7     9        0.000000        0.271509         1    ;  uncertainty k = 0.435727
         5         3         1         7     9      180.000000        8.656997         2    ;  uncertainty k = 0.432022
         5         3         1         7     9        0.000000        1.148442         3    ;  uncertainty k = 0.202707
         5         3         1         7     9      180.000000        1.782784         4    ;  uncertainty k = 0.163181
         5         6         4        26     9        0.000000        0.265731         1    ;  uncertainty k = 0.327327
         5         6         4        26     9      180.000000        6.697411         2    ;  uncertainty k = 0.581525
         5         6         4        26     9        0.000000        1.198430         3    ;  uncertainty k = 0.314484
         5         6         4        26     9      180.000000        1.598612         4    ;  uncertainty k = 0.222289
         5         6        25        21     9        0.000000       -0.479332         1    ;  uncertainty k = 0.552998
         5         6        25        21     9      180.000000        3.201289         2    ;  uncertainty k = 0.178226
         5         6        25        21     9        0.000000        0.609369         3    ;  uncertainty k = 0.205934
         5         6        25        21     9      180.000000        0.126017         4    ;  uncertainty k = 0.140179
         6         4         2        27     9        0.000000        0.152344         1    ;  uncertainty k = 0.386789
         6         4         2        27     9      180.000000        5.859705         2    ;  uncertainty k = 0.535926
         6         4         2        27     9        0.000000        1.339240         3    ;  uncertainty k = 0.367157
         6         4         2        27     9      180.000000        1.546842         4    ;  uncertainty k = 0.125013
         6         4        26        15     9        0.000000        0.213770         1    ;  uncertainty k = 1.815233
         6         4        26        15     9      180.000000        0.995885         2    ;  uncertainty k = 0.536288
         6         4        26        15     9        0.000000       -0.671273         3    ;  uncertainty k = 0.377303
         6         4        26        15     9      180.000000        0.405497         4    ;  uncertainty k = 0.213126
         6         5         3        28     9        0.000000        0.170848         1    ;  uncertainty k = 0.241523
         6         5         3        28     9      180.000000        8.799631         2    ;  uncertainty k = 0.360958
         6         5         3        28     9        0.000000        1.244040         3    ;  uncertainty k = 0.321003
         6         5         3        28     9      180.000000        1.762144         4    ;  uncertainty k = 0.160209
         6        25        21        15     9        0.000000       -0.476129         1    ;  uncertainty k = 1.611189
         6        25        21        15     9      180.000000       -1.097985         2    ;  uncertainty k = 1.075012
         6        25        21        15     9        0.000000        0.128627         3    ;  uncertainty k = 0.157832
         6        25        21        15     9      180.000000        0.290201         4    ;  uncertainty k = 0.118477
         6        25        21        43     9        0.000000       -1.146492         1    ;  uncertainty k = 0.905652
         6        25        21        43     9      180.000000       -0.386530         2    ;  uncertainty k = 0.426377
         6        25        21        43     9        0.000000        0.876200         3    ;  uncertainty k = 0.219220
         6        25        21        43     9      180.000000        0.066730         4    ;  uncertainty k = 0.091735
         6        25        21        44     9        0.000000       -1.146492         1    ;  uncertainty k = 0.905652
         6        25        21        44     9      180.000000       -0.386530         2    ;  uncertainty k = 0.426377
         6        25        21        44     9        0.000000        0.876200         3    ;  uncertainty k = 0.219220
         6        25        21        44     9      180.000000        0.066730         4    ;  uncertainty k = 0.091735
         7         1         2        27     9        0.000000       -0.387662         1    ;  uncertainty k = 0.387575
         7         1         2        27     9      180.000000        7.298440         2    ;  uncertainty k = 0.174789
         7         1         2        27     9        0.000000        0.714474         3    ;  uncertainty k = 0.170593
         7         1         2        27     9      180.000000        1.085657         4    ;  uncertainty k = 0.153373
         7         1         3        28     9        0.000000       -0.294615         1    ;  uncertainty k = 0.312805
         7         1         3        28     9      180.000000        7.232669         2    ;  uncertainty k = 0.272082
         7         1         3        28     9        0.000000        0.687042         3    ;  uncertainty k = 0.132484
         7         1         3        28     9      180.000000        1.118845         4    ;  uncertainty k = 0.061495
         7         8        16        22     9        0.000000       -0.488257         1    ;  uncertainty k = 0.433150
         7         8        16        22     9      180.000000        7.842816         2    ;  uncertainty k = 0.807300
         7         8        16        22     9        0.000000       -0.883250         3    ;  uncertainty k = 0.519223
         7         8        16        22     9      180.000000        1.181538         4    ;  uncertainty k = 0.324430
         7         8        16        24     9        0.000000       -0.973023         1    ;  uncertainty k = 0.756020
         7         8        16        24     9      180.000000        6.425851         2    ;  uncertainty k = 0.466542
         7         8        16        24     9        0.000000        0.063643         3    ;  uncertainty k = 0.342305
         7         8        16        24     9      180.000000        0.910220         4    ;  uncertainty k = 0.179854
         7        23        17        22     9        0.000000       -0.840768         1    ;  uncertainty k = 0.654762
         7        23        17        22     9      180.000000       16.542921         2    ;  uncertainty k = 0.364182
         7        23        17        22     9        0.000000        0.083296         3    ;  uncertainty k = 0.595340
         7        23        17        22     9      180.000000        1.175477         4    ;  uncertainty k = 0.282832
         7        23        17        40     9        0.000000       -0.460253         1    ;  uncertainty k = 0.441448
         7        23        17        40     9      180.000000       12.413497         2    ;  uncertainty k = 0.418494
         7        23        17        40     9        0.000000        1.720278         3    ;  uncertainty k = 0.661470
         7        23        17        40     9      180.000000        1.280255         4    ;  uncertainty k = 0.425780
         8         7        23        17     9        0.000000       -0.257625         1    ;  uncertainty k = 0.858612
         8         7        23        17     9      180.000000       13.262237         2    ;  uncertainty k = 0.508426
         8         7        23        17     9        0.000000        0.298012         3    ;  uncertainty k = 0.974487
         8         7        23        17     9      180.000000        1.130475         4    ;  uncertainty k = 0.386267
         8        16        22        17     9        0.000000       -0.352327         1    ;  uncertainty k = 0.819838
         8        16        22        17     9      180.000000        9.938175         2    ;  uncertainty k = 0.556105
         8        16        22        17     9        0.000000        0.518279         3    ;  uncertainty k = 0.791138
         8        16        22        17     9      180.000000        1.057599         4    ;  uncertainty k = 0.141747
         8        16        24         9     9        0.000000        5.619040         1    ;  uncertainty k = 0.483296
         8        16        24         9     9      180.000000        9.185288         2    ;  uncertainty k = 0.234675
         8        16        24         9     9        0.000000        0.682080         3    ;  uncertainty k = 0.247697
         8        16        24         9     9      180.000000       -0.441249         4    ;  uncertainty k = 0.170090
         8        16        24        45     9        0.000000        4.296012         1    ;  uncertainty k = 0.414850
         8        16        24        45     9      180.000000        7.972454         2    ;  uncertainty k = 0.156917
         8        16        24        45     9        0.000000        1.247555         3    ;  uncertainty k = 0.216819
         8        16        24        45     9      180.000000       -0.416406         4    ;  uncertainty k = 0.197283
         9        10        14        37     9        0.000000       16.539194         1    ;  uncertainty k = 0.182172
         9        10        14        37     9      180.000000       -3.181446         2    ;  uncertainty k = 0.394315
         9        10        14        37     9        0.000000        1.050863         3    ;  uncertainty k = 0.081907
         9        10        14        37     9      180.000000        0.368805         4    ;  uncertainty k = 0.156069
         9        10        20        12     9        0.000000       -0.273818         1    ;  uncertainty k = 0.106175
         9        10        20        12     9      180.000000        2.079481         2    ;  uncertainty k = 0.182501
         9        10        20        12     9        0.000000        0.512262         3    ;  uncertainty k = 0.147544
         9        10        20        12     9      180.000000        0.343982         4    ;  uncertainty k = 0.021980
         9        10        20        13     9        0.000000       -0.273818         1    ;  uncertainty k = 0.106175
         9        10        20        13     9      180.000000        2.079481         2    ;  uncertainty k = 0.182501
         9        10        20        13     9        0.000000        0.512262         3    ;  uncertainty k = 0.147544
         9        10        20        13     9      180.000000        0.343982         4    ;  uncertainty k = 0.021980
         9        24        16        22     9        0.000000        8.533711         1    ;  uncertainty k = 0.435190
         9        24        16        22     9      180.000000       12.802851         2    ;  uncertainty k = 0.140763
         9        24        16        22     9        0.000000        1.500694         3    ;  uncertainty k = 0.229157
         9        24        16        22     9      180.000000       -0.498831         4    ;  uncertainty k = 0.087310
        10         9        24        16     9        0.000000       -0.181203         1    ;  uncertainty k = 0.437855
        10         9        24        16     9      180.000000       -0.656643         2    ;  uncertainty k = 0.612261
        10         9        24        16     9        0.000000        0.233868         3    ;  uncertainty k = 0.313268
        10         9        24        16     9      180.000000        0.414120         4    ;  uncertainty k = 0.035681
        10         9        24        45     9        0.000000        3.680901         1    ;  uncertainty k = 0.713382
        10         9        24        45     9      180.000000       -3.627771         2    ;  uncertainty k = 0.381036
        10         9        24        45     9        0.000000        0.657609         3    ;  uncertainty k = 0.120801
        10         9        24        45     9      180.000000       -0.046604         4    ;  uncertainty k = 0.144754
        10        20        12        11     9        0.000000        0.277494         1    ;  uncertainty k = 0.259279
        10        20        12        11     9      180.000000        9.380655         2    ;  uncertainty k = 0.580889
        10        20        12        11     9        0.000000        1.260903         3    ;  uncertainty k = 0.297020
        10        20        12        11     9      180.000000        1.849205         4    ;  uncertainty k = 0.223533
        10        20        12        35     9        0.000000       -0.044601         1    ;  uncertainty k = 0.495487
        10        20        12        35     9      180.000000        7.557641         2    ;  uncertainty k = 0.152609
        10        20        12        35     9        0.000000        0.648505         3    ;  uncertainty k = 0.330112
        10        20        12        35     9      180.000000        0.986671         4    ;  uncertainty k = 0.169058
        10        20        13        19     9        0.000000        0.277494         1    ;  uncertainty k = 0.259279
        10        20        13        19     9      180.000000        9.380655         2    ;  uncertainty k = 0.580889
        10        20        13        19     9        0.000000        1.260903         3    ;  uncertainty k = 0.297020
        10        20        13        19     9      180.000000        1.849205         4    ;  uncertainty k = 0.223533
        10        20        13        36     9        0.000000       -0.044601         1    ;  uncertainty k = 0.495487
        10        20        13        36     9      180.000000        7.557641         2    ;  uncertainty k = 0.152609
        10        20        13        36     9        0.000000        0.648505         3    ;  uncertainty k = 0.330112
        10        20        13        36     9      180.000000        0.986671         4    ;  uncertainty k = 0.169058
        11        12        20        13     9        0.000000       -0.165953         1    ;  uncertainty k = 0.169992
        11        12        20        13     9      180.000000       11.757607         2    ;  uncertainty k = 0.401729
        11        12        20        13     9        0.000000       -0.505821         3    ;  uncertainty k = 0.348703
        11        12        20        13     9      180.000000        0.798513         4    ;  uncertainty k = 0.397673
        11        18        19        13     9        0.000000       -0.003189         1    ;  uncertainty k = 0.038440
        11        18        19        13     9      180.000000       15.016788         2    ;  uncertainty k = 0.249663
        11        18        19        13     9        0.000000       -1.210513         3    ;  uncertainty k = 0.492875
        11        18        19        13     9      180.000000        0.498916         4    ;  uncertainty k = 0.293179
        11        18        19        42     9        0.000000        0.038009         1    ;  uncertainty k = 0.035822
        11        18        19        42     9      180.000000        7.549305         2    ;  uncertainty k = 0.334350
        11        18        19        42     9        0.000000        1.438249         3    ;  uncertainty k = 0.318741
        11        18        19        42     9      180.000000        1.792783         4    ;  uncertainty k = 0.163179
        12        11        18        19     9        0.000000       -0.003189         1    ;  uncertainty k = 0.038440
        12        11        18        19     9      180.000000       15.016788         2    ;  uncertainty k = 0.249663
        12        11        18        19     9        0.000000       -1.210513         3    ;  uncertainty k = 0.492875
        12        11        18        19     9      180.000000        0.498916         4    ;  uncertainty k = 0.293179
        12        11        18        41     9        0.000000        0.056378         1    ;  uncertainty k = 0.091793
        12        11        18        41     9      180.000000        7.450064         2    ;  uncertainty k = 0.356222
        12        11        18        41     9        0.000000        1.472207         3    ;  uncertainty k = 0.287391
        12        11        18        41     9      180.000000        1.800180         4    ;  uncertainty k = 0.190036
        12        20        10        14     9        0.000000       -1.453975         1    ;  uncertainty k = 0.447986
        12        20        10        14     9      180.000000        3.360421         2    ;  uncertainty k = 0.198780
        12        20        10        14     9        0.000000        0.848407         3    ;  uncertainty k = 0.189850
        12        20        10        14     9      180.000000        0.435805         4    ;  uncertainty k = 0.036604
        12        20        10        33     9        0.000000       -0.600193         1    ;  uncertainty k = 0.218608
        12        20        10        33     9      180.000000        1.966965         2    ;  uncertainty k = 0.154440
        12        20        10        33     9        0.000000        0.553661         3    ;  uncertainty k = 0.127024
        12        20        10        33     9      180.000000        0.313797         4    ;  uncertainty k = 0.019730
        12        20        13        19     9        0.000000       -0.165953         1    ;  uncertainty k = 0.169992
        12        20        13        19     9      180.000000       11.757607         2    ;  uncertainty k = 0.401729
        12        20        13        19     9        0.000000       -0.505821         3    ;  uncertainty k = 0.348703
        12        20        13        19     9      180.000000        0.798513         4    ;  uncertainty k = 0.397673
        12        20        13        36     9        0.000000        0.131870         1    ;  uncertainty k = 0.167883
        12        20        13        36     9      180.000000        7.224544         2    ;  uncertainty k = 0.567570
        12        20        13        36     9        0.000000        1.415746         3    ;  uncertainty k = 0.327246
        12        20        13        36     9      180.000000        1.668075         4    ;  uncertainty k = 0.170613
        13        19        18        41     9        0.000000        0.056378         1    ;  uncertainty k = 0.091793
        13        19        18        41     9      180.000000        7.450064         2    ;  uncertainty k = 0.356222
        13        19        18        41     9        0.000000        1.472207         3    ;  uncertainty k = 0.287391
        13        19        18        41     9      180.000000        1.800180         4    ;  uncertainty k = 0.190036
        13        20        10        14     9        0.000000       -1.453975         1    ;  uncertainty k = 0.447986
        13        20        10        14     9      180.000000        3.360421         2    ;  uncertainty k = 0.198780
        13        20        10        14     9        0.000000        0.848407         3    ;  uncertainty k = 0.189850
        13        20        10        14     9      180.000000        0.435805         4    ;  uncertainty k = 0.036604
        13        20        10        33     9        0.000000       -0.600193         1    ;  uncertainty k = 0.218608
        13        20        10        33     9      180.000000        1.966965         2    ;  uncertainty k = 0.154440
        13        20        10        33     9        0.000000        0.553661         3    ;  uncertainty k = 0.127024
        13        20        10        33     9      180.000000        0.313797         4    ;  uncertainty k = 0.019730
        13        20        12        35     9        0.000000        0.131870         1    ;  uncertainty k = 0.167883
        13        20        12        35     9      180.000000        7.224544         2    ;  uncertainty k = 0.567570
        13        20        12        35     9        0.000000        1.415746         3    ;  uncertainty k = 0.327246
        13        20        12        35     9      180.000000        1.668075         4    ;  uncertainty k = 0.170613
        14        10         9        24     9        0.000000       -0.052607         1    ;  uncertainty k = 0.764083
        14        10         9        24     9      180.000000       -0.749437         2    ;  uncertainty k = 0.395318
        14        10         9        24     9        0.000000        1.713416         3    ;  uncertainty k = 0.321039
        14        10         9        24     9      180.000000       -0.561414         4    ;  uncertainty k = 0.195159
        14        10         9        31     9        0.000000       -1.242394         1    ;  uncertainty k = 0.559340
        14        10         9        31     9      180.000000       -0.234284         2    ;  uncertainty k = 0.168601
        14        10         9        31     9        0.000000        1.039378         3    ;  uncertainty k = 0.150261
        14        10         9        31     9      180.000000       -0.102798         4    ;  uncertainty k = 0.150575
        14        10         9        32     9        0.000000       -1.242394         1    ;  uncertainty k = 0.559340
        14        10         9        32     9      180.000000       -0.234284         2    ;  uncertainty k = 0.168601
        14        10         9        32     9        0.000000        1.039378         3    ;  uncertainty k = 0.150261
        14        10         9        32     9      180.000000       -0.102798         4    ;  uncertainty k = 0.150575
        16         8         7        23     9        0.000000       -0.240621         1    ;  uncertainty k = 0.474492
        16         8         7        23     9      180.000000       12.473245         2    ;  uncertainty k = 0.519931
        16         8         7        23     9        0.000000       -1.077291         3    ;  uncertainty k = 0.687153
        16         8         7        23     9      180.000000        1.041774         4    ;  uncertainty k = 0.336713
        16        22        17        23     9        0.000000       -0.738547         1    ;  uncertainty k = 1.142784
        16        22        17        23     9      180.000000       15.856722         2    ;  uncertainty k = 0.398877
        16        22        17        23     9        0.000000       -0.255414         3    ;  uncertainty k = 0.309498
        16        22        17        23     9      180.000000        0.988445         4    ;  uncertainty k = 0.177251
        16        22        17        40     9        0.000000       -0.392488         1    ;  uncertainty k = 0.864220
        16        22        17        40     9      180.000000       12.489467         2    ;  uncertainty k = 0.378782
        16        22        17        40     9        0.000000        1.355690         3    ;  uncertainty k = 0.760379
        16        22        17        40     9      180.000000        0.853020         4    ;  uncertainty k = 0.299132
        16        24         9        31     9        0.000000       -1.147632         1    ;  uncertainty k = 0.263721
        16        24         9        31     9      180.000000       -0.482322         2    ;  uncertainty k = 0.302946
        16        24         9        31     9        0.000000        0.226739         3    ;  uncertainty k = 0.211259
        16        24         9        31     9      180.000000        0.248702         4    ;  uncertainty k = 0.013743
        16        24         9        32     9        0.000000       -1.147632         1    ;  uncertainty k = 0.263721
        16        24         9        32     9      180.000000       -0.482322         2    ;  uncertainty k = 0.302946
        16        24         9        32     9        0.000000        0.226739         3    ;  uncertainty k = 0.211259
        16        24         9        32     9      180.000000        0.248702         4    ;  uncertainty k = 0.013743
        17        22        16        24     9        0.000000       -0.152560         1    ;  uncertainty k = 1.153662
        17        22        16        24     9      180.000000       12.736509         2    ;  uncertainty k = 0.218695
        17        22        16        24     9        0.000000        2.232715         3    ;  uncertainty k = 0.423520
        17        22        16        24     9      180.000000        1.585263         4    ;  uncertainty k = 0.416482
        18        11        12        20     9        0.000000       -0.091981         1    ;  uncertainty k = 0.109878
        18        11        12        20     9      180.000000       13.825977         2    ;  uncertainty k = 0.203920
        18        11        12        20     9        0.000000       -0.976820         3    ;  uncertainty k = 0.497977
        18        11        12        20     9      180.000000        0.702825         4    ;  uncertainty k = 0.246026
        18        11        12        35     9        0.000000        0.043151         1    ;  uncertainty k = 0.053762
        18        11        12        35     9      180.000000        7.853416         2    ;  uncertainty k = 0.298299
        18        11        12        35     9        0.000000        1.416969         3    ;  uncertainty k = 0.297576
        18        11        12        35     9      180.000000        1.844954         4    ;  uncertainty k = 0.168713
        18        19        13        20     9        0.000000       -0.091981         1    ;  uncertainty k = 0.109878
        18        19        13        20     9      180.000000       13.825977         2    ;  uncertainty k = 0.203920
        18        19        13        20     9        0.000000       -0.976820         3    ;  uncertainty k = 0.497977
        18        19        13        20     9      180.000000        0.702825         4    ;  uncertainty k = 0.246026
        18        19        13        36     9        0.000000        0.043151         1    ;  uncertainty k = 0.053762
        18        19        13        36     9      180.000000        7.853416         2    ;  uncertainty k = 0.298299
        18        19        13        36     9        0.000000        1.416969         3    ;  uncertainty k = 0.297576
        18        19        13        36     9      180.000000        1.844954         4    ;  uncertainty k = 0.168713
        19        18        11        34     9        0.000000        0.038009         1    ;  uncertainty k = 0.035822
        19        18        11        34     9      180.000000        7.549305         2    ;  uncertainty k = 0.334350
        19        18        11        34     9        0.000000        1.438249         3    ;  uncertainty k = 0.318741
        19        18        11        34     9      180.000000        1.792783         4    ;  uncertainty k = 0.163179
        20        10         9        24     9        0.000000       -2.195261         1    ;  uncertainty k = 0.395882
        20        10         9        24     9      180.000000       -0.031057         2    ;  uncertainty k = 0.681736
        20        10         9        24     9        0.000000        2.005161         3    ;  uncertainty k = 0.343930
        20        10         9        24     9      180.000000        0.115840         4    ;  uncertainty k = 0.059502
        20        10         9        31     9        0.000000       -0.032425         1    ;  uncertainty k = 0.325911
        20        10         9        31     9      180.000000        0.090710         2    ;  uncertainty k = 0.447956
        20        10         9        31     9        0.000000        0.614218         3    ;  uncertainty k = 0.070661
        20        10         9        31     9      180.000000       -0.058272         4    ;  uncertainty k = 0.097588
        20        10         9        32     9        0.000000       -0.032425         1    ;  uncertainty k = 0.325911
        20        10         9        32     9      180.000000        0.090710         2    ;  uncertainty k = 0.447956
        20        10         9        32     9        0.000000        0.614218         3    ;  uncertainty k = 0.070661
        20        10         9        32     9      180.000000       -0.058272         4    ;  uncertainty k = 0.097588
        20        10        14        37     9        0.000000       15.207439         1    ;  uncertainty k = 0.126759
        20        10        14        37     9      180.000000       -2.891249         2    ;  uncertainty k = 0.433974
        20        10        14        37     9        0.000000        1.036217         3    ;  uncertainty k = 0.050697
        20        10        14        37     9      180.000000        0.184126         4    ;  uncertainty k = 0.080140
        20        12        11        34     9        0.000000        0.047860         1    ;  uncertainty k = 0.232277
        20        12        11        34     9      180.000000        7.569870         2    ;  uncertainty k = 0.397811
        20        12        11        34     9        0.000000        1.467091         3    ;  uncertainty k = 0.255631
        20        12        11        34     9      180.000000        1.771465         4    ;  uncertainty k = 0.128664
        20        13        19        42     9        0.000000        0.047860         1    ;  uncertainty k = 0.232277
        20        13        19        42     9      180.000000        7.569870         2    ;  uncertainty k = 0.397811
        20        13        19        42     9        0.000000        1.467091         3    ;  uncertainty k = 0.255631
        20        13        19        42     9      180.000000        1.771465         4    ;  uncertainty k = 0.128664
        22        16         8        30     9        0.000000        0.247291         1    ;  uncertainty k = 0.448613
        22        16         8        30     9      180.000000        6.845556         2    ;  uncertainty k = 0.445467
        22        16         8        30     9        0.000000        1.345287         3    ;  uncertainty k = 0.377318
        22        16         8        30     9      180.000000        1.373473         4    ;  uncertainty k = 0.172809
        22        16        24        45     9        0.000000       12.912348         1    ;  uncertainty k = 0.293676
        22        16        24        45     9      180.000000        9.801748         2    ;  uncertainty k = 0.250858
        22        16        24        45     9        0.000000        0.647644         3    ;  uncertainty k = 0.160502
        22        16        24        45     9      180.000000       -0.317777         4    ;  uncertainty k = 0.163284
        23         7         8        30     9        0.000000        0.166874         1    ;  uncertainty k = 0.611201
        23         7         8        30     9      180.000000        9.180993         2    ;  uncertainty k = 0.460563
        23         7         8        30     9        0.000000        1.403777         3    ;  uncertainty k = 0.263338
        23         7         8        30     9      180.000000        1.563830         4    ;  uncertainty k = 0.167096
        24         9        10        33     9        0.000000       -0.572508         1    ;  uncertainty k = 0.377115
        24         9        10        33     9      180.000000       -0.600289         2    ;  uncertainty k = 0.341220
        24         9        10        33     9        0.000000        1.087420         3    ;  uncertainty k = 0.209284
        24         9        10        33     9      180.000000       -0.040588         4    ;  uncertainty k = 0.052009
        24        16         8        30     9        0.000000       -0.298963         1    ;  uncertainty k = 0.354383
        24        16         8        30     9      180.000000        5.480356         2    ;  uncertainty k = 0.647614
        24        16         8        30     9        0.000000        0.988613         3    ;  uncertainty k = 0.397419
        24        16         8        30     9      180.000000        0.695971         4    ;  uncertainty k = 0.196082
        25         6         4        26     9        0.000000       -0.972580         1    ;  uncertainty k = 3.106114
        25         6         4        26     9      180.000000        7.492838         2    ;  uncertainty k = 0.554036
        25         6         4        26     9        0.000000        1.570682         3    ;  uncertainty k = 0.310333
        25         6         4        26     9      180.000000        1.054634         4    ;  uncertainty k = 0.253516
        25         6         5        29     9        0.000000       -0.190102         1    ;  uncertainty k = 0.715919
        25         6         5        29     9      180.000000        8.475693         2    ;  uncertainty k = 0.237526
        25         6         5        29     9        0.000000        0.833168         3    ;  uncertainty k = 0.427514
        25         6         5        29     9      180.000000        1.113015         4    ;  uncertainty k = 0.232468
        25        21        15        26     9        0.000000        4.718426         1    ;  uncertainty k = 3.093777
        25        21        15        26     9      180.000000      -11.532178         2    ;  uncertainty k = 1.230106
        25        21        15        26     9        0.000000        2.702290         3    ;  uncertainty k = 0.544756
        25        21        15        26     9      180.000000        0.252674         4    ;  uncertainty k = 0.616350
        25        21        15        38     9        0.000000        1.987075         1    ;  uncertainty k = 0.140790
        25        21        15        38     9      180.000000       -2.541161         2    ;  uncertainty k = 0.495249
        25        21        15        38     9        0.000000        0.849122         3    ;  uncertainty k = 0.232814
        25        21        15        38     9      180.000000        0.501817         4    ;  uncertainty k = 0.286291
        25        21        15        39     9        0.000000        1.987075         1    ;  uncertainty k = 0.140790
        25        21        15        39     9      180.000000       -2.541161         2    ;  uncertainty k = 0.495249
        25        21        15        39     9        0.000000        0.849122         3    ;  uncertainty k = 0.232814
        25        21        15        39     9      180.000000        0.501817         4    ;  uncertainty k = 0.286291
        26         4         2        27     9        0.000000       -0.317590         1    ;  uncertainty k = 0.799340
        26         4         2        27     9      180.000000        8.424459         2    ;  uncertainty k = 0.150416
        26         4         2        27     9        0.000000        0.846428         3    ;  uncertainty k = 0.410478
        26         4         2        27     9      180.000000        1.294900         4    ;  uncertainty k = 0.220829
        26        15        21        43     9        0.000000        1.998170         1    ;  uncertainty k = 0.134845
        26        15        21        43     9      180.000000       -2.551328         2    ;  uncertainty k = 0.516997
        26        15        21        43     9        0.000000        0.851284         3    ;  uncertainty k = 0.235191
        26        15        21        43     9      180.000000        0.504467         4    ;  uncertainty k = 0.288449
        26        15        21        44     9        0.000000        1.998170         1    ;  uncertainty k = 0.134845
        26        15        21        44     9      180.000000       -2.551328         2    ;  uncertainty k = 0.516997
        26        15        21        44     9        0.000000        0.851284         3    ;  uncertainty k = 0.235191
        26        15        21        44     9      180.000000        0.504467         4    ;  uncertainty k = 0.288449
        28         3         5        29     9        0.000000       -0.109658         1    ;  uncertainty k = 0.312816
        28         3         5        29     9      180.000000        7.623797         2    ;  uncertainty k = 0.317098
        28         3         5        29     9        0.000000       -0.300552         3    ;  uncertainty k = 0.264861
        28         3         5        29     9      180.000000        0.211013         4    ;  uncertainty k = 0.118074
        31         9        10        33     9        0.000000       -0.062118         1    ;  uncertainty k = 0.175980
        31         9        10        33     9      180.000000       -0.346454         2    ;  uncertainty k = 0.237264
        31         9        10        33     9        0.000000       -0.035091         3    ;  uncertainty k = 0.145025
        31         9        10        33     9      180.000000       -0.049706         4    ;  uncertainty k = 0.074111
        31         9        24        45     9        0.000000        2.288821         1    ;  uncertainty k = 0.507795
        31         9        24        45     9      180.000000       -1.939761         2    ;  uncertainty k = 0.413857
        31         9        24        45     9        0.000000        0.268258         3    ;  uncertainty k = 0.084403
        31         9        24        45     9      180.000000        0.114796         4    ;  uncertainty k = 0.076861
        32         9        10        33     9        0.000000       -0.062118         1    ;  uncertainty k = 0.175980
        32         9        10        33     9      180.000000       -0.346454         2    ;  uncertainty k = 0.237264
        32         9        10        33     9        0.000000       -0.035091         3    ;  uncertainty k = 0.145025
        32         9        10        33     9      180.000000       -0.049706         4    ;  uncertainty k = 0.074111
        32         9        24        45     9        0.000000        2.288821         1    ;  uncertainty k = 0.507795
        32         9        24        45     9      180.000000       -1.939761         2    ;  uncertainty k = 0.413857
        32         9        24        45     9        0.000000        0.268258         3    ;  uncertainty k = 0.084403
        32         9        24        45     9      180.000000        0.114796         4    ;  uncertainty k = 0.076861
        33        10        14        37     9        0.000000       11.445024         1    ;  uncertainty k = 0.077908
        33        10        14        37     9      180.000000       -2.625800         2    ;  uncertainty k = 0.375643
        33        10        14        37     9        0.000000        0.698341         3    ;  uncertainty k = 0.074671
        33        10        14        37     9      180.000000        0.156691         4    ;  uncertainty k = 0.100510
        34        11        12        35     9        0.000000       -0.051759         1    ;  uncertainty k = 0.105402
        34        11        12        35     9      180.000000        7.644705         2    ;  uncertainty k = 0.306864
        34        11        12        35     9        0.000000       -0.441178         3    ;  uncertainty k = 0.237620
        34        11        12        35     9      180.000000        0.096993         4    ;  uncertainty k = 0.103181
        34        11        18        41     9        0.000000       -0.014778         1    ;  uncertainty k = 0.078555
        34        11        18        41     9      180.000000        7.498073         2    ;  uncertainty k = 0.337617
        34        11        18        41     9        0.000000       -0.424125         3    ;  uncertainty k = 0.279662
        34        11        18        41     9      180.000000        0.048151         4    ;  uncertainty k = 0.148926
        36        13        19        42     9        0.000000       -0.051759         1    ;  uncertainty k = 0.105402
        36        13        19        42     9      180.000000        7.644705         2    ;  uncertainty k = 0.306864
        36        13        19        42     9        0.000000       -0.441178         3    ;  uncertainty k = 0.237620
        36        13        19        42     9      180.000000        0.096993         4    ;  uncertainty k = 0.103181
        38        15        21        43     9        0.000000       -1.759462         1    ;  uncertainty k = 1.124627
        38        15        21        43     9      180.000000        1.624680         2    ;  uncertainty k = 0.863806
        38        15        21        43     9        0.000000        0.254431         3    ;  uncertainty k = 0.233491
        38        15        21        43     9      180.000000       -0.673041         4    ;  uncertainty k = 0.160490
        38        15        21        44     9        0.000000       -1.759462         1    ;  uncertainty k = 1.124627
        38        15        21        44     9      180.000000        1.624680         2    ;  uncertainty k = 0.863806
        38        15        21        44     9        0.000000        0.254431         3    ;  uncertainty k = 0.233491
        38        15        21        44     9      180.000000       -0.673041         4    ;  uncertainty k = 0.160490
        39        15        21        43     9        0.000000       -1.759462         1    ;  uncertainty k = 1.124627
        39        15        21        43     9      180.000000        1.624680         2    ;  uncertainty k = 0.863806
        39        15        21        43     9        0.000000        0.254431         3    ;  uncertainty k = 0.233491
        39        15        21        43     9      180.000000       -0.673041         4    ;  uncertainty k = 0.160490
        39        15        21        44     9        0.000000       -1.759462         1    ;  uncertainty k = 1.124627
        39        15        21        44     9      180.000000        1.624680         2    ;  uncertainty k = 0.863806
        39        15        21        44     9        0.000000        0.254431         3    ;  uncertainty k = 0.233491
        39        15        21        44     9      180.000000       -0.673041         4    ;  uncertainty k = 0.160490
        41        18        19        42     9        0.000000       -0.014778         1    ;  uncertainty k = 0.078555
        41        18        19        42     9      180.000000        7.498073         2    ;  uncertainty k = 0.337617
        41        18        19        42     9        0.000000       -0.424125         3    ;  uncertainty k = 0.279662
        41        18        19        42     9      180.000000        0.048151         4    ;  uncertainty k = 0.148926

[ dihedrals ] ; impropers
;       ai        aj        ak        al funct           phase               k        pn
         1         2         3         7     4      180.000000        9.507865         2    ;  uncertainty k = 0.100542
         1         3         7         2     4      180.000000        9.507865         2    ;  uncertainty k = 0.100542
         1         7         2         3     4      180.000000        9.507865         2    ;  uncertainty k = 0.100542
         2         1         4        27     4      180.000000        2.589549         2    ;  uncertainty k = 0.173262
         2         4        27         1     4      180.000000        2.589549         2    ;  uncertainty k = 0.173262
         2        27         1         4     4      180.000000        2.589549         2    ;  uncertainty k = 0.173262
         3         1         5        28     4      180.000000        3.694059         2    ;  uncertainty k = 0.108461
         3         5        28         1     4      180.000000        3.694059         2    ;  uncertainty k = 0.108461
         3        28         1         5     4      180.000000        3.694059         2    ;  uncertainty k = 0.108461
         4         2         6        26     4      180.000000       15.342230         2    ;  uncertainty k = 0.111827
         4         6        26         2     4      180.000000       15.342230         2    ;  uncertainty k = 0.111827
         4        26         2         6     4      180.000000       15.342230         2    ;  uncertainty k = 0.111827
         5         3         6        29     4      180.000000        2.005086         2    ;  uncertainty k = 0.268786
         5         6        29         3     4      180.000000        2.005086         2    ;  uncertainty k = 0.268786
         5        29         3         6     4      180.000000        2.005086         2    ;  uncertainty k = 0.268786
         6         4         5        25     4      180.000000       16.030641         2    ;  uncertainty k = 0.124737
         6         5        25         4     4      180.000000       16.030641         2    ;  uncertainty k = 0.124737
         6        25         4         5     4      180.000000       16.030641         2    ;  uncertainty k = 0.124737
         7         1         8        23     4      180.000000       27.602894         2    ;  uncertainty k = 0.036495
         7         8        23         1     4      180.000000       27.602894         2    ;  uncertainty k = 0.036495
         7        23         1         8     4      180.000000       27.602894         2    ;  uncertainty k = 0.036495
         8         7        16        30     4      180.000000        1.761618         2    ;  uncertainty k = 0.445635
         8        16        30         7     4      180.000000        1.761618         2    ;  uncertainty k = 0.445635
         8        30         7        16     4      180.000000        1.761618         2    ;  uncertainty k = 0.445635
        11        12        18        34     4      180.000000        4.234205         2    ;  uncertainty k = 0.081881
        11        18        34        12     4      180.000000        4.234205         2    ;  uncertainty k = 0.081881
        11        34        12        18     4      180.000000        4.234205         2    ;  uncertainty k = 0.081881
        12        11        20        35     4      180.000000        3.983249         2    ;  uncertainty k = 0.116003
        12        20        35        11     4      180.000000        3.983249         2    ;  uncertainty k = 0.116003
        12        35        11        20     4      180.000000        3.983249         2    ;  uncertainty k = 0.116003
        13        19        20        36     4      180.000000        3.983249         2    ;  uncertainty k = 0.116003
        13        20        36        19     4      180.000000        3.983249         2    ;  uncertainty k = 0.116003
        13        36        19        20     4      180.000000        3.983249         2    ;  uncertainty k = 0.116003
        16         8        22        24     4      180.000000       34.932664         2    ;  uncertainty k = 0.079084
        16        22        24         8     4      180.000000       34.932664         2    ;  uncertainty k = 0.079084
        16        24         8        22     4      180.000000       34.932664         2    ;  uncertainty k = 0.079084
        17        22        23        40     4      180.000000       24.239404         2    ;  uncertainty k = 0.061296
        17        23        40        22     4      180.000000       24.239404         2    ;  uncertainty k = 0.061296
        17        40        22        23     4      180.000000       24.239404         2    ;  uncertainty k = 0.061296
        18        11        19        41     4      180.000000        4.404546         2    ;  uncertainty k = 0.145826
        18        19        41        11     4      180.000000        4.404546         2    ;  uncertainty k = 0.145826
        18        41        11        19     4      180.000000        4.404546         2    ;  uncertainty k = 0.145826
        19        13        18        42     4      180.000000        4.234205         2    ;  uncertainty k = 0.081881
        19        18        42        13     4      180.000000        4.234205         2    ;  uncertainty k = 0.081881
        19        42        13        18     4      180.000000        4.234205         2    ;  uncertainty k = 0.081881
        20        10        12        13     4      180.000000       12.157434         2    ;  uncertainty k = 0.087858
        20        12        13        10     4      180.000000       12.157434         2    ;  uncertainty k = 0.087858
        20        13        10        12     4      180.000000       12.157434         2    ;  uncertainty k = 0.087858
        24         9        16        45     4      180.000000        0.223430         2    ;  uncertainty k = 0.499605
        24        16        45         9     4      180.000000        0.223430         2    ;  uncertainty k = 0.499605
        24        45         9        16     4      180.000000        0.223430         2    ;  uncertainty k = 0.499605

[ pairs ]
;       ai        aj funct
         1         6     1
         1        16     1
         1        17     1
         1        26     1
         1        29     1
         1        30     1
         2         5     1
         2         8     1
         2        15     1
         2        23     1
         2        25     1
         2        28     1
         3         4     1
         3         8     1
         3        23     1
         3        25     1
         3        27     1
         4         7     1
         4        21     1
         4        29     1
         4        38     1
         4        39     1
         5         7     1
         5        21     1
         5        26     1
         6        15     1
         6        27     1
         6        28     1
         6        43     1
         6        44     1
         7        22     1
         7        24     1
         7        27     1
         7        28     1
         7        40     1
         8         9     1
         8        17     1
         8        45     1
         9        12     1
         9        13     1
         9        22     1
         9        37     1
        10        11     1
        10        16     1
        10        19     1
        10        35     1
        10        36     1
        10        45     1
        11        13     1
        11        42     1
        12        14     1
        12        19     1
        12        33     1
        12        36     1
        12        41     1
        13        14     1
        13        33     1
        13        35     1
        13        41     1
        14        24     1
        14        31     1
        14        32     1
        16        23     1
        16        31     1
        16        32     1
        16        40     1
        17        24     1
        18        20     1
        18        35     1
        18        36     1
        19        34     1
        20        24     1
        20        31     1
        20        32     1
        20        34     1
        20        37     1
        20        42     1
        22        30     1
        22        45     1
        23        30     1
        24        30     1
        24        33     1
        25        26     1
        25        29     1
        25        38     1
        25        39     1
        26        27     1
        26        43     1
        26        44     1
        28        29     1
        31        33     1
        31        45     1
        32        33     1
        32        45     1
        33        37     1
        34        35     1
        34        41     1
        36        42     1
        38        43     1
        38        44     1
        39        43     1
        39        44     1
        41        42     1
