; ITP file created by ByteFF-ML, 2025-12-06 07:57:52.145377

[ atomtypes ]
;name           bonded.type        at.num        mass        charge   ptype           sigma         epsilon
 c0bf                                   6      0.0000       0.00000       A     3.31428e-01     4.12249e-01
 c1bf                                   6      0.0000       0.00000       A     3.31493e-01     4.12386e-01
 c2bf                                   6      0.0000       0.00000       A     3.31493e-01     4.12386e-01
 c3bf                                   6      0.0000       0.00000       A     3.31501e-01     4.12675e-01
 c4bf                                   6      0.0000       0.00000       A     3.31501e-01     4.12675e-01
 c5bf                                   6      0.0000       0.00000       A     3.31532e-01     4.13045e-01
 c6bf                                   6      0.0000       0.00000       A     3.31621e-01     4.12889e-01
 c7bf                                   6      0.0000       0.00000       A     3.31457e-01     4.14170e-01
 c8bf                                   6      0.0000       0.00000       A     3.39913e-01     4.51981e-01
 c9bf                                   6      0.0000       0.00000       A     3.39813e-01     4.52532e-01
 c10bf                                  6      0.0000       0.00000       A     3.31509e-01     4.13195e-01
 c11bf                                  6      0.0000       0.00000       A     3.31478e-01     4.12793e-01
 c12bf                                  6      0.0000       0.00000       A     3.31478e-01     4.12793e-01
 o13bf                                  8      0.0000       0.00000       A     3.24410e-01     3.85609e-01
 c14bf                                  6      0.0000       0.00000       A     3.31421e-01     4.11620e-01
 c15bf                                  6      0.0000       0.00000       A     3.31451e-01     4.12938e-01
 c16bf                                  6      0.0000       0.00000       A     3.31497e-01     4.12822e-01
 c17bf                                  6      0.0000       0.00000       A     3.31509e-01     4.13195e-01
 c18bf                                  6      0.0000       0.00000       A     3.31414e-01     4.12504e-01
 n19bf                                  7      0.0000       0.00000       A     3.38507e-01     3.93685e-01
 n20bf                                  7      0.0000       0.00000       A     3.38371e-01     3.91608e-01
 n21bf                                  7      0.0000       0.00000       A     3.27812e-01     6.42771e-01
 h22bf                                  1      0.0000       0.00000       A     2.62473e-01     6.73350e-02
 h23bf                                  1      0.0000       0.00000       A     2.62473e-01     6.73350e-02
 h24bf                                  1      0.0000       0.00000       A     2.62536e-01     6.71355e-02
 h25bf                                  1      0.0000       0.00000       A     2.62601e-01     6.80516e-02
 h26bf                                  1      0.0000       0.00000       A     2.42325e-01     8.87095e-02
 h27bf                                  1      0.0000       0.00000       A     2.42325e-01     8.87095e-02
 h28bf                                  1      0.0000       0.00000       A     2.41980e-01     8.63521e-02
 h29bf                                  1      0.0000       0.00000       A     2.62458e-01     6.72983e-02
 h30bf                                  1      0.0000       0.00000       A     2.62526e-01     6.76654e-02
 h31bf                                  1      0.0000       0.00000       A     2.62526e-01     6.76654e-02
 h32bf                                  1      0.0000       0.00000       A     5.34630e-02     2.01823e-02
 h33bf                                  1      0.0000       0.00000       A     2.44896e-01     6.81777e-02
 h34bf                                  1      0.0000       0.00000       A     2.62457e-01     6.73477e-02
 h35bf                                  1      0.0000       0.00000       A     2.62458e-01     6.72983e-02
 h36bf                                  1      0.0000       0.00000       A     1.10559e-01     4.02720e-02
 h37bf                                  1      0.0000       0.00000       A     2.62536e-01     6.71355e-02
 f38bf                                  9      0.0000       0.00000       A     3.03427e-01     3.47782e-01

[ moleculetype ]
;name             nrexcl
 14                    3

[ atoms ]
;       nr            type      resi   res      atom      cgnr      charge          mass ; qtot
         1            c0bf         1   UNL        c0         1    -0.17678       12.0110 ; qtot   -0.177
         2            c1bf         1   UNL        c1         2    -0.05097       12.0110 ; qtot   -0.228
         3            c2bf         1   UNL        c2         3    -0.05097       12.0110 ; qtot   -0.279
         4            c3bf         1   UNL        c3         4    -0.15602       12.0110 ; qtot   -0.435
         5            c4bf         1   UNL        c4         5    -0.15602       12.0110 ; qtot   -0.591
         6            c5bf         1   UNL        c5         6     0.17337       12.0110 ; qtot   -0.417
         7            c6bf         1   UNL        c6         7     0.20592       12.0110 ; qtot   -0.211
         8            c7bf         1   UNL        c7         8    -0.27851       12.0110 ; qtot   -0.490
         9            c8bf         1   UNL        c8         9     0.20486       12.0110 ; qtot   -0.285
        10            c9bf         1   UNL        c9        10     0.20056       12.0110 ; qtot   -0.085
        11           c10bf         1   UNL       c10        11    -0.11618       12.0110 ; qtot   -0.201
        12           c11bf         1   UNL       c11        12    -0.09263       12.0110 ; qtot   -0.293
        13           c12bf         1   UNL       c12        13    -0.09263       12.0110 ; qtot   -0.386
        14           o13bf         1   UNL       o13        14    -0.66766       15.9990 ; qtot   -1.054
        15           c14bf         1   UNL       c14        15     0.36320       12.0110 ; qtot   -0.690
        16           c15bf         1   UNL       c15        16     0.15429       12.0110 ; qtot   -0.536
        17           c16bf         1   UNL       c16        17    -0.10467       12.0110 ; qtot   -0.641
        18           c17bf         1   UNL       c17        18    -0.11618       12.0110 ; qtot   -0.757
        19           c18bf         1   UNL       c18        19    -0.12571       12.0110 ; qtot   -0.883
        20           n19bf         1   UNL       n19        20    -0.25580       14.0070 ; qtot   -1.139
        21           n20bf         1   UNL       n20        21    -0.20528       14.0070 ; qtot   -1.344
        22           n21bf         1   UNL       n21        22    -0.91333       14.0070 ; qtot   -2.257
        23           h22bf         1   UNL       h22        23     0.12929        1.0080 ; qtot   -2.128
        24           h23bf         1   UNL       h23        24     0.12929        1.0080 ; qtot   -1.999
        25           h24bf         1   UNL       h24        25     0.13738        1.0080 ; qtot   -1.861
        26           h25bf         1   UNL       h25        26     0.13746        1.0080 ; qtot   -1.724
        27           h26bf         1   UNL       h26        27     0.06305        1.0080 ; qtot   -1.661
        28           h27bf         1   UNL       h27        28     0.06305        1.0080 ; qtot   -1.598
        29           h28bf         1   UNL       h28        29     0.05867        1.0080 ; qtot   -1.539
        30           h29bf         1   UNL       h29        30     0.11526        1.0080 ; qtot   -1.424
        31           h30bf         1   UNL       h30        31     0.11982        1.0080 ; qtot   -1.304
        32           h31bf         1   UNL       h31        32     0.11982        1.0080 ; qtot   -1.184
        33           h32bf         1   UNL       h32        33     0.45685        1.0080 ; qtot   -0.727
        34           h33bf         1   UNL       h33        34     0.04875        1.0080 ; qtot   -0.678
        35           h34bf         1   UNL       h34        35     0.11320        1.0080 ; qtot   -0.565
        36           h35bf         1   UNL       h35        36     0.11526        1.0080 ; qtot   -0.450
        37           h36bf         1   UNL       h36        37     0.48941        1.0080 ; qtot    0.039
        38           h37bf         1   UNL       h37        38     0.13738        1.0080 ; qtot    0.177
        39           f38bf         1   UNL       f38        39    -0.17680       18.9980 ; qtot    0.000

[ bonds ]
;       ai        aj funct               r               k
         1         2     1        0.140650   286237.797852
         1         3     1        0.140650   286237.797852
         1         7     1        0.148397   202958.245264
         2         4     1        0.139514   324877.487305
         2        23     1        0.108468   322739.826953
         3         5     1        0.139514   324877.487305
         3        24     1        0.108468   322739.826953
         4         6     1        0.139219   306800.329395
         4        38     1        0.108491   324826.872754
         5         6     1        0.139219   306800.329395
         5        25     1        0.108491   324826.872754
         6        39     1        0.135527   291307.424805
         7         8     1        0.139541   300786.748730
         7        21     1        0.135342   279626.674365
         8        15     1        0.141258   266082.761963
         8        26     1        0.108255   326816.622168
         9        10     1        0.154143   165303.739185
         9        22     1        0.145622   213577.392529
         9        27     1        0.109387   298720.796582
         9        28     1        0.109387   298720.796582
        10        14     1        0.143225   197413.423779
        10        19     1        0.151713   185206.289673
        10        29     1        0.109771   288384.932471
        11        12     1        0.139818   313076.942285
        11        17     1        0.139926   306828.752197
        11        30     1        0.108636   319342.446533
        12        19     1        0.140197   290142.804932
        12        31     1        0.108628   318095.954687
        13        18     1        0.139818   313076.942285
        13        19     1        0.140197   290142.804932
        13        32     1        0.108628   318095.954687
        14        33     1        0.097193   463188.923242
        15        20     1        0.134854   290538.298145
        15        22     1        0.136981   317088.720020
        16        20     1        0.133560   323063.509814
        16        21     1        0.133228   320729.596777
        16        34     1        0.108885   310708.298779
        17        18     1        0.139926   306828.752197
        17        35     1        0.108629   319751.295654
        18        36     1        0.108636   319342.497607
        22        37     1        0.101243   416870.480371

[ angles ]
;       ai        aj        ak funct           theta             cth
         1         2         4     1      121.124146      674.736141
         1         2        23     1      119.537498      414.837063
         1         3         5     1      121.124146      674.736141
         1         3        24     1      119.537498      414.837063
         1         7         8     1      122.361649      445.794743
         1         7        21     1      116.763084      549.413224
         2         1         3     1      118.541161      599.459063
         2         1         7     1      120.709824      533.990853
         2         4         6     1      118.517136      697.189517
         2         4        38     1      121.658058      427.858403
         3         1         7     1      120.709824      533.990853
         3         5         6     1      118.517136      697.189517
         3         5        25     1      121.658058      427.858403
         4         2        23     1      119.354393      416.266247
         4         6         5     1      122.178696      558.602689
         4         6        39     1      118.911842      581.302242
         5         3        24     1      119.354393      416.266247
         5         6        39     1      118.911842      581.302242
         6         4        38     1      119.838074      447.128322
         6         5        25     1      119.838074      447.128290
         7         8        15     1      117.373459      949.835609
         7         8        26     1      121.779648      401.452808
         7        21        16     1      116.265480      849.415332
         8         7        21     1      120.823196      688.186792
         8        15        20     1      121.038940      696.522551
         8        15        22     1      122.015884      512.420678
         9        10        14     1      108.305847      587.312656
         9        10        19     1      111.358849      527.467973
         9        10        29     1      107.666794      471.669740
         9        22        15     1      123.221107      485.492466
         9        22        37     1      116.156227      432.193710
        10         9        22     1      112.253860      504.288545
        10         9        27     1      109.157486      446.524274
        10         9        28     1      109.157486      446.524274
        10        14        33     1      107.484726      573.087082
        10        19        12     1      120.512955      505.748055
        10        19        13     1      120.512955      505.748055
        11        12        19     1      120.485474      710.265794
        11        12        31     1      119.930954      427.353566
        11        17        18     1      119.633766      692.466301
        11        17        35     1      120.205627      430.895627
        12        11        17     1      120.129868      704.647119
        12        11        30     1      119.859192      430.780838
        12        19        13     1      118.926392      685.330275
        13        18        17     1      120.129868      704.647119
        13        18        36     1      119.859192      430.780806
        14        10        19     1      111.885483      728.778347
        14        10        29     1      108.507423      442.662201
        15         8        26     1      121.145187      423.807674
        15        20        16     1      115.971237      945.857949
        15        22        37     1      114.810379      471.231523
        17        11        30     1      120.073341      430.842957
        17        18        36     1      120.073341      430.842957
        18        13        19     1      120.485474      710.265794
        18        13        32     1      119.930954      427.353566
        18        17        35     1      120.205627      430.895627
        19        10        29     1      108.812782      462.834634
        19        12        31     1      119.638260      393.234998
        19        13        32     1      119.638260      393.234998
        20        15        22     1      116.914719      649.460340
        20        16        21     1      127.790550      717.320739
        20        16        34     1      115.851578      386.387350
        21        16        34     1      116.145645      398.875284
        22         9        27     1      109.378807      483.628736
        22         9        28     1      109.378807      483.628736
        27         9        28     1      107.690613      348.271586

[ dihedrals ] ; propers for gromacs 4.5 or higher, use funct 9
;       ai        aj        ak        al funct           phase               k        pn
         1         2         4         6     9        0.000000       -0.108223         1
         1         2         4         6     9      180.000000       19.562551         2
         1         2         4         6     9        0.000000       -1.602324         3
         1         2         4         6     9      180.000000       -0.506124         4
         1         2         4        38     9        0.000000       -0.022703         1
         1         2         4        38     9      180.000000       14.470094         2
         1         2         4        38     9        0.000000       -0.572842         3
         1         2         4        38     9      180.000000        0.112813         4
         1         3         5         6     9        0.000000       -0.108223         1
         1         3         5         6     9      180.000000       19.562551         2
         1         3         5         6     9        0.000000       -1.602324         3
         1         3         5         6     9      180.000000       -0.506124         4
         1         3         5        25     9        0.000000       -0.022702         1
         1         3         5        25     9      180.000000       14.470095         2
         1         3         5        25     9        0.000000       -0.572842         3
         1         3         5        25     9      180.000000        0.112813         4
         1         7         8        15     9        0.000000        0.456356         1
         1         7         8        15     9      180.000000       15.795256         2
         1         7         8        15     9        0.000000       -0.052755         3
         1         7         8        15     9      180.000000       -0.734701         4
         1         7         8        26     9        0.000000       -0.077582         1
         1         7         8        26     9      180.000000       13.228128         2
         1         7         8        26     9        0.000000       -0.159419         3
         1         7         8        26     9      180.000000        0.031594         4
         1         7        21        16     9        0.000000        0.493303         1
         1         7        21        16     9      180.000000       18.299657         2
         1         7        21        16     9        0.000000        0.354038         3
         1         7        21        16     9      180.000000       -0.730682         4
         2         1         3         5     9        0.000000       -0.182777         1
         2         1         3         5     9      180.000000       18.084172         2
         2         1         3         5     9        0.000000       -1.452340         3
         2         1         3         5     9      180.000000       -0.354160         4
         2         1         3        24     9        0.000000       -0.041220         1
         2         1         3        24     9      180.000000       13.810485         2
         2         1         3        24     9        0.000000       -0.682474         3
         2         1         3        24     9      180.000000        0.101973         4
         2         1         7         8     9        0.000000        0.073995         1
         2         1         7         8     9      180.000000        3.902048         2
         2         1         7         8     9        0.000000        0.089695         3
         2         1         7         8     9      180.000000       -0.123195         4
         2         1         7        21     9        0.000000       -0.341874         1
         2         1         7        21     9      180.000000        4.945010         2
         2         1         7        21     9        0.000000        0.127286         3
         2         1         7        21     9      180.000000        0.027702         4
         2         4         6         5     9        0.000000       -0.033803         1
         2         4         6         5     9      180.000000       16.776973         2
         2         4         6         5     9        0.000000       -1.106025         3
         2         4         6         5     9      180.000000       -0.288796         4
         2         4         6        39     9        0.000000        0.603803         1
         2         4         6        39     9      180.000000       22.444913         2
         2         4         6        39     9        0.000000        0.548098         3
         2         4         6        39     9      180.000000       -0.584377         4
         3         1         2         4     9        0.000000       -0.182777         1
         3         1         2         4     9      180.000000       18.084172         2
         3         1         2         4     9        0.000000       -1.452340         3
         3         1         2         4     9      180.000000       -0.354160         4
         3         1         2        23     9        0.000000       -0.041220         1
         3         1         2        23     9      180.000000       13.810485         2
         3         1         2        23     9        0.000000       -0.682474         3
         3         1         2        23     9      180.000000        0.101973         4
         3         1         7         8     9        0.000000        0.073995         1
         3         1         7         8     9      180.000000        3.902048         2
         3         1         7         8     9        0.000000        0.089695         3
         3         1         7         8     9      180.000000       -0.123195         4
         3         1         7        21     9        0.000000       -0.341874         1
         3         1         7        21     9      180.000000        4.945010         2
         3         1         7        21     9        0.000000        0.127286         3
         3         1         7        21     9      180.000000        0.027702         4
         3         5         6         4     9        0.000000       -0.033803         1
         3         5         6         4     9      180.000000       16.776973         2
         3         5         6         4     9        0.000000       -1.106025         3
         3         5         6         4     9      180.000000       -0.288796         4
         3         5         6        39     9        0.000000        0.603803         1
         3         5         6        39     9      180.000000       22.444913         2
         3         5         6        39     9        0.000000        0.548098         3
         3         5         6        39     9      180.000000       -0.584377         4
         4         2         1         7     9        0.000000       -0.067485         1
         4         2         1         7     9      180.000000       15.150347         2
         4         2         1         7     9        0.000000       -0.451133         3
         4         2         1         7     9      180.000000       -0.228712         4
         4         6         5        25     9        0.000000        0.120874         1
         4         6         5        25     9      180.000000       12.740692         2
         4         6         5        25     9        0.000000       -0.493004         3
         4         6         5        25     9      180.000000        0.142513         4
         5         3         1         7     9        0.000000       -0.067485         1
         5         3         1         7     9      180.000000       15.150347         2
         5         3         1         7     9        0.000000       -0.451133         3
         5         3         1         7     9      180.000000       -0.228712         4
         5         6         4        38     9        0.000000        0.120874         1
         5         6         4        38     9      180.000000       12.740691         2
         5         6         4        38     9        0.000000       -0.493004         3
         5         6         4        38     9      180.000000        0.142513         4
         6         4         2        23     9        0.000000        0.164067         1
         6         4         2        23     9      180.000000       15.277725         2
         6         4         2        23     9        0.000000       -0.633178         3
         6         4         2        23     9      180.000000        0.146486         4
         6         5         3        24     9        0.000000        0.164067         1
         6         5         3        24     9      180.000000       15.277725         2
         6         5         3        24     9        0.000000       -0.633178         3
         6         5         3        24     9      180.000000        0.146486         4
         7         1         2        23     9        0.000000       -0.130218         1
         7         1         2        23     9      180.000000       12.469094         2
         7         1         2        23     9        0.000000       -0.403009         3
         7         1         2        23     9      180.000000        0.129323         4
         7         1         3        24     9        0.000000       -0.130218         1
         7         1         3        24     9      180.000000       12.469094         2
         7         1         3        24     9        0.000000       -0.403009         3
         7         1         3        24     9      180.000000        0.129323         4
         7         8        15        20     9        0.000000       -0.123050         1
         7         8        15        20     9      180.000000       10.631899         2
         7         8        15        20     9        0.000000        0.454082         3
         7         8        15        20     9      180.000000       -0.512053         4
         7         8        15        22     9        0.000000        0.237538         1
         7         8        15        22     9      180.000000       14.073211         2
         7         8        15        22     9        0.000000        0.190331         3
         7         8        15        22     9      180.000000       -0.773793         4
         7        21        16        20     9        0.000000       -0.252497         1
         7        21        16        20     9      180.000000       19.176370         2
         7        21        16        20     9        0.000000        0.310972         3
         7        21        16        20     9      180.000000       -0.693633         4
         7        21        16        34     9        0.000000        0.590605         1
         7        21        16        34     9      180.000000       17.818971         2
         7        21        16        34     9        0.000000        0.153002         3
         7        21        16        34     9      180.000000       -0.521304         4
         8         7        21        16     9        0.000000       -0.289848         1
         8         7        21        16     9      180.000000       16.813948         2
         8         7        21        16     9        0.000000       -0.720570         3
         8         7        21        16     9      180.000000       -0.190926         4
         8        15        20        16     9        0.000000       -0.022736         1
         8        15        20        16     9      180.000000       16.992644         2
         8        15        20        16     9        0.000000       -0.224301         3
         8        15        20        16     9      180.000000       -0.568524         4
         8        15        22         9     9        0.000000        5.224768         1
         8        15        22         9     9      180.000000        6.917556         2
         8        15        22         9     9        0.000000       -0.057179         3
         8        15        22         9     9      180.000000       -0.618689         4
         8        15        22        37     9        0.000000        0.320717         1
         8        15        22        37     9      180.000000        8.635128         2
         8        15        22        37     9        0.000000       -0.410224         3
         8        15        22        37     9      180.000000       -0.398028         4
         9        10        14        33     9        0.000000        4.541259         1
         9        10        14        33     9      180.000000       -2.198736         2
         9        10        14        33     9        0.000000        1.415205         3
         9        10        14        33     9      180.000000        0.029450         4
         9        10        19        12     9        0.000000       -0.398743         1
         9        10        19        12     9      180.000000        0.451216         2
         9        10        19        12     9        0.000000        0.124295         3
         9        10        19        12     9      180.000000        0.133514         4
         9        10        19        13     9        0.000000       -0.398743         1
         9        10        19        13     9      180.000000        0.451216         2
         9        10        19        13     9        0.000000        0.124295         3
         9        10        19        13     9      180.000000        0.133514         4
         9        22        15        20     9        0.000000       -1.077597         1
         9        22        15        20     9      180.000000        7.473702         2
         9        22        15        20     9        0.000000        0.573233         3
         9        22        15        20     9      180.000000       -0.794597         4
        10         9        22        15     9        0.000000       -0.112643         1
        10         9        22        15     9      180.000000       -1.570097         2
        10         9        22        15     9        0.000000        0.300213         3
        10         9        22        15     9      180.000000        0.098634         4
        10         9        22        37     9        0.000000        0.735822         1
        10         9        22        37     9      180.000000       -2.582116         2
        10         9        22        37     9        0.000000        0.347206         3
        10         9        22        37     9      180.000000       -0.105654         4
        10        19        12        11     9        0.000000        0.111760         1
        10        19        12        11     9      180.000000       15.055540         2
        10        19        12        11     9        0.000000       -0.201705         3
        10        19        12        11     9      180.000000       -0.170563         4
        10        19        12        31     9        0.000000       -0.124557         1
        10        19        12        31     9      180.000000       12.506757         2
        10        19        12        31     9        0.000000       -0.366252         3
        10        19        12        31     9      180.000000        0.214425         4
        10        19        13        18     9        0.000000        0.111760         1
        10        19        13        18     9      180.000000       15.055540         2
        10        19        13        18     9        0.000000       -0.201705         3
        10        19        13        18     9      180.000000       -0.170563         4
        10        19        13        32     9        0.000000       -0.124557         1
        10        19        13        32     9      180.000000       12.506757         2
        10        19        13        32     9        0.000000       -0.366252         3
        10        19        13        32     9      180.000000        0.214425         4
        11        12        19        13     9        0.000000       -0.086434         1
        11        12        19        13     9      180.000000       19.280115         2
        11        12        19        13     9        0.000000       -1.377217         3
        11        12        19        13     9      180.000000       -0.484255         4
        11        17        18        13     9        0.000000       -0.065558         1
        11        17        18        13     9      180.000000       18.692617         2
        11        17        18        13     9        0.000000       -1.640948         3
        11        17        18        13     9      180.000000       -0.389537         4
        11        17        18        36     9        0.000000       -0.009820         1
        11        17        18        36     9      180.000000       14.300739         2
        11        17        18        36     9        0.000000       -0.816641         3
        11        17        18        36     9      180.000000        0.159846         4
        12        11        17        18     9        0.000000       -0.065558         1
        12        11        17        18     9      180.000000       18.692617         2
        12        11        17        18     9        0.000000       -1.640948         3
        12        11        17        18     9      180.000000       -0.389537         4
        12        11        17        35     9        0.000000        0.028863         1
        12        11        17        35     9      180.000000       14.422143         2
        12        11        17        35     9        0.000000       -0.784775         3
        12        11        17        35     9      180.000000        0.125003         4
        12        19        10        14     9        0.000000        0.158143         1
        12        19        10        14     9      180.000000        1.522775         2
        12        19        10        14     9        0.000000        0.093469         3
        12        19        10        14     9      180.000000        0.103875         4
        12        19        10        29     9        0.000000        0.061136         1
        12        19        10        29     9      180.000000       -0.249343         2
        12        19        10        29     9        0.000000        0.070958         3
        12        19        10        29     9      180.000000        0.070292         4
        12        19        13        18     9        0.000000       -0.086434         1
        12        19        13        18     9      180.000000       19.280115         2
        12        19        13        18     9        0.000000       -1.377217         3
        12        19        13        18     9      180.000000       -0.484255         4
        12        19        13        32     9        0.000000        0.029678         1
        12        19        13        32     9      180.000000       14.471529         2
        12        19        13        32     9        0.000000       -0.566133         3
        12        19        13        32     9      180.000000        0.014589         4
        13        18        17        35     9        0.000000        0.028863         1
        13        18        17        35     9      180.000000       14.422143         2
        13        18        17        35     9        0.000000       -0.784775         3
        13        18        17        35     9      180.000000        0.125003         4
        13        19        10        14     9        0.000000        0.158143         1
        13        19        10        14     9      180.000000        1.522775         2
        13        19        10        14     9        0.000000        0.093469         3
        13        19        10        14     9      180.000000        0.103875         4
        13        19        10        29     9        0.000000        0.061136         1
        13        19        10        29     9      180.000000       -0.249343         2
        13        19        10        29     9        0.000000        0.070958         3
        13        19        10        29     9      180.000000        0.070292         4
        13        19        12        31     9        0.000000        0.029678         1
        13        19        12        31     9      180.000000       14.471529         2
        13        19        12        31     9        0.000000       -0.566133         3
        13        19        12        31     9      180.000000        0.014589         4
        14        10         9        22     9        0.000000        1.532929         1
        14        10         9        22     9      180.000000       -1.493963         2
        14        10         9        22     9        0.000000        0.714582         3
        14        10         9        22     9      180.000000       -0.146386         4
        14        10         9        27     9        0.000000        0.020955         1
        14        10         9        27     9      180.000000        0.115482         2
        14        10         9        27     9        0.000000        0.678853         3
        14        10         9        27     9      180.000000        0.038725         4
        14        10         9        28     9        0.000000        0.020955         1
        14        10         9        28     9      180.000000        0.115482         2
        14        10         9        28     9        0.000000        0.678853         3
        14        10         9        28     9      180.000000        0.038725         4
        15         8         7        21     9        0.000000       -0.212285         1
        15         8         7        21     9      180.000000       14.785473         2
        15         8         7        21     9        0.000000       -0.440688         3
        15         8         7        21     9      180.000000       -0.577486         4
        15        20        16        21     9        0.000000       -0.320119         1
        15        20        16        21     9      180.000000       16.475745         2
        15        20        16        21     9        0.000000        0.183992         3
        15        20        16        21     9      180.000000       -0.393429         4
        15        20        16        34     9        0.000000        0.459937         1
        15        20        16        34     9      180.000000       16.482063         2
        15        20        16        34     9        0.000000        0.076258         3
        15        20        16        34     9      180.000000       -0.344674         4
        15        22         9        27     9        0.000000       -0.189083         1
        15        22         9        27     9      180.000000        0.185757         2
        15        22         9        27     9        0.000000        0.558846         3
        15        22         9        27     9      180.000000        0.044537         4
        15        22         9        28     9        0.000000       -0.189083         1
        15        22         9        28     9      180.000000        0.185757         2
        15        22         9        28     9        0.000000        0.558846         3
        15        22         9        28     9      180.000000        0.044537         4
        16        20        15        22     9        0.000000        0.461674         1
        16        20        15        22     9      180.000000       20.541055         2
        16        20        15        22     9        0.000000        0.317681         3
        16        20        15        22     9      180.000000       -0.820158         4
        17        11        12        19     9        0.000000        0.054632         1
        17        11        12        19     9      180.000000       18.589551         2
        17        11        12        19     9        0.000000       -1.606416         3
        17        11        12        19     9      180.000000       -0.399485         4
        17        11        12        31     9        0.000000        0.076292         1
        17        11        12        31     9      180.000000       14.619450         2
        17        11        12        31     9        0.000000       -0.694646         3
        17        11        12        31     9      180.000000        0.138086         4
        17        18        13        19     9        0.000000        0.054632         1
        17        18        13        19     9      180.000000       18.589551         2
        17        18        13        19     9        0.000000       -1.606416         3
        17        18        13        19     9      180.000000       -0.399485         4
        17        18        13        32     9        0.000000        0.076292         1
        17        18        13        32     9      180.000000       14.619450         2
        17        18        13        32     9        0.000000       -0.694646         3
        17        18        13        32     9      180.000000        0.138086         4
        18        17        11        30     9        0.000000       -0.009821         1
        18        17        11        30     9      180.000000       14.300738         2
        18        17        11        30     9        0.000000       -0.816642         3
        18        17        11        30     9      180.000000        0.159846         4
        19        10         9        22     9        0.000000       -1.777651         1
        19        10         9        22     9      180.000000        0.755968         2
        19        10         9        22     9        0.000000        0.910026         3
        19        10         9        22     9      180.000000       -0.100294         4
        19        10         9        27     9        0.000000        0.025966         1
        19        10         9        27     9      180.000000        0.106467         2
        19        10         9        27     9        0.000000        0.827034         3
        19        10         9        27     9      180.000000        0.014871         4
        19        10         9        28     9        0.000000        0.025966         1
        19        10         9        28     9      180.000000        0.106467         2
        19        10         9        28     9        0.000000        0.827034         3
        19        10         9        28     9      180.000000        0.014871         4
        19        10        14        33     9        0.000000        1.190209         1
        19        10        14        33     9      180.000000        0.844003         2
        19        10        14        33     9        0.000000        0.980359         3
        19        10        14        33     9      180.000000       -0.135753         4
        19        12        11        30     9        0.000000        0.038018         1
        19        12        11        30     9      180.000000       14.781682         2
        19        12        11        30     9        0.000000       -0.723395         3
        19        12        11        30     9      180.000000        0.097778         4
        19        13        18        36     9        0.000000        0.038019         1
        19        13        18        36     9      180.000000       14.781683         2
        19        13        18        36     9        0.000000       -0.723395         3
        19        13        18        36     9      180.000000        0.097778         4
        20        15         8        26     9        0.000000       -0.258484         1
        20        15         8        26     9      180.000000       11.906267         2
        20        15         8        26     9        0.000000       -0.274305         3
        20        15         8        26     9      180.000000       -0.112986         4
        20        15        22        37     9        0.000000       -0.835637         1
        20        15        22        37     9      180.000000       10.136196         2
        20        15        22        37     9        0.000000       -0.035919         3
        20        15        22        37     9      180.000000       -0.458821         4
        21         7         8        26     9        0.000000       -0.189292         1
        21         7         8        26     9      180.000000       13.477433         2
        21         7         8        26     9        0.000000       -0.199128         3
        21         7         8        26     9      180.000000       -0.056370         4
        22         9        10        29     9        0.000000        0.514713         1
        22         9        10        29     9      180.000000       -0.288522         2
        22         9        10        29     9        0.000000        0.822223         3
        22         9        10        29     9      180.000000        0.051792         4
        22        15         8        26     9        0.000000       -0.215870         1
        22        15         8        26     9      180.000000       12.333076         2
        22        15         8        26     9        0.000000       -0.135218         3
        22        15         8        26     9      180.000000       -0.050610         4
        23         2         4        38     9        0.000000       -0.188045         1
        23         2         4        38     9      180.000000       11.978500         2
        23         2         4        38     9        0.000000       -0.826570         3
        23         2         4        38     9      180.000000        0.353156         4
        24         3         5        25     9        0.000000       -0.188044         1
        24         3         5        25     9      180.000000       11.978498         2
        24         3         5        25     9        0.000000       -0.826570         3
        24         3         5        25     9      180.000000        0.353156         4
        25         5         6        39     9        0.000000        0.255173         1
        25         5         6        39     9      180.000000       15.641237         2
        25         5         6        39     9        0.000000        0.316514         3
        25         5         6        39     9      180.000000        0.163078         4
        27         9        10        29     9        0.000000       -0.142542         1
        27         9        10        29     9      180.000000        0.095326         2
        27         9        10        29     9        0.000000        0.735648         3
        27         9        10        29     9      180.000000       -0.028866         4
        27         9        22        37     9        0.000000       -0.246942         1
        27         9        22        37     9      180.000000        0.072496         2
        27         9        22        37     9        0.000000        0.555471         3
        27         9        22        37     9      180.000000       -0.006327         4
        28         9        10        29     9        0.000000       -0.142542         1
        28         9        10        29     9      180.000000        0.095326         2
        28         9        10        29     9        0.000000        0.735648         3
        28         9        10        29     9      180.000000       -0.028866         4
        28         9        22        37     9        0.000000       -0.246942         1
        28         9        22        37     9      180.000000        0.072496         2
        28         9        22        37     9        0.000000        0.555471         3
        28         9        22        37     9      180.000000       -0.006327         4
        29        10        14        33     9        0.000000       -0.800853         1
        29        10        14        33     9      180.000000        0.505532         2
        29        10        14        33     9        0.000000        0.806455         3
        29        10        14        33     9      180.000000        0.051913         4
        30        11        12        31     9        0.000000       -0.100727         1
        30        11        12        31     9      180.000000       11.878502         2
        30        11        12        31     9        0.000000       -0.707350         3
        30        11        12        31     9      180.000000        0.299415         4
        30        11        17        35     9        0.000000       -0.090882         1
        30        11        17        35     9      180.000000       11.539986         2
        30        11        17        35     9        0.000000       -0.600996         3
        30        11        17        35     9      180.000000        0.271440         4
        32        13        18        36     9        0.000000       -0.100727         1
        32        13        18        36     9      180.000000       11.878503         2
        32        13        18        36     9        0.000000       -0.707350         3
        32        13        18        36     9      180.000000        0.299415         4
        35        17        18        36     9        0.000000       -0.090881         1
        35        17        18        36     9      180.000000       11.539987         2
        35        17        18        36     9        0.000000       -0.600996         3
        35        17        18        36     9      180.000000        0.271440         4
        38         4         6        39     9        0.000000        0.255173         1
        38         4         6        39     9      180.000000       15.641234         2
        38         4         6        39     9        0.000000        0.316514         3
        38         4         6        39     9      180.000000        0.163079         4

[ dihedrals ] ; impropers
;       ai        aj        ak        al funct           phase               k        pn
         6         4         5        39     4      180.000000        1.806019         2
         6         5        39         4     4      180.000000        1.806019         2
         6        39         4         5     4      180.000000        1.806019         2
         7         1         8        21     4      180.000000       10.894582         2
         7         8        21         1     4      180.000000       10.894582         2
         7        21         1         8     4      180.000000       10.894582         2
        11        12        17        30     4      180.000000        0.055645         2
        11        17        30        12     4      180.000000        0.055645         2
        11        30        12        17     4      180.000000        0.055645         2
        12        11        19        31     4      180.000000        0.085002         2
        12        19        31        11     4      180.000000        0.085002         2
        12        31        11        19     4      180.000000        0.085002         2
        13        18        19        32     4      180.000000        0.085002         2
        13        19        32        18     4      180.000000        0.085002         2
        13        32        18        19     4      180.000000        0.085002         2
        15         8        20        22     4      180.000000        5.688008         2
        15        20        22         8     4      180.000000        5.688008         2
        15        22         8        20     4      180.000000        5.688008         2
        16        20        21        34     4      180.000000       26.195382         2
        16        21        34        20     4      180.000000       26.195382         2
        16        34        20        21     4      180.000000       26.195382         2
        17        11        18        35     4      180.000000        0.298825         2
        17        18        35        11     4      180.000000        0.298825         2
        17        35        11        18     4      180.000000        0.298825         2
        18        13        17        36     4      180.000000        0.055645         2
        18        17        36        13     4      180.000000        0.055645         2
        18        36        13        17     4      180.000000        0.055645         2

[ pairs ]
;       ai        aj funct
         1         6     1
         1        15     1
         1        16     1
         1        25     1
         1        26     1
         1        38     1
         2         5     1
         2         8     1
         2        21     1
         2        24     1
         2        39     1
         3         4     1
         3         8     1
         3        21     1
         3        23     1
         3        39     1
         4         7     1
         4        25     1
         5         7     1
         5        38     1
         6        23     1
         6        24     1
         7        20     1
         7        22     1
         7        23     1
         7        24     1
         7        34     1
         8         9     1
         8        16     1
         8        37     1
         9        12     1
         9        13     1
         9        20     1
         9        33     1
        10        11     1
        10        15     1
        10        18     1
        10        31     1
        10        32     1
        10        37     1
        11        13     1
        11        36     1
        12        14     1
        12        18     1
        12        29     1
        12        32     1
        12        35     1
        13        14     1
        13        29     1
        13        31     1
        13        35     1
        14        22     1
        14        27     1
        14        28     1
        15        21     1
        15        27     1
        15        28     1
        15        34     1
        16        22     1
        17        19     1
        17        31     1
        17        32     1
        18        30     1
        19        22     1
        19        27     1
        19        28     1
        19        30     1
        19        33     1
        19        36     1
        20        26     1
        20        37     1
        21        26     1
        22        26     1
        22        29     1
        23        38     1
        24        25     1
        25        39     1
        27        29     1
        27        37     1
        28        29     1
        28        37     1
        29        33     1
        30        31     1
        30        35     1
        32        36     1
        35        36     1
        38        39     1
