; ITP file created by ByteFF-ML, 2025-12-06 08:00:03.345791

[ atomtypes ]
;name           bonded.type        at.num        mass        charge   ptype           sigma         epsilon
 c0bf                                   6      0.0000       0.00000       A     3.31444e-01     4.11736e-01
 c1bf                                   6      0.0000       0.00000       A     3.31351e-01     4.12429e-01
 c2bf                                   6      0.0000       0.00000       A     3.31459e-01     4.12707e-01
 c3bf                                   6      0.0000       0.00000       A     3.31408e-01     4.13026e-01
 c4bf                                   6      0.0000       0.00000       A     3.31489e-01     4.13810e-01
 c5bf                                   6      0.0000       0.00000       A     3.31444e-01     4.13500e-01
 c6bf                                   6      0.0000       0.00000       A     3.31627e-01     4.13082e-01
 c7bf                                   6      0.0000       0.00000       A     3.31457e-01     4.14170e-01
 c8bf                                   6      0.0000       0.00000       A     3.39913e-01     4.51981e-01
 c9bf                                   6      0.0000       0.00000       A     3.39813e-01     4.52532e-01
 c10bf                                  6      0.0000       0.00000       A     3.31509e-01     4.13195e-01
 c11bf                                  6      0.0000       0.00000       A     3.31478e-01     4.12793e-01
 c12bf                                  6      0.0000       0.00000       A     3.31478e-01     4.12793e-01
 o13bf                                  8      0.0000       0.00000       A     3.24410e-01     3.85609e-01
 c14bf                                  6      0.0000       0.00000       A     3.31421e-01     4.11620e-01
 c15bf                                  6      0.0000       0.00000       A     3.31451e-01     4.12938e-01
 c16bf                                  6      0.0000       0.00000       A     3.31497e-01     4.12822e-01
 c17bf                                  6      0.0000       0.00000       A     3.31509e-01     4.13195e-01
 c18bf                                  6      0.0000       0.00000       A     3.31414e-01     4.12504e-01
 n19bf                                  7      0.0000       0.00000       A     3.38507e-01     3.93685e-01
 n20bf                                  7      0.0000       0.00000       A     3.38371e-01     3.91610e-01
 n21bf                                  7      0.0000       0.00000       A     3.27812e-01     6.42771e-01
 h22bf                                  1      0.0000       0.00000       A     2.62492e-01     6.74722e-02
 h23bf                                  1      0.0000       0.00000       A     2.62497e-01     6.75281e-02
 h24bf                                  1      0.0000       0.00000       A     2.62549e-01     6.69599e-02
 h25bf                                  1      0.0000       0.00000       A     2.62601e-01     6.80516e-02
 h26bf                                  1      0.0000       0.00000       A     2.42325e-01     8.87095e-02
 h27bf                                  1      0.0000       0.00000       A     2.42325e-01     8.87095e-02
 h28bf                                  1      0.0000       0.00000       A     2.41980e-01     8.63521e-02
 h29bf                                  1      0.0000       0.00000       A     2.62458e-01     6.72983e-02
 h30bf                                  1      0.0000       0.00000       A     2.62526e-01     6.76654e-02
 h31bf                                  1      0.0000       0.00000       A     2.62526e-01     6.76654e-02
 h32bf                                  1      0.0000       0.00000       A     5.34630e-02     2.01823e-02
 h33bf                                  1      0.0000       0.00000       A     2.44896e-01     6.81777e-02
 h34bf                                  1      0.0000       0.00000       A     2.62457e-01     6.73477e-02
 h35bf                                  1      0.0000       0.00000       A     2.62458e-01     6.72983e-02
 h36bf                                  1      0.0000       0.00000       A     1.10559e-01     4.02720e-02
 c37bf                                  6      0.0000       0.00000       A     3.39753e-01     4.50594e-01
 o38bf                                  8      0.0000       0.00000       A     3.15835e-01     3.04489e-01
 c39bf                                  6      0.0000       0.00000       A     3.39784e-01     4.50460e-01
 h40bf                                  1      0.0000       0.00000       A     2.42080e-01     8.75859e-02
 h41bf                                  1      0.0000       0.00000       A     2.42080e-01     8.75859e-02
 h42bf                                  1      0.0000       0.00000       A     2.42080e-01     8.75859e-02
 h43bf                                  1      0.0000       0.00000       A     2.59954e-01     8.73146e-02
 h44bf                                  1      0.0000       0.00000       A     2.59954e-01     8.73146e-02
 h45bf                                  1      0.0000       0.00000       A     2.59954e-01     8.73146e-02

[ moleculetype ]
;name             nrexcl
 22                    3

[ atoms ]
;       nr            type      resi   res      atom      cgnr      charge          mass ; qtot
         1            c0bf         1   UNL        c0         1    -0.19107       12.0110 ; qtot   -0.191
         2            c1bf         1   UNL        c1         2    -0.04795       12.0110 ; qtot   -0.239
         3            c2bf         1   UNL        c2         3    -0.04300       12.0110 ; qtot   -0.282
         4            c3bf         1   UNL        c3         4    -0.11788       12.0110 ; qtot   -0.400
         5            c4bf         1   UNL        c4         5    -0.20080       12.0110 ; qtot   -0.601
         6            c5bf         1   UNL        c5         6     0.14193       12.0110 ; qtot   -0.459
         7            c6bf         1   UNL        c6         7     0.21088       12.0110 ; qtot   -0.248
         8            c7bf         1   UNL        c7         8    -0.27884       12.0110 ; qtot   -0.527
         9            c8bf         1   UNL        c8         9     0.20486       12.0110 ; qtot   -0.322
        10            c9bf         1   UNL        c9        10     0.20056       12.0110 ; qtot   -0.121
        11           c10bf         1   UNL       c10        11    -0.11618       12.0110 ; qtot   -0.237
        12           c11bf         1   UNL       c11        12    -0.09263       12.0110 ; qtot   -0.330
        13           c12bf         1   UNL       c12        13    -0.09263       12.0110 ; qtot   -0.423
        14           o13bf         1   UNL       o13        14    -0.66766       15.9990 ; qtot   -1.090
        15           c14bf         1   UNL       c14        15     0.36320       12.0110 ; qtot   -0.727
        16           c15bf         1   UNL       c15        16     0.15429       12.0110 ; qtot   -0.573
        17           c16bf         1   UNL       c16        17    -0.10467       12.0110 ; qtot   -0.678
        18           c17bf         1   UNL       c17        18    -0.11618       12.0110 ; qtot   -0.794
        19           c18bf         1   UNL       c18        19    -0.12571       12.0110 ; qtot   -0.919
        20           n19bf         1   UNL       n19        20    -0.25580       14.0070 ; qtot   -1.175
        21           n20bf         1   UNL       n20        21    -0.20567       14.0070 ; qtot   -1.381
        22           n21bf         1   UNL       n21        22    -0.91333       14.0070 ; qtot   -2.294
        23           h22bf         1   UNL       h22        23     0.12244        1.0080 ; qtot   -2.172
        24           h23bf         1   UNL       h23        24     0.12502        1.0080 ; qtot   -2.047
        25           h24bf         1   UNL       h24        25     0.12130        1.0080 ; qtot   -1.926
        26           h25bf         1   UNL       h25        26     0.13746        1.0080 ; qtot   -1.788
        27           h26bf         1   UNL       h26        27     0.06305        1.0080 ; qtot   -1.725
        28           h27bf         1   UNL       h27        28     0.06305        1.0080 ; qtot   -1.662
        29           h28bf         1   UNL       h28        29     0.05867        1.0080 ; qtot   -1.603
        30           h29bf         1   UNL       h29        30     0.11526        1.0080 ; qtot   -1.488
        31           h30bf         1   UNL       h30        31     0.11982        1.0080 ; qtot   -1.368
        32           h31bf         1   UNL       h31        32     0.11982        1.0080 ; qtot   -1.248
        33           h32bf         1   UNL       h32        33     0.45685        1.0080 ; qtot   -0.792
        34           h33bf         1   UNL       h33        34     0.04875        1.0080 ; qtot   -0.743
        35           h34bf         1   UNL       h34        35     0.11320        1.0080 ; qtot   -0.630
        36           h35bf         1   UNL       h35        36     0.11526        1.0080 ; qtot   -0.514
        37           h36bf         1   UNL       h36        37     0.48941        1.0080 ; qtot   -0.025
        38           c37bf         1   UNL       c37        38    -0.03764       12.0110 ; qtot   -0.063
        39           o38bf         1   UNL       o38        39    -0.34623       15.9990 ; qtot   -0.409
        40           c39bf         1   UNL       c39        40     0.14303       12.0110 ; qtot   -0.266
        41           h40bf         1   UNL       h40        41     0.04237        1.0080 ; qtot   -0.223
        42           h41bf         1   UNL       h41        42     0.04237        1.0080 ; qtot   -0.181
        43           h42bf         1   UNL       h42        43     0.04237        1.0080 ; qtot   -0.139
        44           h43bf         1   UNL       h43        44     0.04620        1.0080 ; qtot   -0.092
        45           h44bf         1   UNL       h44        45     0.04620        1.0080 ; qtot   -0.046
        46           h45bf         1   UNL       h45        46     0.04625        1.0080 ; qtot    0.000

[ bonds ]
;       ai        aj funct               r               k
         1         2     1        0.140790   281553.117285
         1         3     1        0.140329   292517.041064
         1         7     1        0.148164   204212.334399
         2         4     1        0.139243   324627.836523
         2        23     1        0.108586   317854.016113
         3         5     1        0.139630   324115.076904
         3        24     1        0.108489   321454.391016
         4         6     1        0.141333   260283.948389
         4        38     1        0.150804   206170.724243
         5         6     1        0.140077   289994.664160
         5        25     1        0.108380   323104.624561
         6        39     1        0.136852   267677.222461
         7         8     1        0.139559   300421.491455
         7        21     1        0.135358   279280.697607
         8        15     1        0.141258   266082.761963
         8        26     1        0.108255   326816.622168
         9        10     1        0.154143   165303.739185
         9        22     1        0.145622   213577.405298
         9        27     1        0.109387   298720.796582
         9        28     1        0.109387   298720.796582
        10        14     1        0.143225   197413.423779
        10        19     1        0.151713   185206.289673
        10        29     1        0.109771   288384.932471
        11        12     1        0.139818   313076.942285
        11        17     1        0.139926   306828.752197
        11        30     1        0.108636   319342.446533
        12        19     1        0.140197   290142.804932
        12        31     1        0.108628   318095.954687
        13        18     1        0.139818   313076.942285
        13        19     1        0.140197   290142.804932
        13        32     1        0.108628   318095.954687
        14        33     1        0.097193   463188.923242
        15        20     1        0.134854   290538.298145
        15        22     1        0.136981   317088.694482
        16        20     1        0.133560   323063.484277
        16        21     1        0.133228   320729.622314
        16        34     1        0.108885   310708.298779
        17        18     1        0.139926   306828.752197
        17        35     1        0.108629   319751.295654
        18        36     1        0.108636   319342.497607
        22        37     1        0.101243   416870.480371
        38        44     1        0.109408   300558.421436
        38        45     1        0.109408   300558.421436
        38        46     1        0.109408   300558.421436
        39        40     1        0.142404   208947.821045
        40        41     1        0.109437   297369.347217
        40        42     1        0.109437   297369.347217
        40        43     1        0.109437   297369.347217

[ angles ]
;       ai        aj        ak funct           theta             cth
         1         2         4     1      122.511047      644.837996
         1         2        23     1      118.978783      418.129817
         1         3         5     1      121.084213      636.063956
         1         3        24     1      119.749527      417.546231
         1         7         8     1      122.410599      449.052384
         1         7        21     1      116.975510      549.975423
         2         1         3     1      117.899963      563.712664
         2         1         7     1      120.931114      510.442988
         2         4         6     1      118.021385      735.778898
         2         4        38     1      121.887802      402.264601
         3         1         7     1      121.153465      544.533018
         3         5         6     1      119.881920      754.867696
         3         5        25     1      119.253006      442.468821
         4         2        23     1      118.608078      404.772058
         4         6         5     1      120.497940      575.167335
         4         6        39     1      115.111084      535.914755
         4        38        44     1      111.047768      474.001789
         4        38        45     1      111.047768      474.001789
         4        38        46     1      111.047768      474.001789
         5         3        24     1      119.240555      417.683046
         5         6        39     1      124.382851      533.534888
         6         4        38     1      120.014992      381.207914
         6         5        25     1      120.983253      433.300839
         6        39        40     1      118.327316      547.956523
         7         8        15     1      117.392197      949.818053
         7         8        26     1      121.756027      401.353405
         7        21        16     1      116.285416      849.656785
         8         7        21     1      120.787209      688.851204
         8        15        20     1      121.038940      696.522551
         8        15        22     1      122.015884      512.420678
         9        10        14     1      108.305847      587.312656
         9        10        19     1      111.358849      527.467973
         9        10        29     1      107.666794      471.669740
         9        22        15     1      123.221107      485.492434
         9        22        37     1      116.156227      432.193774
        10         9        22     1      112.253860      504.288609
        10         9        27     1      109.157486      446.524274
        10         9        28     1      109.157486      446.524274
        10        14        33     1      107.484726      573.087082
        10        19        12     1      120.512955      505.748087
        10        19        13     1      120.512955      505.748055
        11        12        19     1      120.485474      710.265794
        11        12        31     1      119.930954      427.353566
        11        17        18     1      119.633766      692.466301
        11        17        35     1      120.205627      430.895627
        12        11        17     1      120.129868      704.647119
        12        11        30     1      119.859192      430.780838
        12        19        13     1      118.926392      685.330275
        13        18        17     1      120.129868      704.647119
        13        18        36     1      119.859192      430.780806
        14        10        19     1      111.885483      728.778347
        14        10        29     1      108.507423      442.662201
        15         8        26     1      121.145187      423.807674
        15        20        16     1      115.971237      945.857949
        15        22        37     1      114.810379      471.231523
        17        11        30     1      120.073341      430.842957
        17        18        36     1      120.073341      430.842957
        18        13        19     1      120.485474      710.265794
        18        13        32     1      119.930954      427.353566
        18        17        35     1      120.205627      430.895627
        19        10        29     1      108.812782      462.834634
        19        12        31     1      119.638260      393.234998
        19        13        32     1      119.638260      393.234998
        20        15        22     1      116.914719      649.460340
        20        16        21     1      127.790565      717.320676
        20        16        34     1      115.851562      386.387286
        21        16        34     1      116.145645      398.875284
        22         9        27     1      109.378807      483.628736
        22         9        28     1      109.378807      483.628736
        27         9        28     1      107.690613      348.271586
        39        40        41     1      109.578049      449.613307
        39        40        42     1      109.578049      449.613307
        39        40        43     1      109.578049      449.613307
        41        40        42     1      109.504967      343.329358
        41        40        43     1      109.504967      343.329358
        42        40        43     1      109.504967      343.329358
        44        38        45     1      107.861916      359.132295
        44        38        46     1      107.861916      359.132295
        45        38        46     1      107.861916      359.132264

[ dihedrals ] ; propers for gromacs 4.5 or higher, use funct 9
;       ai        aj        ak        al funct           phase               k        pn
         1         2         4         6     9        0.000000       -0.177687         1
         1         2         4         6     9      180.000000       19.146464         2
         1         2         4         6     9        0.000000       -1.414253         3
         1         2         4         6     9      180.000000       -0.455629         4
         1         2         4        38     9        0.000000        0.035684         1
         1         2         4        38     9      180.000000       16.737646         2
         1         2         4        38     9        0.000000       -0.167135         3
         1         2         4        38     9      180.000000       -0.179404         4
         1         3         5         6     9        0.000000       -0.243649         1
         1         3         5         6     9      180.000000       18.958961         2
         1         3         5         6     9        0.000000       -1.805558         3
         1         3         5         6     9      180.000000       -0.551934         4
         1         3         5        25     9        0.000000       -0.019956         1
         1         3         5        25     9      180.000000       14.126321         2
         1         3         5        25     9        0.000000       -0.622270         3
         1         3         5        25     9      180.000000        0.108231         4
         1         7         8        15     9        0.000000        0.426172         1
         1         7         8        15     9      180.000000       15.547883         2
         1         7         8        15     9        0.000000       -0.096578         3
         1         7         8        15     9      180.000000       -0.698935         4
         1         7         8        26     9        0.000000       -0.078336         1
         1         7         8        26     9      180.000000       13.101468         2
         1         7         8        26     9        0.000000       -0.169961         3
         1         7         8        26     9      180.000000        0.012624         4
         1         7        21        16     9        0.000000        0.497327         1
         1         7        21        16     9      180.000000       18.286392         2
         1         7        21        16     9        0.000000        0.267950         3
         1         7        21        16     9      180.000000       -0.723685         4
         2         1         3         5     9        0.000000       -0.208727         1
         2         1         3         5     9      180.000000       18.247490         2
         2         1         3         5     9        0.000000       -1.542389         3
         2         1         3         5     9      180.000000       -0.378808         4
         2         1         3        24     9        0.000000       -0.018237         1
         2         1         3        24     9      180.000000       14.036794         2
         2         1         3        24     9        0.000000       -0.689292         3
         2         1         3        24     9      180.000000        0.088822         4
         2         1         7         8     9        0.000000        0.171125         1
         2         1         7         8     9      180.000000        4.233495         2
         2         1         7         8     9        0.000000        0.169431         3
         2         1         7         8     9      180.000000       -0.081221         4
         2         1         7        21     9        0.000000       -0.466835         1
         2         1         7        21     9      180.000000        5.269744         2
         2         1         7        21     9        0.000000        0.174537         3
         2         1         7        21     9      180.000000        0.047959         4
         2         4         6         5     9        0.000000       -0.010136         1
         2         4         6         5     9      180.000000       14.572589         2
         2         4         6         5     9        0.000000       -0.764344         3
         2         4         6         5     9      180.000000       -0.188807         4
         2         4         6        39     9        0.000000        0.309652         1
         2         4         6        39     9      180.000000       16.865541         2
         2         4         6        39     9        0.000000        0.336471         3
         2         4         6        39     9      180.000000       -0.243720         4
         2         4        38        44     9        0.000000        0.001560         1
         2         4        38        44     9      180.000000       -0.000603         2
         2         4        38        44     9        0.000000       -0.092694         3
         2         4        38        44     9      180.000000       -0.009010         4
         2         4        38        45     9        0.000000        0.001560         1
         2         4        38        45     9      180.000000       -0.000603         2
         2         4        38        45     9        0.000000       -0.092694         3
         2         4        38        45     9      180.000000       -0.009010         4
         2         4        38        46     9        0.000000        0.001560         1
         2         4        38        46     9      180.000000       -0.000603         2
         2         4        38        46     9        0.000000       -0.092694         3
         2         4        38        46     9      180.000000       -0.009010         4
         3         1         2         4     9        0.000000       -0.237616         1
         3         1         2         4     9      180.000000       17.383092         2
         3         1         2         4     9        0.000000       -1.612699         3
         3         1         2         4     9      180.000000       -0.282850         4
         3         1         2        23     9        0.000000       -0.059819         1
         3         1         2        23     9      180.000000       13.473163         2
         3         1         2        23     9        0.000000       -0.756282         3
         3         1         2        23     9      180.000000        0.142166         4
         3         1         7         8     9        0.000000        0.123373         1
         3         1         7         8     9      180.000000        4.203525         2
         3         1         7         8     9        0.000000        0.217465         3
         3         1         7         8     9      180.000000       -0.118427         4
         3         1         7        21     9        0.000000       -0.185935         1
         3         1         7        21     9      180.000000        5.154040         2
         3         1         7        21     9        0.000000        0.226237         3
         3         1         7        21     9      180.000000        0.015027         4
         3         5         6         4     9        0.000000        0.003562         1
         3         5         6         4     9      180.000000       15.324682         2
         3         5         6         4     9        0.000000       -0.942520         3
         3         5         6         4     9      180.000000       -0.211000         4
         3         5         6        39     9        0.000000        0.650735         1
         3         5         6        39     9      180.000000       17.909035         2
         3         5         6        39     9        0.000000        0.513434         3
         3         5         6        39     9      180.000000       -0.389766         4
         4         2         1         7     9        0.000000       -0.057104         1
         4         2         1         7     9      180.000000       14.058708         2
         4         2         1         7     9        0.000000       -0.403608         3
         4         2         1         7     9      180.000000       -0.267492         4
         4         6         5        25     9        0.000000        0.015426         1
         4         6         5        25     9      180.000000       12.022752         2
         4         6         5        25     9        0.000000       -0.461026         3
         4         6         5        25     9      180.000000        0.154891         4
         4         6        39        40     9        0.000000       -0.948650         1
         4         6        39        40     9      180.000000        4.950751         2
         4         6        39        40     9        0.000000        0.964179         3
         4         6        39        40     9      180.000000        0.133649         4
         5         3         1         7     9        0.000000       -0.182233         1
         5         3         1         7     9      180.000000       14.888071         2
         5         3         1         7     9        0.000000       -0.469634         3
         5         3         1         7     9      180.000000       -0.218020         4
         5         6         4        38     9        0.000000       -0.163952         1
         5         6         4        38     9      180.000000       12.758468         2
         5         6         4        38     9        0.000000       -0.273433         3
         5         6         4        38     9      180.000000       -0.013925         4
         5         6        39        40     9        0.000000        1.355208         1
         5         6        39        40     9      180.000000        5.512677         2
         5         6        39        40     9        0.000000       -0.294589         3
         5         6        39        40     9      180.000000        0.507540         4
         6         4         2        23     9        0.000000        0.109822         1
         6         4         2        23     9      180.000000       14.865043         2
         6         4         2        23     9        0.000000       -0.414363         3
         6         4         2        23     9      180.000000        0.167775         4
         6         4        38        44     9        0.000000       -0.024073         1
         6         4        38        44     9      180.000000       -0.000800         2
         6         4        38        44     9        0.000000       -0.067930         3
         6         4        38        44     9      180.000000        0.020240         4
         6         4        38        45     9        0.000000       -0.024073         1
         6         4        38        45     9      180.000000       -0.000800         2
         6         4        38        45     9        0.000000       -0.067930         3
         6         4        38        45     9      180.000000        0.020240         4
         6         4        38        46     9        0.000000       -0.024073         1
         6         4        38        46     9      180.000000       -0.000800         2
         6         4        38        46     9        0.000000       -0.067930         3
         6         4        38        46     9      180.000000        0.020240         4
         6         5         3        24     9        0.000000        0.090254         1
         6         5         3        24     9      180.000000       14.878401         2
         6         5         3        24     9        0.000000       -0.524626         3
         6         5         3        24     9      180.000000        0.034101         4
         6        39        40        41     9        0.000000       -0.069082         1
         6        39        40        41     9      180.000000        0.030517         2
         6        39        40        41     9        0.000000        0.655793         3
         6        39        40        41     9      180.000000       -0.025130         4
         6        39        40        42     9        0.000000       -0.069082         1
         6        39        40        42     9      180.000000        0.030517         2
         6        39        40        42     9        0.000000        0.655793         3
         6        39        40        42     9      180.000000       -0.025130         4
         6        39        40        43     9        0.000000       -0.069082         1
         6        39        40        43     9      180.000000        0.030517         2
         6        39        40        43     9        0.000000        0.655793         3
         6        39        40        43     9      180.000000       -0.025130         4
         7         1         2        23     9        0.000000       -0.086409         1
         7         1         2        23     9      180.000000       12.194702         2
         7         1         2        23     9        0.000000       -0.398342         3
         7         1         2        23     9      180.000000        0.147908         4
         7         1         3        24     9        0.000000       -0.035622         1
         7         1         3        24     9      180.000000       12.401017         2
         7         1         3        24     9        0.000000       -0.382613         3
         7         1         3        24     9      180.000000        0.119953         4
         7         8        15        20     9        0.000000       -0.124827         1
         7         8        15        20     9      180.000000       10.631724         2
         7         8        15        20     9        0.000000        0.455041         3
         7         8        15        20     9      180.000000       -0.512060         4
         7         8        15        22     9        0.000000        0.228969         1
         7         8        15        22     9      180.000000       14.035214         2
         7         8        15        22     9        0.000000        0.187306         3
         7         8        15        22     9      180.000000       -0.766200         4
         7        21        16        20     9        0.000000       -0.256847         1
         7        21        16        20     9      180.000000       19.143425         2
         7        21        16        20     9        0.000000        0.316034         3
         7        21        16        20     9      180.000000       -0.692076         4
         7        21        16        34     9        0.000000        0.582439         1
         7        21        16        34     9      180.000000       17.773986         2
         7        21        16        34     9        0.000000        0.148913         3
         7        21        16        34     9      180.000000       -0.515954         4
         8         7        21        16     9        0.000000       -0.288686         1
         8         7        21        16     9      180.000000       16.788239         2
         8         7        21        16     9        0.000000       -0.704492         3
         8         7        21        16     9      180.000000       -0.195062         4
         8        15        20        16     9        0.000000       -0.022736         1
         8        15        20        16     9      180.000000       16.992644         2
         8        15        20        16     9        0.000000       -0.224301         3
         8        15        20        16     9      180.000000       -0.568524         4
         8        15        22         9     9        0.000000        5.224768         1
         8        15        22         9     9      180.000000        6.917556         2
         8        15        22         9     9        0.000000       -0.057179         3
         8        15        22         9     9      180.000000       -0.618689         4
         8        15        22        37     9        0.000000        0.320716         1
         8        15        22        37     9      180.000000        8.635129         2
         8        15        22        37     9        0.000000       -0.410224         3
         8        15        22        37     9      180.000000       -0.398028         4
         9        10        14        33     9        0.000000        4.541259         1
         9        10        14        33     9      180.000000       -2.198737         2
         9        10        14        33     9        0.000000        1.415205         3
         9        10        14        33     9      180.000000        0.029450         4
         9        10        19        12     9        0.000000       -0.398743         1
         9        10        19        12     9      180.000000        0.451216         2
         9        10        19        12     9        0.000000        0.124295         3
         9        10        19        12     9      180.000000        0.133514         4
         9        10        19        13     9        0.000000       -0.398743         1
         9        10        19        13     9      180.000000        0.451216         2
         9        10        19        13     9        0.000000        0.124295         3
         9        10        19        13     9      180.000000        0.133514         4
         9        22        15        20     9        0.000000       -1.077598         1
         9        22        15        20     9      180.000000        7.473703         2
         9        22        15        20     9        0.000000        0.573233         3
         9        22        15        20     9      180.000000       -0.794596         4
        10         9        22        15     9        0.000000       -0.112643         1
        10         9        22        15     9      180.000000       -1.570097         2
        10         9        22        15     9        0.000000        0.300213         3
        10         9        22        15     9      180.000000        0.098634         4
        10         9        22        37     9        0.000000        0.735822         1
        10         9        22        37     9      180.000000       -2.582116         2
        10         9        22        37     9        0.000000        0.347206         3
        10         9        22        37     9      180.000000       -0.105654         4
        10        19        12        11     9        0.000000        0.111760         1
        10        19        12        11     9      180.000000       15.055540         2
        10        19        12        11     9        0.000000       -0.201705         3
        10        19        12        11     9      180.000000       -0.170563         4
        10        19        12        31     9        0.000000       -0.124557         1
        10        19        12        31     9      180.000000       12.506757         2
        10        19        12        31     9        0.000000       -0.366252         3
        10        19        12        31     9      180.000000        0.214424         4
        10        19        13        18     9        0.000000        0.111760         1
        10        19        13        18     9      180.000000       15.055540         2
        10        19        13        18     9        0.000000       -0.201705         3
        10        19        13        18     9      180.000000       -0.170563         4
        10        19        13        32     9        0.000000       -0.124557         1
        10        19        13        32     9      180.000000       12.506757         2
        10        19        13        32     9        0.000000       -0.366252         3
        10        19        13        32     9      180.000000        0.214424         4
        11        12        19        13     9        0.000000       -0.086434         1
        11        12        19        13     9      180.000000       19.280115         2
        11        12        19        13     9        0.000000       -1.377217         3
        11        12        19        13     9      180.000000       -0.484255         4
        11        17        18        13     9        0.000000       -0.065558         1
        11        17        18        13     9      180.000000       18.692617         2
        11        17        18        13     9        0.000000       -1.640948         3
        11        17        18        13     9      180.000000       -0.389537         4
        11        17        18        36     9        0.000000       -0.009820         1
        11        17        18        36     9      180.000000       14.300739         2
        11        17        18        36     9        0.000000       -0.816641         3
        11        17        18        36     9      180.000000        0.159846         4
        12        11        17        18     9        0.000000       -0.065558         1
        12        11        17        18     9      180.000000       18.692617         2
        12        11        17        18     9        0.000000       -1.640948         3
        12        11        17        18     9      180.000000       -0.389537         4
        12        11        17        35     9        0.000000        0.028863         1
        12        11        17        35     9      180.000000       14.422143         2
        12        11        17        35     9        0.000000       -0.784775         3
        12        11        17        35     9      180.000000        0.125003         4
        12        19        10        14     9        0.000000        0.158143         1
        12        19        10        14     9      180.000000        1.522775         2
        12        19        10        14     9        0.000000        0.093469         3
        12        19        10        14     9      180.000000        0.103875         4
        12        19        10        29     9        0.000000        0.061136         1
        12        19        10        29     9      180.000000       -0.249343         2
        12        19        10        29     9        0.000000        0.070958         3
        12        19        10        29     9      180.000000        0.070292         4
        12        19        13        18     9        0.000000       -0.086434         1
        12        19        13        18     9      180.000000       19.280115         2
        12        19        13        18     9        0.000000       -1.377217         3
        12        19        13        18     9      180.000000       -0.484255         4
        12        19        13        32     9        0.000000        0.029677         1
        12        19        13        32     9      180.000000       14.471531         2
        12        19        13        32     9        0.000000       -0.566133         3
        12        19        13        32     9      180.000000        0.014589         4
        13        18        17        35     9        0.000000        0.028863         1
        13        18        17        35     9      180.000000       14.422143         2
        13        18        17        35     9        0.000000       -0.784775         3
        13        18        17        35     9      180.000000        0.125003         4
        13        19        10        14     9        0.000000        0.158143         1
        13        19        10        14     9      180.000000        1.522775         2
        13        19        10        14     9        0.000000        0.093469         3
        13        19        10        14     9      180.000000        0.103875         4
        13        19        10        29     9        0.000000        0.061136         1
        13        19        10        29     9      180.000000       -0.249343         2
        13        19        10        29     9        0.000000        0.070958         3
        13        19        10        29     9      180.000000        0.070292         4
        13        19        12        31     9        0.000000        0.029677         1
        13        19        12        31     9      180.000000       14.471531         2
        13        19        12        31     9        0.000000       -0.566133         3
        13        19        12        31     9      180.000000        0.014589         4
        14        10         9        22     9        0.000000        1.532930         1
        14        10         9        22     9      180.000000       -1.493962         2
        14        10         9        22     9        0.000000        0.714582         3
        14        10         9        22     9      180.000000       -0.146386         4
        14        10         9        27     9        0.000000        0.020955         1
        14        10         9        27     9      180.000000        0.115482         2
        14        10         9        27     9        0.000000        0.678853         3
        14        10         9        27     9      180.000000        0.038725         4
        14        10         9        28     9        0.000000        0.020955         1
        14        10         9        28     9      180.000000        0.115482         2
        14        10         9        28     9        0.000000        0.678853         3
        14        10         9        28     9      180.000000        0.038725         4
        15         8         7        21     9        0.000000       -0.217915         1
        15         8         7        21     9      180.000000       14.729533         2
        15         8         7        21     9        0.000000       -0.431062         3
        15         8         7        21     9      180.000000       -0.576251         4
        15        20        16        21     9        0.000000       -0.320119         1
        15        20        16        21     9      180.000000       16.475745         2
        15        20        16        21     9        0.000000        0.183991         3
        15        20        16        21     9      180.000000       -0.393429         4
        15        20        16        34     9        0.000000        0.459938         1
        15        20        16        34     9      180.000000       16.482065         2
        15        20        16        34     9        0.000000        0.076258         3
        15        20        16        34     9      180.000000       -0.344674         4
        15        22         9        27     9        0.000000       -0.189083         1
        15        22         9        27     9      180.000000        0.185758         2
        15        22         9        27     9        0.000000        0.558846         3
        15        22         9        27     9      180.000000        0.044537         4
        15        22         9        28     9        0.000000       -0.189083         1
        15        22         9        28     9      180.000000        0.185758         2
        15        22         9        28     9        0.000000        0.558846         3
        15        22         9        28     9      180.000000        0.044537         4
        16        20        15        22     9        0.000000        0.461674         1
        16        20        15        22     9      180.000000       20.541055         2
        16        20        15        22     9        0.000000        0.317682         3
        16        20        15        22     9      180.000000       -0.820159         4
        17        11        12        19     9        0.000000        0.054632         1
        17        11        12        19     9      180.000000       18.589551         2
        17        11        12        19     9        0.000000       -1.606416         3
        17        11        12        19     9      180.000000       -0.399485         4
        17        11        12        31     9        0.000000        0.076291         1
        17        11        12        31     9      180.000000       14.619449         2
        17        11        12        31     9        0.000000       -0.694646         3
        17        11        12        31     9      180.000000        0.138086         4
        17        18        13        19     9        0.000000        0.054632         1
        17        18        13        19     9      180.000000       18.589551         2
        17        18        13        19     9        0.000000       -1.606416         3
        17        18        13        19     9      180.000000       -0.399485         4
        17        18        13        32     9        0.000000        0.076291         1
        17        18        13        32     9      180.000000       14.619449         2
        17        18        13        32     9        0.000000       -0.694646         3
        17        18        13        32     9      180.000000        0.138086         4
        18        17        11        30     9        0.000000       -0.009821         1
        18        17        11        30     9      180.000000       14.300738         2
        18        17        11        30     9        0.000000       -0.816642         3
        18        17        11        30     9      180.000000        0.159846         4
        19        10         9        22     9        0.000000       -1.777650         1
        19        10         9        22     9      180.000000        0.755969         2
        19        10         9        22     9        0.000000        0.910026         3
        19        10         9        22     9      180.000000       -0.100294         4
        19        10         9        27     9        0.000000        0.025966         1
        19        10         9        27     9      180.000000        0.106467         2
        19        10         9        27     9        0.000000        0.827034         3
        19        10         9        27     9      180.000000        0.014871         4
        19        10         9        28     9        0.000000        0.025966         1
        19        10         9        28     9      180.000000        0.106467         2
        19        10         9        28     9        0.000000        0.827034         3
        19        10         9        28     9      180.000000        0.014871         4
        19        10        14        33     9        0.000000        1.190208         1
        19        10        14        33     9      180.000000        0.844003         2
        19        10        14        33     9        0.000000        0.980359         3
        19        10        14        33     9      180.000000       -0.135754         4
        19        12        11        30     9        0.000000        0.038018         1
        19        12        11        30     9      180.000000       14.781682         2
        19        12        11        30     9        0.000000       -0.723395         3
        19        12        11        30     9      180.000000        0.097778         4
        19        13        18        36     9        0.000000        0.038019         1
        19        13        18        36     9      180.000000       14.781683         2
        19        13        18        36     9        0.000000       -0.723395         3
        19        13        18        36     9      180.000000        0.097778         4
        20        15         8        26     9        0.000000       -0.258484         1
        20        15         8        26     9      180.000000       11.906267         2
        20        15         8        26     9        0.000000       -0.274305         3
        20        15         8        26     9      180.000000       -0.112986         4
        20        15        22        37     9        0.000000       -0.835638         1
        20        15        22        37     9      180.000000       10.136196         2
        20        15        22        37     9        0.000000       -0.035919         3
        20        15        22        37     9      180.000000       -0.458821         4
        21         7         8        26     9        0.000000       -0.190708         1
        21         7         8        26     9      180.000000       13.476901         2
        21         7         8        26     9        0.000000       -0.201894         3
        21         7         8        26     9      180.000000       -0.060460         4
        22         9        10        29     9        0.000000        0.514712         1
        22         9        10        29     9      180.000000       -0.288521         2
        22         9        10        29     9        0.000000        0.822223         3
        22         9        10        29     9      180.000000        0.051792         4
        22        15         8        26     9        0.000000       -0.215869         1
        22        15         8        26     9      180.000000       12.333077         2
        22        15         8        26     9        0.000000       -0.135218         3
        22        15         8        26     9      180.000000       -0.050610         4
        23         2         4        38     9        0.000000       -0.232784         1
        23         2         4        38     9      180.000000       13.750603         2
        23         2         4        38     9        0.000000       -0.479250         3
        23         2         4        38     9      180.000000        0.300375         4
        24         3         5        25     9        0.000000       -0.181074         1
        24         3         5        25     9      180.000000       11.915842         2
        24         3         5        25     9        0.000000       -0.752860         3
        24         3         5        25     9      180.000000        0.335405         4
        25         5         6        39     9        0.000000       -0.002745         1
        25         5         6        39     9      180.000000       13.176401         2
        25         5         6        39     9        0.000000       -0.067612         3
        25         5         6        39     9      180.000000        0.286202         4
        27         9        10        29     9        0.000000       -0.142542         1
        27         9        10        29     9      180.000000        0.095326         2
        27         9        10        29     9        0.000000        0.735648         3
        27         9        10        29     9      180.000000       -0.028866         4
        27         9        22        37     9        0.000000       -0.246940         1
        27         9        22        37     9      180.000000        0.072497         2
        27         9        22        37     9        0.000000        0.555471         3
        27         9        22        37     9      180.000000       -0.006327         4
        28         9        10        29     9        0.000000       -0.142542         1
        28         9        10        29     9      180.000000        0.095326         2
        28         9        10        29     9        0.000000        0.735648         3
        28         9        10        29     9      180.000000       -0.028866         4
        28         9        22        37     9        0.000000       -0.246940         1
        28         9        22        37     9      180.000000        0.072497         2
        28         9        22        37     9        0.000000        0.555471         3
        28         9        22        37     9      180.000000       -0.006327         4
        29        10        14        33     9        0.000000       -0.800853         1
        29        10        14        33     9      180.000000        0.505532         2
        29        10        14        33     9        0.000000        0.806455         3
        29        10        14        33     9      180.000000        0.051913         4
        30        11        12        31     9        0.000000       -0.100728         1
        30        11        12        31     9      180.000000       11.878502         2
        30        11        12        31     9        0.000000       -0.707350         3
        30        11        12        31     9      180.000000        0.299415         4
        30        11        17        35     9        0.000000       -0.090882         1
        30        11        17        35     9      180.000000       11.539986         2
        30        11        17        35     9        0.000000       -0.600996         3
        30        11        17        35     9      180.000000        0.271440         4
        32        13        18        36     9        0.000000       -0.100728         1
        32        13        18        36     9      180.000000       11.878502         2
        32        13        18        36     9        0.000000       -0.707350         3
        32        13        18        36     9      180.000000        0.299414         4
        35        17        18        36     9        0.000000       -0.090882         1
        35        17        18        36     9      180.000000       11.539986         2
        35        17        18        36     9        0.000000       -0.600996         3
        35        17        18        36     9      180.000000        0.271440         4
        38         4         6        39     9        0.000000       -0.112454         1
        38         4         6        39     9      180.000000       16.439793         2
        38         4         6        39     9        0.000000       -0.279066         3
        38         4         6        39     9      180.000000       -0.253355         4

[ dihedrals ] ; impropers
;       ai        aj        ak        al funct           phase               k        pn
         7         1         8        21     4      180.000000       10.758461         2
         7         8        21         1     4      180.000000       10.758461         2
         7        21         1         8     4      180.000000       10.758461         2
        11        12        17        30     4      180.000000        0.055645         2
        11        17        30        12     4      180.000000        0.055645         2
        11        30        12        17     4      180.000000        0.055645         2
        12        11        19        31     4      180.000000        0.085002         2
        12        19        31        11     4      180.000000        0.085002         2
        12        31        11        19     4      180.000000        0.085002         2
        13        18        19        32     4      180.000000        0.085002         2
        13        19        32        18     4      180.000000        0.085002         2
        13        32        18        19     4      180.000000        0.085002         2
        15         8        20        22     4      180.000000        5.688009         2
        15        20        22         8     4      180.000000        5.688009         2
        15        22         8        20     4      180.000000        5.688009         2
        16        20        21        34     4      180.000000       26.195376         2
        16        21        34        20     4      180.000000       26.195376         2
        16        34        20        21     4      180.000000       26.195376         2
        17        11        18        35     4      180.000000        0.298824         2
        17        18        35        11     4      180.000000        0.298824         2
        17        35        11        18     4      180.000000        0.298824         2
        18        13        17        36     4      180.000000        0.055645         2
        18        17        36        13     4      180.000000        0.055645         2
        18        36        13        17     4      180.000000        0.055645         2

[ pairs ]
;       ai        aj funct
         1         6     1
         1        15     1
         1        16     1
         1        25     1
         1        26     1
         1        38     1
         2         5     1
         2         8     1
         2        21     1
         2        24     1
         2        39     1
         2        44     1
         2        45     1
         2        46     1
         3         4     1
         3         8     1
         3        21     1
         3        23     1
         3        39     1
         4         7     1
         4        25     1
         4        40     1
         5         7     1
         5        38     1
         5        40     1
         6        23     1
         6        24     1
         6        41     1
         6        42     1
         6        43     1
         6        44     1
         6        45     1
         6        46     1
         7        20     1
         7        22     1
         7        23     1
         7        24     1
         7        34     1
         8         9     1
         8        16     1
         8        37     1
         9        12     1
         9        13     1
         9        20     1
         9        33     1
        10        11     1
        10        15     1
        10        18     1
        10        31     1
        10        32     1
        10        37     1
        11        13     1
        11        36     1
        12        14     1
        12        18     1
        12        29     1
        12        32     1
        12        35     1
        13        14     1
        13        29     1
        13        31     1
        13        35     1
        14        22     1
        14        27     1
        14        28     1
        15        21     1
        15        27     1
        15        28     1
        15        34     1
        16        22     1
        17        19     1
        17        31     1
        17        32     1
        18        30     1
        19        22     1
        19        27     1
        19        28     1
        19        30     1
        19        33     1
        19        36     1
        20        26     1
        20        37     1
        21        26     1
        22        26     1
        22        29     1
        23        38     1
        24        25     1
        25        39     1
        27        29     1
        27        37     1
        28        29     1
        28        37     1
        29        33     1
        30        31     1
        30        35     1
        32        36     1
        35        36     1
        38        39     1
