; ITP file created by ByteFF-ML, 2025-12-06 08:00:47.938456

[ atomtypes ]
;name           bonded.type        at.num        mass        charge   ptype           sigma         epsilon
 c0bf                                   6      0.0000       0.00000       A     3.31357e-01     4.11076e-01
 c1bf                                   6      0.0000       0.00000       A     3.31484e-01     4.14978e-01
 c2bf                                   6      0.0000       0.00000       A     3.31432e-01     4.12581e-01
 c3bf                                   6      0.0000       0.00000       A     3.31340e-01     4.14132e-01
 c4bf                                   6      0.0000       0.00000       A     3.31440e-01     4.13072e-01
 c5bf                                   6      0.0000       0.00000       A     3.31508e-01     4.13203e-01
 c6bf                                   6      0.0000       0.00000       A     3.31627e-01     4.13082e-01
 c7bf                                   6      0.0000       0.00000       A     3.31457e-01     4.14170e-01
 c8bf                                   6      0.0000       0.00000       A     3.39913e-01     4.51981e-01
 c9bf                                   6      0.0000       0.00000       A     3.39813e-01     4.52532e-01
 c10bf                                  6      0.0000       0.00000       A     3.31509e-01     4.13195e-01
 c11bf                                  6      0.0000       0.00000       A     3.31478e-01     4.12793e-01
 c12bf                                  6      0.0000       0.00000       A     3.31478e-01     4.12793e-01
 o13bf                                  8      0.0000       0.00000       A     3.24410e-01     3.85609e-01
 c14bf                                  6      0.0000       0.00000       A     3.31421e-01     4.11620e-01
 c15bf                                  6      0.0000       0.00000       A     3.31451e-01     4.12938e-01
 c16bf                                  6      0.0000       0.00000       A     3.31497e-01     4.12822e-01
 c17bf                                  6      0.0000       0.00000       A     3.31509e-01     4.13195e-01
 c18bf                                  6      0.0000       0.00000       A     3.31414e-01     4.12504e-01
 n19bf                                  7      0.0000       0.00000       A     3.38507e-01     3.93685e-01
 n20bf                                  7      0.0000       0.00000       A     3.38371e-01     3.91610e-01
 n21bf                                  7      0.0000       0.00000       A     3.27812e-01     6.42771e-01
 h22bf                                  1      0.0000       0.00000       A     2.62599e-01     6.76749e-02
 h23bf                                  1      0.0000       0.00000       A     2.62463e-01     6.73860e-02
 h24bf                                  1      0.0000       0.00000       A     2.62541e-01     6.72695e-02
 h25bf                                  1      0.0000       0.00000       A     2.62601e-01     6.80516e-02
 h26bf                                  1      0.0000       0.00000       A     2.42325e-01     8.87095e-02
 h27bf                                  1      0.0000       0.00000       A     2.42325e-01     8.87095e-02
 h28bf                                  1      0.0000       0.00000       A     2.41980e-01     8.63521e-02
 h29bf                                  1      0.0000       0.00000       A     2.62458e-01     6.72983e-02
 h30bf                                  1      0.0000       0.00000       A     2.62526e-01     6.76654e-02
 h31bf                                  1      0.0000       0.00000       A     2.62526e-01     6.76654e-02
 h32bf                                  1      0.0000       0.00000       A     5.34630e-02     2.01823e-02
 h33bf                                  1      0.0000       0.00000       A     2.44896e-01     6.81777e-02
 h34bf                                  1      0.0000       0.00000       A     2.62457e-01     6.73477e-02
 h35bf                                  1      0.0000       0.00000       A     2.62458e-01     6.72983e-02
 h36bf                                  1      0.0000       0.00000       A     1.10559e-01     4.02720e-02
 c37bf                                  6      0.0000       0.00000       A     3.39988e-01     4.50899e-01
 cl38bf                                17      0.0000       0.00000       A     3.46613e-01     1.10079e+00
 f39bf                                  9      0.0000       0.00000       A     3.03580e-01     3.48961e-01
 f40bf                                  9      0.0000       0.00000       A     3.03580e-01     3.48961e-01
 f41bf                                  9      0.0000       0.00000       A     3.03580e-01     3.48961e-01

[ moleculetype ]
;name             nrexcl
 30                    3

[ atoms ]
;       nr            type      resi   res      atom      cgnr      charge          mass ; qtot
         1            c0bf         1   UNL        c0         1    -0.15629       12.0110 ; qtot   -0.156
         2            c1bf         1   UNL        c1         2    -0.00736       12.0110 ; qtot   -0.164
         3            c2bf         1   UNL        c2         3    -0.05893       12.0110 ; qtot   -0.223
         4            c3bf         1   UNL        c3         4    -0.18413       12.0110 ; qtot   -0.407
         5            c4bf         1   UNL        c4         5    -0.11236       12.0110 ; qtot   -0.519
         6            c5bf         1   UNL        c5         6     0.17496       12.0110 ; qtot   -0.344
         7            c6bf         1   UNL        c6         7     0.19947       12.0110 ; qtot   -0.145
         8            c7bf         1   UNL        c7         8    -0.27884       12.0110 ; qtot   -0.423
         9            c8bf         1   UNL        c8         9     0.20486       12.0110 ; qtot   -0.219
        10            c9bf         1   UNL        c9        10     0.20056       12.0110 ; qtot   -0.018
        11           c10bf         1   UNL       c10        11    -0.11618       12.0110 ; qtot   -0.134
        12           c11bf         1   UNL       c11        12    -0.09263       12.0110 ; qtot   -0.227
        13           c12bf         1   UNL       c12        13    -0.09263       12.0110 ; qtot   -0.320
        14           o13bf         1   UNL       o13        14    -0.66766       15.9990 ; qtot   -0.987
        15           c14bf         1   UNL       c14        15     0.36320       12.0110 ; qtot   -0.624
        16           c15bf         1   UNL       c15        16     0.15429       12.0110 ; qtot   -0.470
        17           c16bf         1   UNL       c16        17    -0.10467       12.0110 ; qtot   -0.574
        18           c17bf         1   UNL       c17        18    -0.11618       12.0110 ; qtot   -0.691
        19           c18bf         1   UNL       c18        19    -0.12571       12.0110 ; qtot   -0.816
        20           n19bf         1   UNL       n19        20    -0.25580       14.0070 ; qtot   -1.072
        21           n20bf         1   UNL       n20        21    -0.20567       14.0070 ; qtot   -1.278
        22           n21bf         1   UNL       n21        22    -0.91333       14.0070 ; qtot   -2.191
        23           h22bf         1   UNL       h22        23     0.14912        1.0080 ; qtot   -2.042
        24           h23bf         1   UNL       h23        24     0.13025        1.0080 ; qtot   -1.912
        25           h24bf         1   UNL       h24        25     0.13897        1.0080 ; qtot   -1.773
        26           h25bf         1   UNL       h25        26     0.13746        1.0080 ; qtot   -1.635
        27           h26bf         1   UNL       h26        27     0.06305        1.0080 ; qtot   -1.572
        28           h27bf         1   UNL       h27        28     0.06305        1.0080 ; qtot   -1.509
        29           h28bf         1   UNL       h28        29     0.05867        1.0080 ; qtot   -1.450
        30           h29bf         1   UNL       h29        30     0.11526        1.0080 ; qtot   -1.335
        31           h30bf         1   UNL       h30        31     0.11982        1.0080 ; qtot   -1.215
        32           h31bf         1   UNL       h31        32     0.11982        1.0080 ; qtot   -1.096
        33           h32bf         1   UNL       h32        33     0.45685        1.0080 ; qtot   -0.639
        34           h33bf         1   UNL       h33        34     0.04875        1.0080 ; qtot   -0.590
        35           h34bf         1   UNL       h34        35     0.11320        1.0080 ; qtot   -0.477
        36           h35bf         1   UNL       h35        36     0.11526        1.0080 ; qtot   -0.362
        37           h36bf         1   UNL       h36        37     0.48941        1.0080 ; qtot    0.128
        38           c37bf         1   UNL       c37        38     0.34583       12.0110 ; qtot    0.474
        39          cl38bf         1   UNL      cl38        39    -0.17673       35.4530 ; qtot    0.297
        40           f39bf         1   UNL       f39        40    -0.09902       18.9980 ; qtot    0.198
        41           f40bf         1   UNL       f40        41    -0.09902       18.9980 ; qtot    0.099
        42           f41bf         1   UNL       f41        42    -0.09897       18.9980 ; qtot   -0.000

[ bonds ]
;       ai        aj funct               r               k
         1         2     1        0.140342   289358.126172
         1         3     1        0.140487   289192.237109
         1         7     1        0.148488   202417.267139
         2         4     1        0.139814   301123.225684
         2        23     1        0.108349   326017.540479
         3         5     1        0.139262   325536.906543
         3        24     1        0.108467   322821.903223
         4         6     1        0.140558   272817.280762
         4        38     1        0.151442   181503.906787
         5         6     1        0.139769   298908.136816
         5        25     1        0.108442   325182.298242
         6        39     1        0.174948   152338.395532
         7         8     1        0.139559   300421.491455
         7        21     1        0.135358   279280.697607
         8        15     1        0.141258   266082.761963
         8        26     1        0.108255   326816.622168
         9        10     1        0.154143   165303.739185
         9        22     1        0.145622   213577.405298
         9        27     1        0.109387   298720.796582
         9        28     1        0.109387   298720.796582
        10        14     1        0.143225   197413.423779
        10        19     1        0.151713   185206.289673
        10        29     1        0.109771   288384.932471
        11        12     1        0.139818   313076.942285
        11        17     1        0.139926   306828.752197
        11        30     1        0.108636   319342.446533
        12        19     1        0.140197   290142.804932
        12        31     1        0.108628   318095.954687
        13        18     1        0.139818   313076.942285
        13        19     1        0.140197   290142.804932
        13        32     1        0.108628   318095.954687
        14        33     1        0.097193   463188.923242
        15        20     1        0.134854   290538.298145
        15        22     1        0.136981   317088.694482
        16        20     1        0.133560   323063.509814
        16        21     1        0.133228   320729.596777
        16        34     1        0.108885   310708.298779
        17        18     1        0.139926   306828.752197
        17        35     1        0.108629   319751.295654
        18        36     1        0.108636   319342.497607
        22        37     1        0.101243   416870.480371
        38        40     1        0.135537   227098.551367
        38        41     1        0.135537   227098.551367
        38        42     1        0.135537   227098.551367

[ angles ]
;       ai        aj        ak funct           theta             cth
         1         2         4     1      121.662521      657.698165
         1         2        23     1      119.257065      411.472676
         1         3         5     1      120.695679      687.635190
         1         3        24     1      119.811569      415.002128
         1         7         8     1      122.424461      445.053528
         1         7        21     1      116.556763      546.665367
         2         1         3     1      118.381859      652.658416
         2         1         7     1      120.594460      491.273813
         2         4         6     1      118.889450      623.872731
         2         4        38     1      119.095901      493.802593
         3         1         7     1      120.874611      538.613197
         3         5         6     1      120.055984      653.478413
         3         5        25     1      120.507141      427.754594
         4         2        23     1      118.689453      399.773456
         4         6         5     1      120.078773      606.668125
         4         6        39     1      122.229836      364.753811
         4        38        40     1      111.788757      590.147531
         4        38        41     1      111.788757      590.147531
         4        38        42     1      111.788757      590.147531
         5         3        24     1      119.452316      415.204542
         5         6        39     1      117.628151      385.642720
         6         4        38     1      121.880714      670.220542
         6         5        25     1      119.413857      426.488432
         7         8        15     1      117.392197      949.818053
         7         8        26     1      121.756027      401.353405
         7        21        16     1      116.285416      849.656849
         8         7        21     1      120.787209      688.851204
         8        15        20     1      121.038940      696.522551
         8        15        22     1      122.015884      512.420678
         9        10        14     1      108.305847      587.312656
         9        10        19     1      111.358849      527.467973
         9        10        29     1      107.666794      471.669740
         9        22        15     1      123.221107      485.492434
         9        22        37     1      116.156227      432.193774
        10         9        22     1      112.253860      504.288609
        10         9        27     1      109.157486      446.524274
        10         9        28     1      109.157486      446.524274
        10        14        33     1      107.484726      573.087082
        10        19        12     1      120.512955      505.748055
        10        19        13     1      120.512955      505.748055
        11        12        19     1      120.485474      710.265794
        11        12        31     1      119.930954      427.353566
        11        17        18     1      119.633766      692.466301
        11        17        35     1      120.205627      430.895627
        12        11        17     1      120.129868      704.647119
        12        11        30     1      119.859192      430.780838
        12        19        13     1      118.926392      685.330275
        13        18        17     1      120.129868      704.647119
        13        18        36     1      119.859192      430.780806
        14        10        19     1      111.885483      728.778347
        14        10        29     1      108.507423      442.662201
        15         8        26     1      121.145187      423.807674
        15        20        16     1      115.971237      945.857949
        15        22        37     1      114.810379      471.231523
        17        11        30     1      120.073341      430.842957
        17        18        36     1      120.073341      430.842957
        18        13        19     1      120.485474      710.265794
        18        13        32     1      119.930954      427.353566
        18        17        35     1      120.205627      430.895627
        19        10        29     1      108.812782      462.834634
        19        12        31     1      119.638260      393.234998
        19        13        32     1      119.638260      393.234998
        20        15        22     1      116.914719      649.460340
        20        16        21     1      127.790550      717.320739
        20        16        34     1      115.851562      386.387350
        21        16        34     1      116.145645      398.875284
        22         9        27     1      109.378807      483.628736
        22         9        28     1      109.378807      483.628736
        27         9        28     1      107.690613      348.271586
        40        38        41     1      106.870094      699.072049
        40        38        42     1      106.870094      699.072049
        41        38        42     1      106.870094      699.072049

[ dihedrals ] ; propers for gromacs 4.5 or higher, use funct 9
;       ai        aj        ak        al funct           phase               k        pn
         1         2         4         6     9        0.000000       -0.197816         1
         1         2         4         6     9      180.000000       18.845375         2
         1         2         4         6     9        0.000000       -1.492611         3
         1         2         4         6     9      180.000000       -0.518145         4
         1         2         4        38     9        0.000000        0.244847         1
         1         2         4        38     9      180.000000       16.044316         2
         1         2         4        38     9        0.000000       -0.035484         3
         1         2         4        38     9      180.000000       -0.421650         4
         1         3         5         6     9        0.000000       -0.087321         1
         1         3         5         6     9      180.000000       19.036977         2
         1         3         5         6     9        0.000000       -1.596962         3
         1         3         5         6     9      180.000000       -0.412440         4
         1         3         5        25     9        0.000000       -0.045419         1
         1         3         5        25     9      180.000000       14.893088         2
         1         3         5        25     9        0.000000       -0.589428         3
         1         3         5        25     9      180.000000        0.108871         4
         1         7         8        15     9        0.000000        0.433161         1
         1         7         8        15     9      180.000000       15.942716         2
         1         7         8        15     9        0.000000       -0.070059         3
         1         7         8        15     9      180.000000       -0.768252         4
         1         7         8        26     9        0.000000       -0.113909         1
         1         7         8        26     9      180.000000       13.298942         2
         1         7         8        26     9        0.000000       -0.180111         3
         1         7         8        26     9      180.000000        0.031834         4
         1         7        21        16     9        0.000000        0.380539         1
         1         7        21        16     9      180.000000       18.632497         2
         1         7        21        16     9        0.000000        0.398023         3
         1         7        21        16     9      180.000000       -0.763761         4
         2         1         3         5     9        0.000000       -0.171633         1
         2         1         3         5     9      180.000000       17.976006         2
         2         1         3         5     9        0.000000       -1.355021         3
         2         1         3         5     9      180.000000       -0.339618         4
         2         1         3        24     9        0.000000       -0.109731         1
         2         1         3        24     9      180.000000       13.962351         2
         2         1         3        24     9        0.000000       -0.634105         3
         2         1         3        24     9      180.000000        0.090959         4
         2         1         7         8     9        0.000000        0.058702         1
         2         1         7         8     9      180.000000        3.871402         2
         2         1         7         8     9        0.000000        0.100178         3
         2         1         7         8     9      180.000000       -0.118681         4
         2         1         7        21     9        0.000000       -0.443548         1
         2         1         7        21     9      180.000000        4.889410         2
         2         1         7        21     9        0.000000        0.028427         3
         2         1         7        21     9      180.000000        0.091117         4
         2         4         6         5     9        0.000000       -0.053104         1
         2         4         6         5     9      180.000000       16.735893         2
         2         4         6         5     9        0.000000       -0.914763         3
         2         4         6         5     9      180.000000       -0.377935         4
         2         4         6        39     9        0.000000        0.408583         1
         2         4         6        39     9      180.000000       18.147891         2
         2         4         6        39     9        0.000000        0.513449         3
         2         4         6        39     9      180.000000       -0.737719         4
         2         4        38        40     9        0.000000        0.007269         1
         2         4        38        40     9      180.000000        0.115148         2
         2         4        38        40     9        0.000000       -0.384931         3
         2         4        38        40     9      180.000000        0.023964         4
         2         4        38        41     9        0.000000        0.007269         1
         2         4        38        41     9      180.000000        0.115148         2
         2         4        38        41     9        0.000000       -0.384931         3
         2         4        38        41     9      180.000000        0.023964         4
         2         4        38        42     9        0.000000        0.007269         1
         2         4        38        42     9      180.000000        0.115148         2
         2         4        38        42     9        0.000000       -0.384931         3
         2         4        38        42     9      180.000000        0.023964         4
         3         1         2         4     9        0.000000       -0.076580         1
         3         1         2         4     9      180.000000       18.045178         2
         3         1         2         4     9        0.000000       -1.578867         3
         3         1         2         4     9      180.000000       -0.434477         4
         3         1         2        23     9        0.000000       -0.017919         1
         3         1         2        23     9      180.000000       13.786985         2
         3         1         2        23     9        0.000000       -0.655967         3
         3         1         2        23     9      180.000000        0.097377         4
         3         1         7         8     9        0.000000        0.104321         1
         3         1         7         8     9      180.000000        3.810331         2
         3         1         7         8     9        0.000000        0.121679         3
         3         1         7         8     9      180.000000       -0.128759         4
         3         1         7        21     9        0.000000       -0.371238         1
         3         1         7        21     9      180.000000        4.852095         2
         3         1         7        21     9        0.000000        0.088455         3
         3         1         7        21     9      180.000000        0.067406         4
         3         5         6         4     9        0.000000       -0.004659         1
         3         5         6         4     9      180.000000       17.474198         2
         3         5         6         4     9        0.000000       -1.353007         3
         3         5         6         4     9      180.000000       -0.435287         4
         3         5         6        39     9        0.000000        0.396886         1
         3         5         6        39     9      180.000000       19.314663         2
         3         5         6        39     9        0.000000        0.426974         3
         3         5         6        39     9      180.000000       -0.580119         4
         4         2         1         7     9        0.000000       -0.138011         1
         4         2         1         7     9      180.000000       15.342480         2
         4         2         1         7     9        0.000000       -0.457456         3
         4         2         1         7     9      180.000000       -0.478094         4
         4         6         5        25     9        0.000000        0.014065         1
         4         6         5        25     9      180.000000       13.747094         2
         4         6         5        25     9        0.000000       -0.531452         3
         4         6         5        25     9      180.000000        0.045311         4
         5         3         1         7     9        0.000000       -0.036547         1
         5         3         1         7     9      180.000000       14.990882         2
         5         3         1         7     9        0.000000       -0.397021         3
         5         3         1         7     9      180.000000       -0.271762         4
         5         6         4        38     9        0.000000       -0.042005         1
         5         6         4        38     9      180.000000       13.272684         2
         5         6         4        38     9        0.000000       -0.041380         3
         5         6         4        38     9      180.000000       -0.289732         4
         6         4         2        23     9        0.000000        0.119319         1
         6         4         2        23     9      180.000000       14.239921         2
         6         4         2        23     9        0.000000       -0.435854         3
         6         4         2        23     9      180.000000        0.208072         4
         6         4        38        40     9        0.000000        0.345186         1
         6         4        38        40     9      180.000000        0.033711         2
         6         4        38        40     9        0.000000        0.503766         3
         6         4        38        40     9      180.000000       -0.030150         4
         6         4        38        41     9        0.000000        0.345186         1
         6         4        38        41     9      180.000000        0.033711         2
         6         4        38        41     9        0.000000        0.503766         3
         6         4        38        41     9      180.000000       -0.030150         4
         6         4        38        42     9        0.000000        0.345186         1
         6         4        38        42     9      180.000000        0.033711         2
         6         4        38        42     9        0.000000        0.503766         3
         6         4        38        42     9      180.000000       -0.030150         4
         6         5         3        24     9        0.000000        0.059578         1
         6         5         3        24     9      180.000000       14.766692         2
         6         5         3        24     9        0.000000       -0.543225         3
         6         5         3        24     9      180.000000        0.174136         4
         7         1         2        23     9        0.000000       -0.189858         1
         7         1         2        23     9      180.000000       12.471060         2
         7         1         2        23     9        0.000000       -0.389906         3
         7         1         2        23     9      180.000000        0.121775         4
         7         1         3        24     9        0.000000       -0.124329         1
         7         1         3        24     9      180.000000       12.502151         2
         7         1         3        24     9        0.000000       -0.383351         3
         7         1         3        24     9      180.000000        0.131451         4
         7         8        15        20     9        0.000000       -0.124827         1
         7         8        15        20     9      180.000000       10.631724         2
         7         8        15        20     9        0.000000        0.455041         3
         7         8        15        20     9      180.000000       -0.512060         4
         7         8        15        22     9        0.000000        0.228969         1
         7         8        15        22     9      180.000000       14.035214         2
         7         8        15        22     9        0.000000        0.187306         3
         7         8        15        22     9      180.000000       -0.766200         4
         7        21        16        20     9        0.000000       -0.256847         1
         7        21        16        20     9      180.000000       19.143425         2
         7        21        16        20     9        0.000000        0.316034         3
         7        21        16        20     9      180.000000       -0.692076         4
         7        21        16        34     9        0.000000        0.582439         1
         7        21        16        34     9      180.000000       17.773988         2
         7        21        16        34     9        0.000000        0.148914         3
         7        21        16        34     9      180.000000       -0.515954         4
         8         7        21        16     9        0.000000       -0.288686         1
         8         7        21        16     9      180.000000       16.788239         2
         8         7        21        16     9        0.000000       -0.704492         3
         8         7        21        16     9      180.000000       -0.195062         4
         8        15        20        16     9        0.000000       -0.022736         1
         8        15        20        16     9      180.000000       16.992644         2
         8        15        20        16     9        0.000000       -0.224301         3
         8        15        20        16     9      180.000000       -0.568524         4
         8        15        22         9     9        0.000000        5.224768         1
         8        15        22         9     9      180.000000        6.917556         2
         8        15        22         9     9        0.000000       -0.057179         3
         8        15        22         9     9      180.000000       -0.618689         4
         8        15        22        37     9        0.000000        0.320716         1
         8        15        22        37     9      180.000000        8.635129         2
         8        15        22        37     9        0.000000       -0.410224         3
         8        15        22        37     9      180.000000       -0.398028         4
         9        10        14        33     9        0.000000        4.541259         1
         9        10        14        33     9      180.000000       -2.198736         2
         9        10        14        33     9        0.000000        1.415205         3
         9        10        14        33     9      180.000000        0.029450         4
         9        10        19        12     9        0.000000       -0.398743         1
         9        10        19        12     9      180.000000        0.451216         2
         9        10        19        12     9        0.000000        0.124295         3
         9        10        19        12     9      180.000000        0.133514         4
         9        10        19        13     9        0.000000       -0.398743         1
         9        10        19        13     9      180.000000        0.451216         2
         9        10        19        13     9        0.000000        0.124295         3
         9        10        19        13     9      180.000000        0.133514         4
         9        22        15        20     9        0.000000       -1.077598         1
         9        22        15        20     9      180.000000        7.473703         2
         9        22        15        20     9        0.000000        0.573233         3
         9        22        15        20     9      180.000000       -0.794596         4
        10         9        22        15     9        0.000000       -0.112643         1
        10         9        22        15     9      180.000000       -1.570097         2
        10         9        22        15     9        0.000000        0.300213         3
        10         9        22        15     9      180.000000        0.098634         4
        10         9        22        37     9        0.000000        0.735822         1
        10         9        22        37     9      180.000000       -2.582116         2
        10         9        22        37     9        0.000000        0.347206         3
        10         9        22        37     9      180.000000       -0.105654         4
        10        19        12        11     9        0.000000        0.111760         1
        10        19        12        11     9      180.000000       15.055540         2
        10        19        12        11     9        0.000000       -0.201705         3
        10        19        12        11     9      180.000000       -0.170563         4
        10        19        12        31     9        0.000000       -0.124557         1
        10        19        12        31     9      180.000000       12.506757         2
        10        19        12        31     9        0.000000       -0.366252         3
        10        19        12        31     9      180.000000        0.214424         4
        10        19        13        18     9        0.000000        0.111760         1
        10        19        13        18     9      180.000000       15.055540         2
        10        19        13        18     9        0.000000       -0.201705         3
        10        19        13        18     9      180.000000       -0.170563         4
        10        19        13        32     9        0.000000       -0.124557         1
        10        19        13        32     9      180.000000       12.506757         2
        10        19        13        32     9        0.000000       -0.366252         3
        10        19        13        32     9      180.000000        0.214424         4
        11        12        19        13     9        0.000000       -0.086434         1
        11        12        19        13     9      180.000000       19.280115         2
        11        12        19        13     9        0.000000       -1.377217         3
        11        12        19        13     9      180.000000       -0.484255         4
        11        17        18        13     9        0.000000       -0.065558         1
        11        17        18        13     9      180.000000       18.692617         2
        11        17        18        13     9        0.000000       -1.640948         3
        11        17        18        13     9      180.000000       -0.389537         4
        11        17        18        36     9        0.000000       -0.009820         1
        11        17        18        36     9      180.000000       14.300739         2
        11        17        18        36     9        0.000000       -0.816641         3
        11        17        18        36     9      180.000000        0.159846         4
        12        11        17        18     9        0.000000       -0.065558         1
        12        11        17        18     9      180.000000       18.692617         2
        12        11        17        18     9        0.000000       -1.640948         3
        12        11        17        18     9      180.000000       -0.389537         4
        12        11        17        35     9        0.000000        0.028863         1
        12        11        17        35     9      180.000000       14.422143         2
        12        11        17        35     9        0.000000       -0.784775         3
        12        11        17        35     9      180.000000        0.125003         4
        12        19        10        14     9        0.000000        0.158143         1
        12        19        10        14     9      180.000000        1.522775         2
        12        19        10        14     9        0.000000        0.093469         3
        12        19        10        14     9      180.000000        0.103875         4
        12        19        10        29     9        0.000000        0.061136         1
        12        19        10        29     9      180.000000       -0.249343         2
        12        19        10        29     9        0.000000        0.070958         3
        12        19        10        29     9      180.000000        0.070292         4
        12        19        13        18     9        0.000000       -0.086434         1
        12        19        13        18     9      180.000000       19.280115         2
        12        19        13        18     9        0.000000       -1.377217         3
        12        19        13        18     9      180.000000       -0.484255         4
        12        19        13        32     9        0.000000        0.029677         1
        12        19        13        32     9      180.000000       14.471531         2
        12        19        13        32     9        0.000000       -0.566133         3
        12        19        13        32     9      180.000000        0.014589         4
        13        18        17        35     9        0.000000        0.028863         1
        13        18        17        35     9      180.000000       14.422143         2
        13        18        17        35     9        0.000000       -0.784775         3
        13        18        17        35     9      180.000000        0.125003         4
        13        19        10        14     9        0.000000        0.158143         1
        13        19        10        14     9      180.000000        1.522775         2
        13        19        10        14     9        0.000000        0.093469         3
        13        19        10        14     9      180.000000        0.103875         4
        13        19        10        29     9        0.000000        0.061136         1
        13        19        10        29     9      180.000000       -0.249343         2
        13        19        10        29     9        0.000000        0.070958         3
        13        19        10        29     9      180.000000        0.070292         4
        13        19        12        31     9        0.000000        0.029677         1
        13        19        12        31     9      180.000000       14.471531         2
        13        19        12        31     9        0.000000       -0.566133         3
        13        19        12        31     9      180.000000        0.014589         4
        14        10         9        22     9        0.000000        1.532930         1
        14        10         9        22     9      180.000000       -1.493962         2
        14        10         9        22     9        0.000000        0.714582         3
        14        10         9        22     9      180.000000       -0.146386         4
        14        10         9        27     9        0.000000        0.020955         1
        14        10         9        27     9      180.000000        0.115482         2
        14        10         9        27     9        0.000000        0.678853         3
        14        10         9        27     9      180.000000        0.038725         4
        14        10         9        28     9        0.000000        0.020955         1
        14        10         9        28     9      180.000000        0.115482         2
        14        10         9        28     9        0.000000        0.678853         3
        14        10         9        28     9      180.000000        0.038725         4
        15         8         7        21     9        0.000000       -0.217915         1
        15         8         7        21     9      180.000000       14.729533         2
        15         8         7        21     9        0.000000       -0.431062         3
        15         8         7        21     9      180.000000       -0.576251         4
        15        20        16        21     9        0.000000       -0.320119         1
        15        20        16        21     9      180.000000       16.475745         2
        15        20        16        21     9        0.000000        0.183991         3
        15        20        16        21     9      180.000000       -0.393429         4
        15        20        16        34     9        0.000000        0.459937         1
        15        20        16        34     9      180.000000       16.482063         2
        15        20        16        34     9        0.000000        0.076258         3
        15        20        16        34     9      180.000000       -0.344674         4
        15        22         9        27     9        0.000000       -0.189083         1
        15        22         9        27     9      180.000000        0.185758         2
        15        22         9        27     9        0.000000        0.558846         3
        15        22         9        27     9      180.000000        0.044537         4
        15        22         9        28     9        0.000000       -0.189083         1
        15        22         9        28     9      180.000000        0.185758         2
        15        22         9        28     9        0.000000        0.558846         3
        15        22         9        28     9      180.000000        0.044537         4
        16        20        15        22     9        0.000000        0.461674         1
        16        20        15        22     9      180.000000       20.541055         2
        16        20        15        22     9        0.000000        0.317682         3
        16        20        15        22     9      180.000000       -0.820159         4
        17        11        12        19     9        0.000000        0.054632         1
        17        11        12        19     9      180.000000       18.589551         2
        17        11        12        19     9        0.000000       -1.606416         3
        17        11        12        19     9      180.000000       -0.399485         4
        17        11        12        31     9        0.000000        0.076291         1
        17        11        12        31     9      180.000000       14.619449         2
        17        11        12        31     9        0.000000       -0.694646         3
        17        11        12        31     9      180.000000        0.138086         4
        17        18        13        19     9        0.000000        0.054632         1
        17        18        13        19     9      180.000000       18.589551         2
        17        18        13        19     9        0.000000       -1.606416         3
        17        18        13        19     9      180.000000       -0.399485         4
        17        18        13        32     9        0.000000        0.076291         1
        17        18        13        32     9      180.000000       14.619449         2
        17        18        13        32     9        0.000000       -0.694646         3
        17        18        13        32     9      180.000000        0.138086         4
        18        17        11        30     9        0.000000       -0.009821         1
        18        17        11        30     9      180.000000       14.300738         2
        18        17        11        30     9        0.000000       -0.816642         3
        18        17        11        30     9      180.000000        0.159846         4
        19        10         9        22     9        0.000000       -1.777650         1
        19        10         9        22     9      180.000000        0.755969         2
        19        10         9        22     9        0.000000        0.910026         3
        19        10         9        22     9      180.000000       -0.100294         4
        19        10         9        27     9        0.000000        0.025966         1
        19        10         9        27     9      180.000000        0.106467         2
        19        10         9        27     9        0.000000        0.827034         3
        19        10         9        27     9      180.000000        0.014871         4
        19        10         9        28     9        0.000000        0.025966         1
        19        10         9        28     9      180.000000        0.106467         2
        19        10         9        28     9        0.000000        0.827034         3
        19        10         9        28     9      180.000000        0.014871         4
        19        10        14        33     9        0.000000        1.190209         1
        19        10        14        33     9      180.000000        0.844003         2
        19        10        14        33     9        0.000000        0.980359         3
        19        10        14        33     9      180.000000       -0.135753         4
        19        12        11        30     9        0.000000        0.038018         1
        19        12        11        30     9      180.000000       14.781682         2
        19        12        11        30     9        0.000000       -0.723395         3
        19        12        11        30     9      180.000000        0.097778         4
        19        13        18        36     9        0.000000        0.038019         1
        19        13        18        36     9      180.000000       14.781683         2
        19        13        18        36     9        0.000000       -0.723395         3
        19        13        18        36     9      180.000000        0.097778         4
        20        15         8        26     9        0.000000       -0.258484         1
        20        15         8        26     9      180.000000       11.906267         2
        20        15         8        26     9        0.000000       -0.274305         3
        20        15         8        26     9      180.000000       -0.112986         4
        20        15        22        37     9        0.000000       -0.835638         1
        20        15        22        37     9      180.000000       10.136196         2
        20        15        22        37     9        0.000000       -0.035919         3
        20        15        22        37     9      180.000000       -0.458821         4
        21         7         8        26     9        0.000000       -0.190708         1
        21         7         8        26     9      180.000000       13.476901         2
        21         7         8        26     9        0.000000       -0.201894         3
        21         7         8        26     9      180.000000       -0.060460         4
        22         9        10        29     9        0.000000        0.514712         1
        22         9        10        29     9      180.000000       -0.288521         2
        22         9        10        29     9        0.000000        0.822223         3
        22         9        10        29     9      180.000000        0.051792         4
        22        15         8        26     9        0.000000       -0.215869         1
        22        15         8        26     9      180.000000       12.333077         2
        22        15         8        26     9        0.000000       -0.135218         3
        22        15         8        26     9      180.000000       -0.050610         4
        23         2         4        38     9        0.000000       -0.011952         1
        23         2         4        38     9      180.000000       12.734005         2
        23         2         4        38     9        0.000000       -0.300968         3
        23         2         4        38     9      180.000000        0.121848         4
        24         3         5        25     9        0.000000       -0.270612         1
        24         3         5        25     9      180.000000       12.146393         2
        24         3         5        25     9        0.000000       -0.875990         3
        24         3         5        25     9      180.000000        0.391732         4
        25         5         6        39     9        0.000000        0.055402         1
        25         5         6        39     9      180.000000       14.048879         2
        25         5         6        39     9        0.000000       -0.086115         3
        25         5         6        39     9      180.000000        0.241451         4
        27         9        10        29     9        0.000000       -0.142542         1
        27         9        10        29     9      180.000000        0.095326         2
        27         9        10        29     9        0.000000        0.735648         3
        27         9        10        29     9      180.000000       -0.028866         4
        27         9        22        37     9        0.000000       -0.246940         1
        27         9        22        37     9      180.000000        0.072497         2
        27         9        22        37     9        0.000000        0.555471         3
        27         9        22        37     9      180.000000       -0.006327         4
        28         9        10        29     9        0.000000       -0.142542         1
        28         9        10        29     9      180.000000        0.095326         2
        28         9        10        29     9        0.000000        0.735648         3
        28         9        10        29     9      180.000000       -0.028866         4
        28         9        22        37     9        0.000000       -0.246940         1
        28         9        22        37     9      180.000000        0.072497         2
        28         9        22        37     9        0.000000        0.555471         3
        28         9        22        37     9      180.000000       -0.006327         4
        29        10        14        33     9        0.000000       -0.800852         1
        29        10        14        33     9      180.000000        0.505532         2
        29        10        14        33     9        0.000000        0.806455         3
        29        10        14        33     9      180.000000        0.051913         4
        30        11        12        31     9        0.000000       -0.100728         1
        30        11        12        31     9      180.000000       11.878502         2
        30        11        12        31     9        0.000000       -0.707350         3
        30        11        12        31     9      180.000000        0.299415         4
        30        11        17        35     9        0.000000       -0.090882         1
        30        11        17        35     9      180.000000       11.539986         2
        30        11        17        35     9        0.000000       -0.600996         3
        30        11        17        35     9      180.000000        0.271440         4
        32        13        18        36     9        0.000000       -0.100728         1
        32        13        18        36     9      180.000000       11.878502         2
        32        13        18        36     9        0.000000       -0.707350         3
        32        13        18        36     9      180.000000        0.299414         4
        35        17        18        36     9        0.000000       -0.090881         1
        35        17        18        36     9      180.000000       11.539987         2
        35        17        18        36     9        0.000000       -0.600996         3
        35        17        18        36     9      180.000000        0.271440         4
        38         4         6        39     9        0.000000        0.099439         1
        38         4         6        39     9      180.000000       14.022190         2
        38         4         6        39     9        0.000000        0.300218         3
        38         4         6        39     9      180.000000       -0.455600         4

[ dihedrals ] ; impropers
;       ai        aj        ak        al funct           phase               k        pn
         7         1         8        21     4      180.000000       10.343202         2
         7         8        21         1     4      180.000000       10.343202         2
         7        21         1         8     4      180.000000       10.343202         2
        11        12        17        30     4      180.000000        0.055645         2
        11        17        30        12     4      180.000000        0.055645         2
        11        30        12        17     4      180.000000        0.055645         2
        12        11        19        31     4      180.000000        0.085002         2
        12        19        31        11     4      180.000000        0.085002         2
        12        31        11        19     4      180.000000        0.085002         2
        13        18        19        32     4      180.000000        0.085002         2
        13        19        32        18     4      180.000000        0.085002         2
        13        32        18        19     4      180.000000        0.085002         2
        15         8        20        22     4      180.000000        5.688009         2
        15        20        22         8     4      180.000000        5.688009         2
        15        22         8        20     4      180.000000        5.688009         2
        16        20        21        34     4      180.000000       26.195376         2
        16        21        34        20     4      180.000000       26.195376         2
        16        34        20        21     4      180.000000       26.195376         2
        17        11        18        35     4      180.000000        0.298825         2
        17        18        35        11     4      180.000000        0.298825         2
        17        35        11        18     4      180.000000        0.298825         2
        18        13        17        36     4      180.000000        0.055645         2
        18        17        36        13     4      180.000000        0.055645         2
        18        36        13        17     4      180.000000        0.055645         2

[ pairs ]
;       ai        aj funct
         1         6     1
         1        15     1
         1        16     1
         1        25     1
         1        26     1
         1        38     1
         2         5     1
         2         8     1
         2        21     1
         2        24     1
         2        39     1
         2        40     1
         2        41     1
         2        42     1
         3         4     1
         3         8     1
         3        21     1
         3        23     1
         3        39     1
         4         7     1
         4        25     1
         5         7     1
         5        38     1
         6        23     1
         6        24     1
         6        40     1
         6        41     1
         6        42     1
         7        20     1
         7        22     1
         7        23     1
         7        24     1
         7        34     1
         8         9     1
         8        16     1
         8        37     1
         9        12     1
         9        13     1
         9        20     1
         9        33     1
        10        11     1
        10        15     1
        10        18     1
        10        31     1
        10        32     1
        10        37     1
        11        13     1
        11        36     1
        12        14     1
        12        18     1
        12        29     1
        12        32     1
        12        35     1
        13        14     1
        13        29     1
        13        31     1
        13        35     1
        14        22     1
        14        27     1
        14        28     1
        15        21     1
        15        27     1
        15        28     1
        15        34     1
        16        22     1
        17        19     1
        17        31     1
        17        32     1
        18        30     1
        19        22     1
        19        27     1
        19        28     1
        19        30     1
        19        33     1
        19        36     1
        20        26     1
        20        37     1
        21        26     1
        22        26     1
        22        29     1
        23        38     1
        24        25     1
        25        39     1
        27        29     1
        27        37     1
        28        29     1
        28        37     1
        29        33     1
        30        31     1
        30        35     1
        32        36     1
        35        36     1
        38        39     1
