; ITP file created by ByteFF-ML, 2025-12-06 07:59:13.236906

[ atomtypes ]
;name           bonded.type        at.num        mass        charge   ptype           sigma         epsilon
 c0bf                                   6      0.0000       0.00000       A     3.31350e-01     4.12099e-01
 c1bf                                   6      0.0000       0.00000       A     3.31415e-01     4.13206e-01
 c2bf                                   6      0.0000       0.00000       A     3.31440e-01     4.11950e-01
 c3bf                                   6      0.0000       0.00000       A     3.31510e-01     4.13345e-01
 c4bf                                   6      0.0000       0.00000       A     3.31479e-01     4.13647e-01
 c5bf                                   6      0.0000       0.00000       A     3.31385e-01     4.12905e-01
 c6bf                                   6      0.0000       0.00000       A     3.31608e-01     4.12573e-01
 c7bf                                   6      0.0000       0.00000       A     3.31457e-01     4.14170e-01
 c8bf                                   6      0.0000       0.00000       A     3.39913e-01     4.51981e-01
 c9bf                                   6      0.0000       0.00000       A     3.39831e-01     4.52495e-01
 c10bf                                  6      0.0000       0.00000       A     3.31494e-01     4.13037e-01
 c11bf                                  6      0.0000       0.00000       A     3.31504e-01     4.12329e-01
 c12bf                                  6      0.0000       0.00000       A     3.31479e-01     4.12566e-01
 o13bf                                  8      0.0000       0.00000       A     3.24410e-01     3.85609e-01
 c14bf                                  6      0.0000       0.00000       A     3.31421e-01     4.11620e-01
 c15bf                                  6      0.0000       0.00000       A     3.31451e-01     4.12938e-01
 c16bf                                  6      0.0000       0.00000       A     3.31490e-01     4.12204e-01
 c17bf                                  6      0.0000       0.00000       A     3.31524e-01     4.13513e-01
 c18bf                                  6      0.0000       0.00000       A     3.31467e-01     4.12298e-01
 n19bf                                  7      0.0000       0.00000       A     3.38507e-01     3.93685e-01
 n20bf                                  7      0.0000       0.00000       A     3.38371e-01     3.91610e-01
 n21bf                                  7      0.0000       0.00000       A     3.27812e-01     6.42771e-01
 h22bf                                  1      0.0000       0.00000       A     2.62479e-01     6.74084e-02
 h23bf                                  1      0.0000       0.00000       A     2.62480e-01     6.74052e-02
 h24bf                                  1      0.0000       0.00000       A     2.62540e-01     6.75217e-02
 h25bf                                  1      0.0000       0.00000       A     2.62601e-01     6.80516e-02
 h26bf                                  1      0.0000       0.00000       A     2.42325e-01     8.87095e-02
 h27bf                                  1      0.0000       0.00000       A     2.42325e-01     8.87095e-02
 h28bf                                  1      0.0000       0.00000       A     2.41980e-01     8.63521e-02
 h29bf                                  1      0.0000       0.00000       A     2.62482e-01     6.70748e-02
 h30bf                                  1      0.0000       0.00000       A     2.62526e-01     6.76654e-02
 h31bf                                  1      0.0000       0.00000       A     2.62445e-01     6.72025e-02
 h32bf                                  1      0.0000       0.00000       A     5.34630e-02     2.01823e-02
 h33bf                                  1      0.0000       0.00000       A     2.44896e-01     6.81777e-02
 h34bf                                  1      0.0000       0.00000       A     2.62514e-01     6.71323e-02
 f35bf                                  9      0.0000       0.00000       A     3.03422e-01     3.47622e-01
 h36bf                                  1      0.0000       0.00000       A     1.10559e-01     4.02720e-02
 cl37bf                                17      0.0000       0.00000       A     3.46637e-01     1.09993e+00
 c38bf                                  6      0.0000       0.00000       A     3.39981e-01     4.51025e-01
 f39bf                                  9      0.0000       0.00000       A     3.03580e-01     3.48961e-01
 f40bf                                  9      0.0000       0.00000       A     3.03580e-01     3.48961e-01
 f41bf                                  9      0.0000       0.00000       A     3.03580e-01     3.48961e-01

[ moleculetype ]
;name             nrexcl
 33_Saha_2018          3

[ atoms ]
;       nr            type      resi   res      atom      cgnr      charge          mass ; qtot
         1            c0bf         1   UNL        c0         1    -0.13875       12.0110 ; qtot   -0.139
         2            c1bf         1   UNL        c1         2    -0.07564       12.0110 ; qtot   -0.214
         3            c2bf         1   UNL        c2         3    -0.07862       12.0110 ; qtot   -0.293
         4            c3bf         1   UNL        c3         4     0.17109       12.0110 ; qtot   -0.122
         5            c4bf         1   UNL        c4         5    -0.05457       12.0110 ; qtot   -0.176
         6            c5bf         1   UNL        c5         6    -0.17726       12.0110 ; qtot   -0.354
         7            c6bf         1   UNL        c6         7     0.20404       12.0110 ; qtot   -0.150
         8            c7bf         1   UNL        c7         8    -0.27507       12.0110 ; qtot   -0.425
         9            c8bf         1   UNL        c8         9     0.20487       12.0110 ; qtot   -0.220
        10            c9bf         1   UNL        c9        10     0.20034       12.0110 ; qtot   -0.020
        11           c10bf         1   UNL       c10        11    -0.08823       12.0110 ; qtot   -0.108
        12           c11bf         1   UNL       c11        12    -0.10422       12.0110 ; qtot   -0.212
        13           c12bf         1   UNL       c12        13    -0.13206       12.0110 ; qtot   -0.344
        14           o13bf         1   UNL       o13        14    -0.66735       15.9990 ; qtot   -1.011
        15           c14bf         1   UNL       c14        15     0.36320       12.0110 ; qtot   -0.648
        16           c15bf         1   UNL       c15        16     0.15429       12.0110 ; qtot   -0.494
        17           c16bf         1   UNL       c16        17    -0.14202       12.0110 ; qtot   -0.636
        18           c17bf         1   UNL       c17        18     0.15769       12.0110 ; qtot   -0.478
        19           c18bf         1   UNL       c18        19    -0.09699       12.0110 ; qtot   -0.575
        20           n19bf         1   UNL       n19        20    -0.25580       14.0070 ; qtot   -0.831
        21           n20bf         1   UNL       n20        21    -0.20337       14.0070 ; qtot   -1.034
        22           n21bf         1   UNL       n21        22    -0.91333       14.0070 ; qtot   -1.948
        23           h22bf         1   UNL       h22        23     0.14540        1.0080 ; qtot   -1.802
        24           h23bf         1   UNL       h23        24     0.13518        1.0080 ; qtot   -1.667
        25           h24bf         1   UNL       h24        25     0.14067        1.0080 ; qtot   -1.527
        26           h25bf         1   UNL       h25        26     0.13746        1.0080 ; qtot   -1.389
        27           h26bf         1   UNL       h26        27     0.06305        1.0080 ; qtot   -1.326
        28           h27bf         1   UNL       h27        28     0.06305        1.0080 ; qtot   -1.263
        29           h28bf         1   UNL       h28        29     0.05983        1.0080 ; qtot   -1.203
        30           h29bf         1   UNL       h29        30     0.12116        1.0080 ; qtot   -1.082
        31           h30bf         1   UNL       h30        31     0.12391        1.0080 ; qtot   -0.958
        32           h31bf         1   UNL       h31        32     0.14029        1.0080 ; qtot   -0.818
        33           h32bf         1   UNL       h32        33     0.45685        1.0080 ; qtot   -0.361
        34           h33bf         1   UNL       h33        34     0.04875        1.0080 ; qtot   -0.312
        35           h34bf         1   UNL       h34        35     0.13453        1.0080 ; qtot   -0.178
        36           f35bf         1   UNL       f35        36    -0.17996       18.9980 ; qtot   -0.358
        37           h36bf         1   UNL       h36        37     0.48941        1.0080 ; qtot    0.132
        38          cl37bf         1   UNL      cl37        38    -0.17956       35.4530 ; qtot   -0.048
        39           c38bf         1   UNL       c38        39     0.34513       12.0110 ; qtot    0.297
        40           f39bf         1   UNL       f39        40    -0.09915       18.9980 ; qtot    0.198
        41           f40bf         1   UNL       f40        41    -0.09915       18.9980 ; qtot    0.099
        42           f41bf         1   UNL       f41        42    -0.09909       18.9980 ; qtot   -0.000

[ bonds ]
;       ai        aj funct               r               k
         1         2     1        0.140316   291903.384326
         1         3     1        0.140410   291107.392627
         1         7     1        0.148494   202393.313330
         2         4     1        0.139378   309556.702832
         2        23     1        0.108337   327037.594775
         3         5     1        0.139218   327434.364844
         3        24     1        0.108413   324803.276465
         4         6     1        0.140556   269846.344531
         4        38     1        0.175231   149404.577490
         5         6     1        0.140052   290963.567627
         5        25     1        0.108427   325024.913037
         6        39     1        0.151422   181633.980054
         7         8     1        0.139432   303216.604687
         7        21     1        0.135260   281412.739795
         8        15     1        0.141258   266082.761963
         8        26     1        0.108255   326816.622168
         9        10     1        0.154131   165488.768311
         9        22     1        0.145622   213577.405298
         9        27     1        0.109387   298720.796582
         9        28     1        0.109387   298720.796582
        10        14     1        0.143176   198209.849609
        10        19     1        0.151772   185075.258765
        10        29     1        0.109767   288594.873047
        11        12     1        0.139809   312925.073096
        11        17     1        0.139876   310157.105811
        11        30     1        0.108595   321034.407715
        12        19     1        0.140172   290518.379199
        12        31     1        0.108574   319945.352148
        13        18     1        0.139073   311446.142480
        13        19     1        0.140150   292984.114795
        13        32     1        0.108512   322806.785254
        14        33     1        0.097193   463188.923242
        15        20     1        0.134854   290538.298145
        15        22     1        0.136981   317088.694482
        16        20     1        0.133560   323063.509814
        16        21     1        0.133228   320729.596777
        16        34     1        0.108885   310708.298779
        17        18     1        0.139163   303919.232715
        17        35     1        0.108480   325310.954199
        18        36     1        0.135791   285989.219629
        22        37     1        0.101243   416870.480371
        39        40     1        0.135542   227210.557129
        39        41     1        0.135542   227210.557129
        39        42     1        0.135542   227210.557129

[ angles ]
;       ai        aj        ak funct           theta             cth
         1         2         4     1      120.526733      616.615595
         1         2        23     1      120.162209      410.969946
         1         3         5     1      120.404984      701.823928
         1         3        24     1      119.665909      424.314331
         1         7         8     1      122.307495      445.146387
         1         7        21     1      116.668259      546.939316
         2         1         3     1      118.634338      616.860816
         2         1         7     1      120.366684      518.924182
         2         4         6     1      120.702225      641.821489
         2         4        38     1      117.319839      387.252292
         3         1         7     1      120.937622      535.426964
         3         5         6     1      121.267540      683.544146
         3         5        25     1      119.838158      422.993104
         4         2        23     1      119.277786      391.415383
         4         6         5     1      118.293823      541.527556
         4         6        39     1      121.936462      671.089570
         5         3        24     1      119.731407      418.725534
         5         6        39     1      119.202835      531.902651
         6         4        38     1      122.111473      349.961664
         6         5        25     1      119.067039      407.692609
         6        39        40     1      111.817459      590.890916
         6        39        41     1      111.817459      590.890916
         6        39        42     1      111.817459      590.890916
         7         8        15     1      117.311539      947.696047
         7         8        26     1      121.811386      402.341755
         7        21        16     1      116.216049      842.738782
         8         7        21     1      121.010452      683.727183
         8        15        20     1      121.038940      696.522551
         8        15        22     1      122.015884      512.420678
         9        10        14     1      108.360802      587.875877
         9        10        19     1      111.267799      533.303362
         9        10        29     1      107.700035      471.445843
         9        22        15     1      123.221107      485.492434
         9        22        37     1      116.156227      432.193774
        10         9        22     1      112.253868      505.048114
        10         9        27     1      109.152748      447.117437
        10         9        28     1      109.152748      447.117437
        10        14        33     1      107.552200      573.534045
        10        19        12     1      120.550636      501.041502
        10        19        13     1      119.961441      493.834897
        11        12        19     1      120.346359      709.338158
        11        12        31     1      120.027542      427.403140
        11        17        18     1      117.907394      676.715395
        11        17        35     1      122.144287      425.533568
        12        11        17     1      120.625565      699.254064
        12        11        30     1      119.954453      426.378910
        12        19        13     1      119.383095      680.895756
        13        18        17     1      122.726662      607.027624
        13        18        36     1      118.584305      557.520937
        14        10        19     1      111.770226      730.673072
        14        10        29     1      108.586563      442.915561
        15         8        26     1      121.145187      423.807674
        15        20        16     1      115.971237      945.857949
        15        22        37     1      114.810379      471.231523
        17        11        30     1      119.465378      429.137397
        17        18        36     1      118.784424      546.137132
        18        13        19     1      118.840637      694.722887
        18        13        32     1      119.664871      423.950395
        18        17        35     1      119.991089      424.073292
        19        10        29     1      108.757690      465.819411
        19        12        31     1      119.679955      396.663834
        19        13        32     1      121.479507      386.531347
        20        15        22     1      116.914719      649.460340
        20        16        21     1      127.790550      717.320739
        20        16        34     1      115.851562      386.387350
        21        16        34     1      116.145645      398.875284
        22         9        27     1      109.378807      483.628736
        22         9        28     1      109.378807      483.628736
        27         9        28     1      107.690613      348.271586
        40        39        41     1      106.852196      698.601655
        40        39        42     1      106.852196      698.601655
        41        39        42     1      106.852196      698.601655

[ dihedrals ] ; propers for gromacs 4.5 or higher, use funct 9
;       ai        aj        ak        al funct           phase               k        pn
         1         2         4         6     9        0.000000       -0.020167         1
         1         2         4         6     9      180.000000       17.970526         2
         1         2         4         6     9        0.000000       -1.386562         3
         1         2         4         6     9      180.000000       -0.496848         4
         1         2         4        38     9        0.000000        0.432743         1
         1         2         4        38     9      180.000000       19.874509         2
         1         2         4        38     9        0.000000        0.488542         3
         1         2         4        38     9      180.000000       -0.830956         4
         1         3         5         6     9        0.000000        0.020331         1
         1         3         5         6     9      180.000000       19.190675         2
         1         3         5         6     9        0.000000       -1.823654         3
         1         3         5         6     9      180.000000       -0.540683         4
         1         3         5        25     9        0.000000       -0.075411         1
         1         3         5        25     9      180.000000       14.872329         2
         1         3         5        25     9        0.000000       -0.612035         3
         1         3         5        25     9      180.000000        0.059975         4
         1         7         8        15     9        0.000000        0.434867         1
         1         7         8        15     9      180.000000       15.824956         2
         1         7         8        15     9        0.000000       -0.079336         3
         1         7         8        15     9      180.000000       -0.715831         4
         1         7         8        26     9        0.000000       -0.094073         1
         1         7         8        26     9      180.000000       13.388294         2
         1         7         8        26     9        0.000000       -0.139700         3
         1         7         8        26     9      180.000000        0.000584         4
         1         7        21        16     9        0.000000        0.447864         1
         1         7        21        16     9      180.000000       18.570835         2
         1         7        21        16     9        0.000000        0.308067         3
         1         7        21        16     9      180.000000       -0.684116         4
         2         1         3         5     9        0.000000       -0.197697         1
         2         1         3         5     9      180.000000       17.514654         2
         2         1         3         5     9        0.000000       -1.409572         3
         2         1         3         5     9      180.000000       -0.304474         4
         2         1         3        24     9        0.000000       -0.068662         1
         2         1         3        24     9      180.000000       14.115885         2
         2         1         3        24     9        0.000000       -0.640457         3
         2         1         3        24     9      180.000000        0.078346         4
         2         1         7         8     9        0.000000        0.081198         1
         2         1         7         8     9      180.000000        3.833911         2
         2         1         7         8     9        0.000000        0.121636         3
         2         1         7         8     9      180.000000       -0.131128         4
         2         1         7        21     9        0.000000       -0.254799         1
         2         1         7        21     9      180.000000        4.863081         2
         2         1         7        21     9        0.000000        0.042434         3
         2         1         7        21     9      180.000000        0.062248         4
         2         4         6         5     9        0.000000       -0.120215         1
         2         4         6         5     9      180.000000       16.379148         2
         2         4         6         5     9        0.000000       -1.077436         3
         2         4         6         5     9      180.000000       -0.329268         4
         2         4         6        39     9        0.000000       -0.004653         1
         2         4         6        39     9      180.000000       13.031339         2
         2         4         6        39     9        0.000000       -0.061932         3
         2         4         6        39     9      180.000000       -0.243936         4
         3         1         2         4     9        0.000000       -0.219281         1
         3         1         2         4     9      180.000000       18.061420         2
         3         1         2         4     9        0.000000       -1.511232         3
         3         1         2         4     9      180.000000       -0.241116         4
         3         1         2        23     9        0.000000       -0.021175         1
         3         1         2        23     9      180.000000       14.029990         2
         3         1         2        23     9        0.000000       -0.702547         3
         3         1         2        23     9      180.000000        0.139738         4
         3         1         7         8     9        0.000000       -0.000576         1
         3         1         7         8     9      180.000000        3.749780         2
         3         1         7         8     9        0.000000        0.174809         3
         3         1         7         8     9      180.000000       -0.130381         4
         3         1         7        21     9        0.000000       -0.309593         1
         3         1         7        21     9      180.000000        4.771198         2
         3         1         7        21     9        0.000000        0.056792         3
         3         1         7        21     9      180.000000        0.064610         4
         3         5         6         4     9        0.000000       -0.099230         1
         3         5         6         4     9      180.000000       18.465162         2
         3         5         6         4     9        0.000000       -1.317052         3
         3         5         6         4     9      180.000000       -0.478491         4
         3         5         6        39     9        0.000000        0.193506         1
         3         5         6        39     9      180.000000       15.230008         2
         3         5         6        39     9        0.000000       -0.165921         3
         3         5         6        39     9      180.000000       -0.325672         4
         4         2         1         7     9        0.000000        0.015582         1
         4         2         1         7     9      180.000000       15.541217         2
         4         2         1         7     9        0.000000       -0.373713         3
         4         2         1         7     9      180.000000       -0.369399         4
         4         6         5        25     9        0.000000        0.105566         1
         4         6         5        25     9      180.000000       14.172631         2
         4         6         5        25     9        0.000000       -0.474563         3
         4         6         5        25     9      180.000000        0.156618         4
         4         6        39        40     9        0.000000        0.301057         1
         4         6        39        40     9      180.000000        0.091086         2
         4         6        39        40     9        0.000000        0.494221         3
         4         6        39        40     9      180.000000       -0.013122         4
         4         6        39        41     9        0.000000        0.301057         1
         4         6        39        41     9      180.000000        0.091086         2
         4         6        39        41     9        0.000000        0.494221         3
         4         6        39        41     9      180.000000       -0.013122         4
         4         6        39        42     9        0.000000        0.301057         1
         4         6        39        42     9      180.000000        0.091086         2
         4         6        39        42     9        0.000000        0.494221         3
         4         6        39        42     9      180.000000       -0.013122         4
         5         3         1         7     9        0.000000       -0.089229         1
         5         3         1         7     9      180.000000       14.845145         2
         5         3         1         7     9        0.000000       -0.410466         3
         5         3         1         7     9      180.000000       -0.228287         4
         5         6         4        38     9        0.000000        0.453167         1
         5         6         4        38     9      180.000000       18.228002         2
         5         6         4        38     9        0.000000        0.505288         3
         5         6         4        38     9      180.000000       -0.706168         4
         5         6        39        40     9        0.000000       -0.095138         1
         5         6        39        40     9      180.000000        0.106838         2
         5         6        39        40     9        0.000000       -0.315844         3
         5         6        39        40     9      180.000000       -0.000447         4
         5         6        39        41     9        0.000000       -0.095138         1
         5         6        39        41     9      180.000000        0.106838         2
         5         6        39        41     9        0.000000       -0.315844         3
         5         6        39        41     9      180.000000       -0.000447         4
         5         6        39        42     9        0.000000       -0.095138         1
         5         6        39        42     9      180.000000        0.106838         2
         5         6        39        42     9        0.000000       -0.315844         3
         5         6        39        42     9      180.000000       -0.000447         4
         6         4         2        23     9        0.000000        0.071098         1
         6         4         2        23     9      180.000000       13.974966         2
         6         4         2        23     9        0.000000       -0.566191         3
         6         4         2        23     9      180.000000        0.068196         4
         6         5         3        24     9        0.000000        0.032105         1
         6         5         3        24     9      180.000000       15.896935         2
         6         5         3        24     9        0.000000       -0.741415         3
         6         5         3        24     9      180.000000        0.017001         4
         7         1         2        23     9        0.000000       -0.157781         1
         7         1         2        23     9      180.000000       12.557252         2
         7         1         2        23     9        0.000000       -0.462085         3
         7         1         2        23     9      180.000000        0.171500         4
         7         1         3        24     9        0.000000       -0.088707         1
         7         1         3        24     9      180.000000       12.571751         2
         7         1         3        24     9        0.000000       -0.364837         3
         7         1         3        24     9      180.000000        0.107437         4
         7         8        15        20     9        0.000000       -0.089654         1
         7         8        15        20     9      180.000000       10.562302         2
         7         8        15        20     9        0.000000        0.482333         3
         7         8        15        20     9      180.000000       -0.516180         4
         7         8        15        22     9        0.000000        0.238113         1
         7         8        15        22     9      180.000000       14.118047         2
         7         8        15        22     9        0.000000        0.206177         3
         7         8        15        22     9      180.000000       -0.781388         4
         7        21        16        20     9        0.000000       -0.247934         1
         7        21        16        20     9      180.000000       19.249811         2
         7        21        16        20     9        0.000000        0.310634         3
         7        21        16        20     9      180.000000       -0.692299         4
         7        21        16        34     9        0.000000        0.596064         1
         7        21        16        34     9      180.000000       17.967140         2
         7        21        16        34     9        0.000000        0.162248         3
         7        21        16        34     9      180.000000       -0.522658         4
         8         7        21        16     9        0.000000       -0.335459         1
         8         7        21        16     9      180.000000       17.117650         2
         8         7        21        16     9        0.000000       -0.788010         3
         8         7        21        16     9      180.000000       -0.179004         4
         8        15        20        16     9        0.000000       -0.022736         1
         8        15        20        16     9      180.000000       16.992644         2
         8        15        20        16     9        0.000000       -0.224301         3
         8        15        20        16     9      180.000000       -0.568524         4
         8        15        22         9     9        0.000000        5.224768         1
         8        15        22         9     9      180.000000        6.917556         2
         8        15        22         9     9        0.000000       -0.057179         3
         8        15        22         9     9      180.000000       -0.618689         4
         8        15        22        37     9        0.000000        0.320716         1
         8        15        22        37     9      180.000000        8.635129         2
         8        15        22        37     9        0.000000       -0.410224         3
         8        15        22        37     9      180.000000       -0.398028         4
         9        10        14        33     9        0.000000        4.581940         1
         9        10        14        33     9      180.000000       -2.187694         2
         9        10        14        33     9        0.000000        1.425304         3
         9        10        14        33     9      180.000000        0.028978         4
         9        10        19        12     9        0.000000       -0.377001         1
         9        10        19        12     9      180.000000        0.430925         2
         9        10        19        12     9        0.000000        0.132723         3
         9        10        19        12     9      180.000000        0.140649         4
         9        10        19        13     9        0.000000       -0.339680         1
         9        10        19        13     9      180.000000        0.406161         2
         9        10        19        13     9        0.000000        0.156197         3
         9        10        19        13     9      180.000000        0.099787         4
         9        22        15        20     9        0.000000       -1.077598         1
         9        22        15        20     9      180.000000        7.473703         2
         9        22        15        20     9        0.000000        0.573233         3
         9        22        15        20     9      180.000000       -0.794596         4
        10         9        22        15     9        0.000000       -0.123738         1
        10         9        22        15     9      180.000000       -1.560225         2
        10         9        22        15     9        0.000000        0.309290         3
        10         9        22        15     9      180.000000        0.095876         4
        10         9        22        37     9        0.000000        0.587005         1
        10         9        22        37     9      180.000000       -2.583701         2
        10         9        22        37     9        0.000000        0.341478         3
        10         9        22        37     9      180.000000       -0.110605         4
        10        19        12        11     9        0.000000        0.143729         1
        10        19        12        11     9      180.000000       15.247899         2
        10        19        12        11     9        0.000000       -0.218114         3
        10        19        12        11     9      180.000000       -0.208276         4
        10        19        12        31     9        0.000000       -0.079416         1
        10        19        12        31     9      180.000000       12.586218         2
        10        19        12        31     9        0.000000       -0.356657         3
        10        19        12        31     9      180.000000        0.199555         4
        10        19        13        18     9        0.000000        0.234571         1
        10        19        13        18     9      180.000000       15.478074         2
        10        19        13        18     9        0.000000       -0.110969         3
        10        19        13        18     9      180.000000       -0.240038         4
        10        19        13        32     9        0.000000       -0.099338         1
        10        19        13        32     9      180.000000       12.463105         2
        10        19        13        32     9        0.000000       -0.361184         3
        10        19        13        32     9      180.000000        0.206882         4
        11        12        19        13     9        0.000000       -0.089650         1
        11        12        19        13     9      180.000000       19.346517         2
        11        12        19        13     9        0.000000       -1.442199         3
        11        12        19        13     9      180.000000       -0.496988         4
        11        17        18        13     9        0.000000       -0.091349         1
        11        17        18        13     9      180.000000       17.241072         2
        11        17        18        13     9        0.000000       -1.162693         3
        11        17        18        13     9      180.000000       -0.341259         4
        11        17        18        36     9        0.000000        0.556335         1
        11        17        18        36     9      180.000000       23.487549         2
        11        17        18        36     9        0.000000        0.478863         3
        11        17        18        36     9      180.000000       -0.672261         4
        12        11        17        18     9        0.000000       -0.109634         1
        12        11        17        18     9      180.000000       18.943051         2
        12        11        17        18     9        0.000000       -1.622466         3
        12        11        17        18     9      180.000000       -0.453563         4
        12        11        17        35     9        0.000000        0.116139         1
        12        11        17        35     9      180.000000       14.070545         2
        12        11        17        35     9        0.000000       -0.718704         3
        12        11        17        35     9      180.000000        0.147795         4
        12        19        10        14     9        0.000000        0.287123         1
        12        19        10        14     9      180.000000        1.698742         2
        12        19        10        14     9        0.000000        0.074636         3
        12        19        10        14     9      180.000000        0.116526         4
        12        19        10        29     9        0.000000        0.045512         1
        12        19        10        29     9      180.000000       -0.241749         2
        12        19        10        29     9        0.000000        0.074666         3
        12        19        10        29     9      180.000000        0.083739         4
        12        19        13        18     9        0.000000       -0.206257         1
        12        19        13        18     9      180.000000       19.343333         2
        12        19        13        18     9        0.000000       -1.450240         3
        12        19        13        18     9      180.000000       -0.450188         4
        12        19        13        32     9        0.000000        0.083322         1
        12        19        13        32     9      180.000000       14.100860         2
        12        19        13        32     9        0.000000       -0.549661         3
        12        19        13        32     9      180.000000        0.054738         4
        13        18        17        35     9        0.000000        0.067671         1
        13        18        17        35     9      180.000000       12.924551         2
        13        18        17        35     9        0.000000       -0.495254         3
        13        18        17        35     9      180.000000        0.162638         4
        13        19        10        14     9        0.000000       -0.061386         1
        13        19        10        14     9      180.000000        1.663993         2
        13        19        10        14     9        0.000000        0.039234         3
        13        19        10        14     9      180.000000        0.112404         4
        13        19        10        29     9        0.000000        0.139687         1
        13        19        10        29     9      180.000000       -0.263648         2
        13        19        10        29     9        0.000000        0.129572         3
        13        19        10        29     9      180.000000        0.063951         4
        13        19        12        31     9        0.000000       -0.004006         1
        13        19        12        31     9      180.000000       14.937443         2
        13        19        12        31     9        0.000000       -0.541965         3
        13        19        12        31     9      180.000000       -0.029581         4
        14        10         9        22     9        0.000000        1.455146         1
        14        10         9        22     9      180.000000       -1.498086         2
        14        10         9        22     9        0.000000        0.709855         3
        14        10         9        22     9      180.000000       -0.142656         4
        14        10         9        27     9        0.000000        0.020743         1
        14        10         9        27     9      180.000000        0.106946         2
        14        10         9        27     9        0.000000        0.675252         3
        14        10         9        27     9      180.000000        0.041141         4
        14        10         9        28     9        0.000000        0.020743         1
        14        10         9        28     9      180.000000        0.106946         2
        14        10         9        28     9        0.000000        0.675252         3
        14        10         9        28     9      180.000000        0.041141         4
        15         8         7        21     9        0.000000       -0.193431         1
        15         8         7        21     9      180.000000       15.070611         2
        15         8         7        21     9        0.000000       -0.504886         3
        15         8         7        21     9      180.000000       -0.572109         4
        15        20        16        21     9        0.000000       -0.320119         1
        15        20        16        21     9      180.000000       16.475745         2
        15        20        16        21     9        0.000000        0.183991         3
        15        20        16        21     9      180.000000       -0.393429         4
        15        20        16        34     9        0.000000        0.459937         1
        15        20        16        34     9      180.000000       16.482063         2
        15        20        16        34     9        0.000000        0.076258         3
        15        20        16        34     9      180.000000       -0.344674         4
        15        22         9        27     9        0.000000       -0.189083         1
        15        22         9        27     9      180.000000        0.185758         2
        15        22         9        27     9        0.000000        0.558846         3
        15        22         9        27     9      180.000000        0.044537         4
        15        22         9        28     9        0.000000       -0.189083         1
        15        22         9        28     9      180.000000        0.185758         2
        15        22         9        28     9        0.000000        0.558846         3
        15        22         9        28     9      180.000000        0.044537         4
        16        20        15        22     9        0.000000        0.461674         1
        16        20        15        22     9      180.000000       20.541055         2
        16        20        15        22     9        0.000000        0.317682         3
        16        20        15        22     9      180.000000       -0.820159         4
        17        11        12        19     9        0.000000        0.066263         1
        17        11        12        19     9      180.000000       18.591349         2
        17        11        12        19     9        0.000000       -1.611079         3
        17        11        12        19     9      180.000000       -0.387479         4
        17        11        12        31     9        0.000000        0.109990         1
        17        11        12        31     9      180.000000       14.742530         2
        17        11        12        31     9        0.000000       -0.717826         3
        17        11        12        31     9      180.000000        0.119659         4
        17        18        13        19     9        0.000000       -0.036291         1
        17        18        13        19     9      180.000000       16.893482         2
        17        18        13        19     9        0.000000       -1.211923         3
        17        18        13        19     9      180.000000       -0.312896         4
        17        18        13        32     9        0.000000        0.144026         1
        17        18        13        32     9      180.000000       12.666133         2
        17        18        13        32     9        0.000000       -0.445556         3
        17        18        13        32     9      180.000000        0.161457         4
        18        17        11        30     9        0.000000        0.122493         1
        18        17        11        30     9      180.000000       14.828311         2
        18        17        11        30     9        0.000000       -0.683580         3
        18        17        11        30     9      180.000000        0.084185         4
        19        10         9        22     9        0.000000       -1.597782         1
        19        10         9        22     9      180.000000        0.713214         2
        19        10         9        22     9        0.000000        0.894652         3
        19        10         9        22     9      180.000000       -0.092383         4
        19        10         9        27     9        0.000000       -0.019111         1
        19        10         9        27     9      180.000000        0.126379         2
        19        10         9        27     9        0.000000        0.818177         3
        19        10         9        27     9      180.000000        0.011013         4
        19        10         9        28     9        0.000000       -0.019111         1
        19        10         9        28     9      180.000000        0.126379         2
        19        10         9        28     9        0.000000        0.818177         3
        19        10         9        28     9      180.000000        0.011013         4
        19        10        14        33     9        0.000000        0.627861         1
        19        10        14        33     9      180.000000        0.659289         2
        19        10        14        33     9        0.000000        0.944250         3
        19        10        14        33     9      180.000000       -0.131574         4
        19        12        11        30     9        0.000000        0.014510         1
        19        12        11        30     9      180.000000       14.642883         2
        19        12        11        30     9        0.000000       -0.786350         3
        19        12        11        30     9      180.000000        0.112439         4
        19        13        18        36     9        0.000000        0.507267         1
        19        13        18        36     9      180.000000       22.709700         2
        19        13        18        36     9        0.000000        0.624621         3
        19        13        18        36     9      180.000000       -0.695308         4
        20        15         8        26     9        0.000000       -0.258484         1
        20        15         8        26     9      180.000000       11.906267         2
        20        15         8        26     9        0.000000       -0.274305         3
        20        15         8        26     9      180.000000       -0.112986         4
        20        15        22        37     9        0.000000       -0.835638         1
        20        15        22        37     9      180.000000       10.136196         2
        20        15        22        37     9        0.000000       -0.035919         3
        20        15        22        37     9      180.000000       -0.458821         4
        21         7         8        26     9        0.000000       -0.198822         1
        21         7         8        26     9      180.000000       13.564831         2
        21         7         8        26     9        0.000000       -0.204715         3
        21         7         8        26     9      180.000000       -0.037302         4
        22         9        10        29     9        0.000000        0.487668         1
        22         9        10        29     9      180.000000       -0.287049         2
        22         9        10        29     9        0.000000        0.823044         3
        22         9        10        29     9      180.000000        0.052253         4
        22        15         8        26     9        0.000000       -0.215869         1
        22        15         8        26     9      180.000000       12.333077         2
        22        15         8        26     9        0.000000       -0.135218         3
        22        15         8        26     9      180.000000       -0.050610         4
        23         2         4        38     9        0.000000        0.089488         1
        23         2         4        38     9      180.000000       14.547955         2
        23         2         4        38     9        0.000000       -0.082919         3
        23         2         4        38     9      180.000000        0.164686         4
        24         3         5        25     9        0.000000       -0.275917         1
        24         3         5        25     9      180.000000       12.318617         2
        24         3         5        25     9        0.000000       -0.897396         3
        24         3         5        25     9      180.000000        0.414174         4
        25         5         6        39     9        0.000000        0.028711         1
        25         5         6        39     9      180.000000       12.301472         2
        25         5         6        39     9        0.000000       -0.301934         3
        25         5         6        39     9      180.000000        0.132942         4
        27         9        10        29     9        0.000000       -0.141728         1
        27         9        10        29     9      180.000000        0.096266         2
        27         9        10        29     9        0.000000        0.734748         3
        27         9        10        29     9      180.000000       -0.028628         4
        27         9        22        37     9        0.000000       -0.246940         1
        27         9        22        37     9      180.000000        0.072497         2
        27         9        22        37     9        0.000000        0.555471         3
        27         9        22        37     9      180.000000       -0.006327         4
        28         9        10        29     9        0.000000       -0.141728         1
        28         9        10        29     9      180.000000        0.096266         2
        28         9        10        29     9        0.000000        0.734748         3
        28         9        10        29     9      180.000000       -0.028628         4
        28         9        22        37     9        0.000000       -0.246940         1
        28         9        22        37     9      180.000000        0.072497         2
        28         9        22        37     9        0.000000        0.555471         3
        28         9        22        37     9      180.000000       -0.006327         4
        29        10        14        33     9        0.000000       -0.779274         1
        29        10        14        33     9      180.000000        0.511155         2
        29        10        14        33     9        0.000000        0.805920         3
        29        10        14        33     9      180.000000        0.049534         4
        30        11        12        31     9        0.000000       -0.103003         1
        30        11        12        31     9      180.000000       11.922097         2
        30        11        12        31     9        0.000000       -0.730148         3
        30        11        12        31     9      180.000000        0.293741         4
        30        11        17        35     9        0.000000       -0.118480         1
        30        11        17        35     9      180.000000       11.490901         2
        30        11        17        35     9        0.000000       -0.621038         3
        30        11        17        35     9      180.000000        0.219485         4
        32        13        18        36     9        0.000000        0.273064         1
        32        13        18        36     9      180.000000       15.867020         2
        32        13        18        36     9        0.000000        0.339330         3
        32        13        18        36     9      180.000000        0.142462         4
        35        17        18        36     9        0.000000        0.275892         1
        35        17        18        36     9      180.000000       15.995414         2
        35        17        18        36     9        0.000000        0.303733         3
        35        17        18        36     9      180.000000        0.172826         4
        38         4         6        39     9        0.000000        0.110275         1
        38         4         6        39     9      180.000000       14.089361         2
        38         4         6        39     9        0.000000        0.276334         3
        38         4         6        39     9      180.000000       -0.470742         4

[ dihedrals ] ; impropers
;       ai        aj        ak        al funct           phase               k        pn
         7         1         8        21     4      180.000000        9.915687         2
         7         8        21         1     4      180.000000        9.915687         2
         7        21         1         8     4      180.000000        9.915687         2
        11        12        17        30     4      180.000000        0.309472         2
        11        17        30        12     4      180.000000        0.309472         2
        11        30        12        17     4      180.000000        0.309472         2
        15         8        20        22     4      180.000000        5.688009         2
        15        20        22         8     4      180.000000        5.688009         2
        15        22         8        20     4      180.000000        5.688009         2
        16        20        21        34     4      180.000000       26.195376         2
        16        21        34        20     4      180.000000       26.195376         2
        16        34        20        21     4      180.000000       26.195376         2
        18        13        17        36     4      180.000000        0.436379         2
        18        17        36        13     4      180.000000        0.436379         2
        18        36        13        17     4      180.000000        0.436379         2

[ pairs ]
;       ai        aj funct
         1         6     1
         1        15     1
         1        16     1
         1        25     1
         1        26     1
         1        38     1
         2         5     1
         2         8     1
         2        21     1
         2        24     1
         2        39     1
         3         4     1
         3         8     1
         3        21     1
         3        23     1
         3        39     1
         4         7     1
         4        25     1
         4        40     1
         4        41     1
         4        42     1
         5         7     1
         5        38     1
         5        40     1
         5        41     1
         5        42     1
         6        23     1
         6        24     1
         7        20     1
         7        22     1
         7        23     1
         7        24     1
         7        34     1
         8         9     1
         8        16     1
         8        37     1
         9        12     1
         9        13     1
         9        20     1
         9        33     1
        10        11     1
        10        15     1
        10        18     1
        10        31     1
        10        32     1
        10        37     1
        11        13     1
        11        36     1
        12        14     1
        12        18     1
        12        29     1
        12        32     1
        12        35     1
        13        14     1
        13        29     1
        13        31     1
        13        35     1
        14        22     1
        14        27     1
        14        28     1
        15        21     1
        15        27     1
        15        28     1
        15        34     1
        16        22     1
        17        19     1
        17        31     1
        17        32     1
        18        30     1
        19        22     1
        19        27     1
        19        28     1
        19        30     1
        19        33     1
        19        36     1
        20        26     1
        20        37     1
        21        26     1
        22        26     1
        22        29     1
        23        38     1
        24        25     1
        25        39     1
        27        29     1
        27        37     1
        28        29     1
        28        37     1
        29        33     1
        30        31     1
        30        35     1
        32        36     1
        35        36     1
        38        39     1
