; ITP file created by ByteFF-ML, 2025-12-06 08:00:32.540829

[ atomtypes ]
;name           bonded.type        at.num        mass        charge   ptype           sigma         epsilon
 c0bf                                   6      0.0000       0.00000       A     3.31426e-01     4.12298e-01
 c1bf                                   6      0.0000       0.00000       A     3.31413e-01     4.12421e-01
 c2bf                                   6      0.0000       0.00000       A     3.31413e-01     4.12421e-01
 c3bf                                   6      0.0000       0.00000       A     3.31523e-01     4.12988e-01
 c4bf                                   6      0.0000       0.00000       A     3.31523e-01     4.12988e-01
 c5bf                                   6      0.0000       0.00000       A     3.31556e-01     4.13682e-01
 c6bf                                   6      0.0000       0.00000       A     3.31621e-01     4.12889e-01
 c7bf                                   6      0.0000       0.00000       A     3.31457e-01     4.14170e-01
 c8bf                                   6      0.0000       0.00000       A     3.39913e-01     4.51981e-01
 c9bf                                   6      0.0000       0.00000       A     3.39813e-01     4.52532e-01
 c10bf                                  6      0.0000       0.00000       A     3.31509e-01     4.13195e-01
 c11bf                                  6      0.0000       0.00000       A     3.31478e-01     4.12793e-01
 c12bf                                  6      0.0000       0.00000       A     3.31478e-01     4.12793e-01
 o13bf                                  8      0.0000       0.00000       A     3.24410e-01     3.85609e-01
 c14bf                                  6      0.0000       0.00000       A     3.31421e-01     4.11620e-01
 c15bf                                  6      0.0000       0.00000       A     3.31451e-01     4.12938e-01
 c16bf                                  6      0.0000       0.00000       A     3.31497e-01     4.12822e-01
 c17bf                                  6      0.0000       0.00000       A     3.31509e-01     4.13195e-01
 c18bf                                  6      0.0000       0.00000       A     3.31414e-01     4.12504e-01
 n19bf                                  7      0.0000       0.00000       A     3.38507e-01     3.93685e-01
 n20bf                                  7      0.0000       0.00000       A     3.38371e-01     3.91610e-01
 n21bf                                  7      0.0000       0.00000       A     3.27812e-01     6.42771e-01
 h22bf                                  1      0.0000       0.00000       A     2.62480e-01     6.74052e-02
 h23bf                                  1      0.0000       0.00000       A     2.62480e-01     6.74052e-02
 h24bf                                  1      0.0000       0.00000       A     2.62577e-01     6.74850e-02
 h25bf                                  1      0.0000       0.00000       A     2.62601e-01     6.80516e-02
 h26bf                                  1      0.0000       0.00000       A     2.42325e-01     8.87095e-02
 h27bf                                  1      0.0000       0.00000       A     2.42325e-01     8.87095e-02
 h28bf                                  1      0.0000       0.00000       A     2.41980e-01     8.63521e-02
 h29bf                                  1      0.0000       0.00000       A     2.62458e-01     6.72983e-02
 h30bf                                  1      0.0000       0.00000       A     2.62526e-01     6.76654e-02
 h31bf                                  1      0.0000       0.00000       A     2.62526e-01     6.76654e-02
 h32bf                                  1      0.0000       0.00000       A     5.34630e-02     2.01823e-02
 h33bf                                  1      0.0000       0.00000       A     2.44896e-01     6.81777e-02
 h34bf                                  1      0.0000       0.00000       A     2.62457e-01     6.73477e-02
 h35bf                                  1      0.0000       0.00000       A     2.62458e-01     6.72983e-02
 h36bf                                  1      0.0000       0.00000       A     1.10559e-01     4.02720e-02
 h37bf                                  1      0.0000       0.00000       A     2.62577e-01     6.74850e-02
 c38bf                                  6      0.0000       0.00000       A     3.39886e-01     4.48642e-01
 f39bf                                  9      0.0000       0.00000       A     3.03451e-01     3.47961e-01
 f40bf                                  9      0.0000       0.00000       A     3.03451e-01     3.47961e-01
 f41bf                                  9      0.0000       0.00000       A     3.03451e-01     3.47961e-01

[ moleculetype ]
;name             nrexcl
 6                     3

[ atoms ]
;       nr            type      resi   res      atom      cgnr      charge          mass ; qtot
         1            c0bf         1   UNL        c0         1    -0.15206       12.0110 ; qtot   -0.152
         2            c1bf         1   UNL        c1         2    -0.07954       12.0110 ; qtot   -0.232
         3            c2bf         1   UNL        c2         3    -0.07954       12.0110 ; qtot   -0.311
         4            c3bf         1   UNL        c3         4    -0.06290       12.0110 ; qtot   -0.374
         5            c4bf         1   UNL        c4         5    -0.06290       12.0110 ; qtot   -0.437
         6            c5bf         1   UNL        c5         6    -0.17899       12.0110 ; qtot   -0.616
         7            c6bf         1   UNL        c6         7     0.20828       12.0110 ; qtot   -0.408
         8            c7bf         1   UNL        c7         8    -0.27851       12.0110 ; qtot   -0.686
         9            c8bf         1   UNL        c8         9     0.20486       12.0110 ; qtot   -0.481
        10            c9bf         1   UNL        c9        10     0.20056       12.0110 ; qtot   -0.281
        11           c10bf         1   UNL       c10        11    -0.11618       12.0110 ; qtot   -0.397
        12           c11bf         1   UNL       c11        12    -0.09263       12.0110 ; qtot   -0.490
        13           c12bf         1   UNL       c12        13    -0.09263       12.0110 ; qtot   -0.582
        14           o13bf         1   UNL       o13        14    -0.66766       15.9990 ; qtot   -1.250
        15           c14bf         1   UNL       c14        15     0.36320       12.0110 ; qtot   -0.887
        16           c15bf         1   UNL       c15        16     0.15429       12.0110 ; qtot   -0.732
        17           c16bf         1   UNL       c16        17    -0.10467       12.0110 ; qtot   -0.837
        18           c17bf         1   UNL       c17        18    -0.11618       12.0110 ; qtot   -0.953
        19           c18bf         1   UNL       c18        19    -0.12571       12.0110 ; qtot   -1.079
        20           n19bf         1   UNL       n19        20    -0.25580       14.0070 ; qtot   -1.335
        21           n20bf         1   UNL       n20        21    -0.20528       14.0070 ; qtot   -1.540
        22           n21bf         1   UNL       n21        22    -0.91333       14.0070 ; qtot   -2.453
        23           h22bf         1   UNL       h22        23     0.12990        1.0080 ; qtot   -2.323
        24           h23bf         1   UNL       h23        24     0.12990        1.0080 ; qtot   -2.194
        25           h24bf         1   UNL       h24        25     0.13339        1.0080 ; qtot   -2.060
        26           h25bf         1   UNL       h25        26     0.13746        1.0080 ; qtot   -1.923
        27           h26bf         1   UNL       h26        27     0.06305        1.0080 ; qtot   -1.860
        28           h27bf         1   UNL       h27        28     0.06305        1.0080 ; qtot   -1.797
        29           h28bf         1   UNL       h28        29     0.05867        1.0080 ; qtot   -1.738
        30           h29bf         1   UNL       h29        30     0.11526        1.0080 ; qtot   -1.623
        31           h30bf         1   UNL       h30        31     0.11982        1.0080 ; qtot   -1.503
        32           h31bf         1   UNL       h31        32     0.11982        1.0080 ; qtot   -1.383
        33           h32bf         1   UNL       h32        33     0.45685        1.0080 ; qtot   -0.926
        34           h33bf         1   UNL       h33        34     0.04875        1.0080 ; qtot   -0.877
        35           h34bf         1   UNL       h34        35     0.11320        1.0080 ; qtot   -0.764
        36           h35bf         1   UNL       h35        36     0.11526        1.0080 ; qtot   -0.649
        37           h36bf         1   UNL       h36        37     0.48941        1.0080 ; qtot   -0.160
        38           h37bf         1   UNL       h37        38     0.13339        1.0080 ; qtot   -0.026
        39           c38bf         1   UNL       c38        39     0.33861       12.0110 ; qtot    0.312
        40           f39bf         1   UNL       f39        40    -0.10416       18.9980 ; qtot    0.208
        41           f40bf         1   UNL       f40        41    -0.10416       18.9980 ; qtot    0.104
        42           f41bf         1   UNL       f41        42    -0.10415       18.9980 ; qtot    0.000

[ bonds ]
;       ai        aj funct               r               k
         1         2     1        0.140609   287400.221533
         1         3     1        0.140609   287400.221533
         1         7     1        0.148354   203322.825806
         2         4     1        0.139381   325702.003955
         2        23     1        0.108446   323393.934473
         3         5     1        0.139381   325702.003955
         3        24     1        0.108446   323393.934473
         4         6     1        0.139922   297983.284863
         4        38     1        0.108519   322801.601221
         5         6     1        0.139922   297983.284863
         5        25     1        0.108519   322801.601221
         6        39     1        0.150541   194577.898071
         7         8     1        0.139541   300786.748730
         7        21     1        0.135342   279626.674365
         8        15     1        0.141258   266082.761963
         8        26     1        0.108255   326816.622168
         9        10     1        0.154143   165303.739185
         9        22     1        0.145622   213577.405298
         9        27     1        0.109387   298720.796582
         9        28     1        0.109387   298720.796582
        10        14     1        0.143225   197413.423779
        10        19     1        0.151713   185206.289673
        10        29     1        0.109771   288384.932471
        11        12     1        0.139818   313076.942285
        11        17     1        0.139926   306828.752197
        11        30     1        0.108636   319342.446533
        12        19     1        0.140197   290142.804932
        12        31     1        0.108628   318095.954687
        13        18     1        0.139818   313076.942285
        13        19     1        0.140197   290142.804932
        13        32     1        0.108628   318095.954687
        14        33     1        0.097193   463188.923242
        15        20     1        0.134854   290538.298145
        15        22     1        0.136981   317088.694482
        16        20     1        0.133560   323063.509814
        16        21     1        0.133228   320729.596777
        16        34     1        0.108885   310708.298779
        17        18     1        0.139926   306828.752197
        17        35     1        0.108629   319751.295654
        18        36     1        0.108636   319342.497607
        22        37     1        0.101243   416870.480371
        39        40     1        0.135847   221783.717090
        39        41     1        0.135847   221783.717090
        39        42     1        0.135847   221783.717090

[ angles ]
;       ai        aj        ak funct           theta             cth
         1         2         4     1      120.818344      690.756719
         1         2        23     1      119.519020      421.438852
         1         3         5     1      120.818344      690.756719
         1         3        24     1      119.519020      421.438852
         1         7         8     1      122.330429      447.320713
         1         7        21     1      116.877831      548.740896
         2         1         3     1      118.564560      598.517829
         2         1         7     1      120.718750      536.143759
         2         4         6     1      119.848221      695.715706
         2         4        38     1      120.130089      425.417598
         3         1         7     1      120.718750      536.143759
         3         5         6     1      119.848221      695.715706
         3         5        25     1      120.130089      425.417598
         4         2        23     1      119.651688      419.822225
         4         6         5     1      119.977257      614.564519
         4         6        39     1      119.731972      528.156772
         5         3        24     1      119.651688      419.822225
         5         6        39     1      119.731972      528.156772
         6         4        38     1      120.058151      420.833527
         6         5        25     1      120.058151      420.833559
         6        39        40     1      111.957176      596.671751
         6        39        41     1      111.957176      596.671751
         6        39        42     1      111.957176      596.671751
         7         8        15     1      117.373459      949.835609
         7         8        26     1      121.779648      401.452808
         7        21        16     1      116.265480      849.415332
         8         7        21     1      120.823196      688.186728
         8        15        20     1      121.038940      696.522551
         8        15        22     1      122.015884      512.420678
         9        10        14     1      108.305847      587.312656
         9        10        19     1      111.358849      527.467973
         9        10        29     1      107.666794      471.669740
         9        22        15     1      123.221107      485.492434
         9        22        37     1      116.156227      432.193774
        10         9        22     1      112.253860      504.288609
        10         9        27     1      109.157486      446.524274
        10         9        28     1      109.157486      446.524274
        10        14        33     1      107.484726      573.087082
        10        19        12     1      120.512955      505.748055
        10        19        13     1      120.512955      505.748055
        11        12        19     1      120.485474      710.265794
        11        12        31     1      119.930954      427.353566
        11        17        18     1      119.633766      692.466301
        11        17        35     1      120.205627      430.895627
        12        11        17     1      120.129868      704.647119
        12        11        30     1      119.859192      430.780838
        12        19        13     1      118.926392      685.330275
        13        18        17     1      120.129868      704.647119
        13        18        36     1      119.859192      430.780806
        14        10        19     1      111.885483      728.778347
        14        10        29     1      108.507423      442.662201
        15         8        26     1      121.145187      423.807674
        15        20        16     1      115.971237      945.857949
        15        22        37     1      114.810379      471.231523
        17        11        30     1      120.073341      430.842957
        17        18        36     1      120.073341      430.842957
        18        13        19     1      120.485474      710.265794
        18        13        32     1      119.930954      427.353566
        18        17        35     1      120.205627      430.895627
        19        10        29     1      108.812782      462.834634
        19        12        31     1      119.638260      393.234998
        19        13        32     1      119.638260      393.234998
        20        15        22     1      116.914719      649.460340
        20        16        21     1      127.790550      717.320739
        20        16        34     1      115.851562      386.387350
        21        16        34     1      116.145645      398.875284
        22         9        27     1      109.378807      483.628736
        22         9        28     1      109.378807      483.628736
        27         9        28     1      107.690613      348.271586
        40        39        41     1      106.671486      701.037193
        40        39        42     1      106.671486      701.037193
        41        39        42     1      106.671486      701.037193

[ dihedrals ] ; propers for gromacs 4.5 or higher, use funct 9
;       ai        aj        ak        al funct           phase               k        pn
         1         2         4         6     9        0.000000       -0.065663         1
         1         2         4         6     9      180.000000       19.544894         2
         1         2         4         6     9        0.000000       -1.660437         3
         1         2         4         6     9      180.000000       -0.447000         4
         1         2         4        38     9        0.000000       -0.040902         1
         1         2         4        38     9      180.000000       14.956574         2
         1         2         4        38     9        0.000000       -0.579568         3
         1         2         4        38     9      180.000000        0.090660         4
         1         3         5         6     9        0.000000       -0.065663         1
         1         3         5         6     9      180.000000       19.544894         2
         1         3         5         6     9        0.000000       -1.660437         3
         1         3         5         6     9      180.000000       -0.447000         4
         1         3         5        25     9        0.000000       -0.040901         1
         1         3         5        25     9      180.000000       14.956574         2
         1         3         5        25     9        0.000000       -0.579568         3
         1         3         5        25     9      180.000000        0.090660         4
         1         7         8        15     9        0.000000        0.477180         1
         1         7         8        15     9      180.000000       15.698587         2
         1         7         8        15     9        0.000000       -0.036791         3
         1         7         8        15     9      180.000000       -0.724053         4
         1         7         8        26     9        0.000000       -0.049723         1
         1         7         8        26     9      180.000000       13.196139         2
         1         7         8        26     9        0.000000       -0.131323         3
         1         7         8        26     9      180.000000        0.018050         4
         1         7        21        16     9        0.000000        0.531277         1
         1         7        21        16     9      180.000000       18.325725         2
         1         7        21        16     9        0.000000        0.324329         3
         1         7        21        16     9      180.000000       -0.729849         4
         2         1         3         5     9        0.000000       -0.134775         1
         2         1         3         5     9      180.000000       17.580085         2
         2         1         3         5     9        0.000000       -1.372530         3
         2         1         3         5     9      180.000000       -0.298316         4
         2         1         3        24     9        0.000000       -0.055262         1
         2         1         3        24     9      180.000000       14.262747         2
         2         1         3        24     9        0.000000       -0.631843         3
         2         1         3        24     9      180.000000        0.086051         4
         2         1         7         8     9        0.000000        0.038497         1
         2         1         7         8     9      180.000000        3.815861         2
         2         1         7         8     9        0.000000        0.130501         3
         2         1         7         8     9      180.000000       -0.126352         4
         2         1         7        21     9        0.000000       -0.297326         1
         2         1         7        21     9      180.000000        4.831757         2
         2         1         7        21     9        0.000000        0.094924         3
         2         1         7        21     9      180.000000        0.024116         4
         2         4         6         5     9        0.000000       -0.105526         1
         2         4         6         5     9      180.000000       18.241145         2
         2         4         6         5     9        0.000000       -1.391295         3
         2         4         6         5     9      180.000000       -0.392558         4
         2         4         6        39     9        0.000000        0.014437         1
         2         4         6        39     9      180.000000       14.968771         2
         2         4         6        39     9        0.000000       -0.129395         3
         2         4         6        39     9      180.000000       -0.251462         4
         3         1         2         4     9        0.000000       -0.134775         1
         3         1         2         4     9      180.000000       17.580085         2
         3         1         2         4     9        0.000000       -1.372530         3
         3         1         2         4     9      180.000000       -0.298316         4
         3         1         2        23     9        0.000000       -0.055262         1
         3         1         2        23     9      180.000000       14.262747         2
         3         1         2        23     9        0.000000       -0.631843         3
         3         1         2        23     9      180.000000        0.086051         4
         3         1         7         8     9        0.000000        0.038497         1
         3         1         7         8     9      180.000000        3.815861         2
         3         1         7         8     9        0.000000        0.130501         3
         3         1         7         8     9      180.000000       -0.126352         4
         3         1         7        21     9        0.000000       -0.297326         1
         3         1         7        21     9      180.000000        4.831757         2
         3         1         7        21     9        0.000000        0.094924         3
         3         1         7        21     9      180.000000        0.024116         4
         3         5         6         4     9        0.000000       -0.105526         1
         3         5         6         4     9      180.000000       18.241145         2
         3         5         6         4     9        0.000000       -1.391295         3
         3         5         6         4     9      180.000000       -0.392558         4
         3         5         6        39     9        0.000000        0.014437         1
         3         5         6        39     9      180.000000       14.968771         2
         3         5         6        39     9        0.000000       -0.129395         3
         3         5         6        39     9      180.000000       -0.251462         4
         4         2         1         7     9        0.000000       -0.024732         1
         4         2         1         7     9      180.000000       14.577808         2
         4         2         1         7     9        0.000000       -0.428063         3
         4         2         1         7     9      180.000000       -0.153807         4
         4         6         5        25     9        0.000000        0.032444         1
         4         6         5        25     9      180.000000       14.190275         2
         4         6         5        25     9        0.000000       -0.658159         3
         4         6         5        25     9      180.000000        0.055150         4
         4         6        39        40     9        0.000000       -0.026725         1
         4         6        39        40     9      180.000000        0.090471         2
         4         6        39        40     9        0.000000        0.142089         3
         4         6        39        40     9      180.000000        0.008058         4
         4         6        39        41     9        0.000000       -0.026725         1
         4         6        39        41     9      180.000000        0.090471         2
         4         6        39        41     9        0.000000        0.142089         3
         4         6        39        41     9      180.000000        0.008058         4
         4         6        39        42     9        0.000000       -0.026725         1
         4         6        39        42     9      180.000000        0.090471         2
         4         6        39        42     9        0.000000        0.142089         3
         4         6        39        42     9      180.000000        0.008058         4
         5         3         1         7     9        0.000000       -0.024732         1
         5         3         1         7     9      180.000000       14.577808         2
         5         3         1         7     9        0.000000       -0.428063         3
         5         3         1         7     9      180.000000       -0.153807         4
         5         6         4        38     9        0.000000        0.032444         1
         5         6         4        38     9      180.000000       14.190275         2
         5         6         4        38     9        0.000000       -0.658159         3
         5         6         4        38     9      180.000000        0.055151         4
         5         6        39        40     9        0.000000       -0.026725         1
         5         6        39        40     9      180.000000        0.090471         2
         5         6        39        40     9        0.000000        0.142089         3
         5         6        39        40     9      180.000000        0.008058         4
         5         6        39        41     9        0.000000       -0.026725         1
         5         6        39        41     9      180.000000        0.090471         2
         5         6        39        41     9        0.000000        0.142089         3
         5         6        39        41     9      180.000000        0.008058         4
         5         6        39        42     9        0.000000       -0.026725         1
         5         6        39        42     9      180.000000        0.090471         2
         5         6        39        42     9        0.000000        0.142089         3
         5         6        39        42     9      180.000000        0.008058         4
         6         4         2        23     9        0.000000        0.061558         1
         6         4         2        23     9      180.000000       15.625208         2
         6         4         2        23     9        0.000000       -0.621128         3
         6         4         2        23     9      180.000000        0.116281         4
         6         5         3        24     9        0.000000        0.061558         1
         6         5         3        24     9      180.000000       15.625208         2
         6         5         3        24     9        0.000000       -0.621128         3
         6         5         3        24     9      180.000000        0.116281         4
         7         1         2        23     9        0.000000       -0.084152         1
         7         1         2        23     9      180.000000       12.519324         2
         7         1         2        23     9        0.000000       -0.386603         3
         7         1         2        23     9      180.000000        0.120869         4
         7         1         3        24     9        0.000000       -0.084152         1
         7         1         3        24     9      180.000000       12.519324         2
         7         1         3        24     9        0.000000       -0.386603         3
         7         1         3        24     9      180.000000        0.120869         4
         7         8        15        20     9        0.000000       -0.123050         1
         7         8        15        20     9      180.000000       10.631899         2
         7         8        15        20     9        0.000000        0.454082         3
         7         8        15        20     9      180.000000       -0.512053         4
         7         8        15        22     9        0.000000        0.237538         1
         7         8        15        22     9      180.000000       14.073209         2
         7         8        15        22     9        0.000000        0.190331         3
         7         8        15        22     9      180.000000       -0.773793         4
         7        21        16        20     9        0.000000       -0.252497         1
         7        21        16        20     9      180.000000       19.176368         2
         7        21        16        20     9        0.000000        0.310972         3
         7        21        16        20     9      180.000000       -0.693632         4
         7        21        16        34     9        0.000000        0.590605         1
         7        21        16        34     9      180.000000       17.818975         2
         7        21        16        34     9        0.000000        0.153002         3
         7        21        16        34     9      180.000000       -0.521304         4
         8         7        21        16     9        0.000000       -0.289848         1
         8         7        21        16     9      180.000000       16.813950         2
         8         7        21        16     9        0.000000       -0.720569         3
         8         7        21        16     9      180.000000       -0.190926         4
         8        15        20        16     9        0.000000       -0.022736         1
         8        15        20        16     9      180.000000       16.992644         2
         8        15        20        16     9        0.000000       -0.224301         3
         8        15        20        16     9      180.000000       -0.568524         4
         8        15        22         9     9        0.000000        5.224768         1
         8        15        22         9     9      180.000000        6.917556         2
         8        15        22         9     9        0.000000       -0.057179         3
         8        15        22         9     9      180.000000       -0.618689         4
         8        15        22        37     9        0.000000        0.320716         1
         8        15        22        37     9      180.000000        8.635129         2
         8        15        22        37     9        0.000000       -0.410224         3
         8        15        22        37     9      180.000000       -0.398028         4
         9        10        14        33     9        0.000000        4.541259         1
         9        10        14        33     9      180.000000       -2.198736         2
         9        10        14        33     9        0.000000        1.415205         3
         9        10        14        33     9      180.000000        0.029450         4
         9        10        19        12     9        0.000000       -0.398743         1
         9        10        19        12     9      180.000000        0.451216         2
         9        10        19        12     9        0.000000        0.124295         3
         9        10        19        12     9      180.000000        0.133514         4
         9        10        19        13     9        0.000000       -0.398743         1
         9        10        19        13     9      180.000000        0.451216         2
         9        10        19        13     9        0.000000        0.124295         3
         9        10        19        13     9      180.000000        0.133514         4
         9        22        15        20     9        0.000000       -1.077598         1
         9        22        15        20     9      180.000000        7.473703         2
         9        22        15        20     9        0.000000        0.573233         3
         9        22        15        20     9      180.000000       -0.794596         4
        10         9        22        15     9        0.000000       -0.112643         1
        10         9        22        15     9      180.000000       -1.570097         2
        10         9        22        15     9        0.000000        0.300213         3
        10         9        22        15     9      180.000000        0.098634         4
        10         9        22        37     9        0.000000        0.735822         1
        10         9        22        37     9      180.000000       -2.582116         2
        10         9        22        37     9        0.000000        0.347206         3
        10         9        22        37     9      180.000000       -0.105654         4
        10        19        12        11     9        0.000000        0.111760         1
        10        19        12        11     9      180.000000       15.055540         2
        10        19        12        11     9        0.000000       -0.201705         3
        10        19        12        11     9      180.000000       -0.170563         4
        10        19        12        31     9        0.000000       -0.124557         1
        10        19        12        31     9      180.000000       12.506757         2
        10        19        12        31     9        0.000000       -0.366252         3
        10        19        12        31     9      180.000000        0.214424         4
        10        19        13        18     9        0.000000        0.111760         1
        10        19        13        18     9      180.000000       15.055540         2
        10        19        13        18     9        0.000000       -0.201705         3
        10        19        13        18     9      180.000000       -0.170563         4
        10        19        13        32     9        0.000000       -0.124557         1
        10        19        13        32     9      180.000000       12.506757         2
        10        19        13        32     9        0.000000       -0.366252         3
        10        19        13        32     9      180.000000        0.214424         4
        11        12        19        13     9        0.000000       -0.086434         1
        11        12        19        13     9      180.000000       19.280115         2
        11        12        19        13     9        0.000000       -1.377217         3
        11        12        19        13     9      180.000000       -0.484255         4
        11        17        18        13     9        0.000000       -0.065558         1
        11        17        18        13     9      180.000000       18.692617         2
        11        17        18        13     9        0.000000       -1.640948         3
        11        17        18        13     9      180.000000       -0.389537         4
        11        17        18        36     9        0.000000       -0.009820         1
        11        17        18        36     9      180.000000       14.300739         2
        11        17        18        36     9        0.000000       -0.816641         3
        11        17        18        36     9      180.000000        0.159846         4
        12        11        17        18     9        0.000000       -0.065558         1
        12        11        17        18     9      180.000000       18.692617         2
        12        11        17        18     9        0.000000       -1.640948         3
        12        11        17        18     9      180.000000       -0.389537         4
        12        11        17        35     9        0.000000        0.028863         1
        12        11        17        35     9      180.000000       14.422143         2
        12        11        17        35     9        0.000000       -0.784775         3
        12        11        17        35     9      180.000000        0.125003         4
        12        19        10        14     9        0.000000        0.158143         1
        12        19        10        14     9      180.000000        1.522775         2
        12        19        10        14     9        0.000000        0.093469         3
        12        19        10        14     9      180.000000        0.103875         4
        12        19        10        29     9        0.000000        0.061136         1
        12        19        10        29     9      180.000000       -0.249343         2
        12        19        10        29     9        0.000000        0.070958         3
        12        19        10        29     9      180.000000        0.070292         4
        12        19        13        18     9        0.000000       -0.086434         1
        12        19        13        18     9      180.000000       19.280115         2
        12        19        13        18     9        0.000000       -1.377217         3
        12        19        13        18     9      180.000000       -0.484255         4
        12        19        13        32     9        0.000000        0.029677         1
        12        19        13        32     9      180.000000       14.471531         2
        12        19        13        32     9        0.000000       -0.566133         3
        12        19        13        32     9      180.000000        0.014589         4
        13        18        17        35     9        0.000000        0.028863         1
        13        18        17        35     9      180.000000       14.422143         2
        13        18        17        35     9        0.000000       -0.784775         3
        13        18        17        35     9      180.000000        0.125003         4
        13        19        10        14     9        0.000000        0.158143         1
        13        19        10        14     9      180.000000        1.522775         2
        13        19        10        14     9        0.000000        0.093469         3
        13        19        10        14     9      180.000000        0.103875         4
        13        19        10        29     9        0.000000        0.061136         1
        13        19        10        29     9      180.000000       -0.249343         2
        13        19        10        29     9        0.000000        0.070958         3
        13        19        10        29     9      180.000000        0.070292         4
        13        19        12        31     9        0.000000        0.029677         1
        13        19        12        31     9      180.000000       14.471531         2
        13        19        12        31     9        0.000000       -0.566133         3
        13        19        12        31     9      180.000000        0.014589         4
        14        10         9        22     9        0.000000        1.532930         1
        14        10         9        22     9      180.000000       -1.493962         2
        14        10         9        22     9        0.000000        0.714582         3
        14        10         9        22     9      180.000000       -0.146386         4
        14        10         9        27     9        0.000000        0.020955         1
        14        10         9        27     9      180.000000        0.115482         2
        14        10         9        27     9        0.000000        0.678853         3
        14        10         9        27     9      180.000000        0.038725         4
        14        10         9        28     9        0.000000        0.020955         1
        14        10         9        28     9      180.000000        0.115482         2
        14        10         9        28     9        0.000000        0.678853         3
        14        10         9        28     9      180.000000        0.038725         4
        15         8         7        21     9        0.000000       -0.212285         1
        15         8         7        21     9      180.000000       14.785473         2
        15         8         7        21     9        0.000000       -0.440688         3
        15         8         7        21     9      180.000000       -0.577485         4
        15        20        16        21     9        0.000000       -0.320119         1
        15        20        16        21     9      180.000000       16.475745         2
        15        20        16        21     9        0.000000        0.183991         3
        15        20        16        21     9      180.000000       -0.393429         4
        15        20        16        34     9        0.000000        0.459937         1
        15        20        16        34     9      180.000000       16.482063         2
        15        20        16        34     9        0.000000        0.076258         3
        15        20        16        34     9      180.000000       -0.344674         4
        15        22         9        27     9        0.000000       -0.189083         1
        15        22         9        27     9      180.000000        0.185758         2
        15        22         9        27     9        0.000000        0.558846         3
        15        22         9        27     9      180.000000        0.044537         4
        15        22         9        28     9        0.000000       -0.189083         1
        15        22         9        28     9      180.000000        0.185758         2
        15        22         9        28     9        0.000000        0.558846         3
        15        22         9        28     9      180.000000        0.044537         4
        16        20        15        22     9        0.000000        0.461674         1
        16        20        15        22     9      180.000000       20.541055         2
        16        20        15        22     9        0.000000        0.317682         3
        16        20        15        22     9      180.000000       -0.820159         4
        17        11        12        19     9        0.000000        0.054632         1
        17        11        12        19     9      180.000000       18.589551         2
        17        11        12        19     9        0.000000       -1.606416         3
        17        11        12        19     9      180.000000       -0.399485         4
        17        11        12        31     9        0.000000        0.076291         1
        17        11        12        31     9      180.000000       14.619449         2
        17        11        12        31     9        0.000000       -0.694646         3
        17        11        12        31     9      180.000000        0.138086         4
        17        18        13        19     9        0.000000        0.054632         1
        17        18        13        19     9      180.000000       18.589551         2
        17        18        13        19     9        0.000000       -1.606416         3
        17        18        13        19     9      180.000000       -0.399485         4
        17        18        13        32     9        0.000000        0.076291         1
        17        18        13        32     9      180.000000       14.619449         2
        17        18        13        32     9        0.000000       -0.694646         3
        17        18        13        32     9      180.000000        0.138086         4
        18        17        11        30     9        0.000000       -0.009821         1
        18        17        11        30     9      180.000000       14.300738         2
        18        17        11        30     9        0.000000       -0.816642         3
        18        17        11        30     9      180.000000        0.159846         4
        19        10         9        22     9        0.000000       -1.777650         1
        19        10         9        22     9      180.000000        0.755969         2
        19        10         9        22     9        0.000000        0.910026         3
        19        10         9        22     9      180.000000       -0.100294         4
        19        10         9        27     9        0.000000        0.025966         1
        19        10         9        27     9      180.000000        0.106467         2
        19        10         9        27     9        0.000000        0.827034         3
        19        10         9        27     9      180.000000        0.014871         4
        19        10         9        28     9        0.000000        0.025966         1
        19        10         9        28     9      180.000000        0.106467         2
        19        10         9        28     9        0.000000        0.827034         3
        19        10         9        28     9      180.000000        0.014871         4
        19        10        14        33     9        0.000000        1.190209         1
        19        10        14        33     9      180.000000        0.844003         2
        19        10        14        33     9        0.000000        0.980359         3
        19        10        14        33     9      180.000000       -0.135753         4
        19        12        11        30     9        0.000000        0.038018         1
        19        12        11        30     9      180.000000       14.781682         2
        19        12        11        30     9        0.000000       -0.723395         3
        19        12        11        30     9      180.000000        0.097778         4
        19        13        18        36     9        0.000000        0.038019         1
        19        13        18        36     9      180.000000       14.781683         2
        19        13        18        36     9        0.000000       -0.723395         3
        19        13        18        36     9      180.000000        0.097778         4
        20        15         8        26     9        0.000000       -0.258484         1
        20        15         8        26     9      180.000000       11.906267         2
        20        15         8        26     9        0.000000       -0.274305         3
        20        15         8        26     9      180.000000       -0.112986         4
        20        15        22        37     9        0.000000       -0.835638         1
        20        15        22        37     9      180.000000       10.136196         2
        20        15        22        37     9        0.000000       -0.035919         3
        20        15        22        37     9      180.000000       -0.458821         4
        21         7         8        26     9        0.000000       -0.189292         1
        21         7         8        26     9      180.000000       13.477431         2
        21         7         8        26     9        0.000000       -0.199128         3
        21         7         8        26     9      180.000000       -0.056370         4
        22         9        10        29     9        0.000000        0.514712         1
        22         9        10        29     9      180.000000       -0.288521         2
        22         9        10        29     9        0.000000        0.822223         3
        22         9        10        29     9      180.000000        0.051792         4
        22        15         8        26     9        0.000000       -0.215869         1
        22        15         8        26     9      180.000000       12.333077         2
        22        15         8        26     9        0.000000       -0.135218         3
        22        15         8        26     9      180.000000       -0.050610         4
        23         2         4        38     9        0.000000       -0.218961         1
        23         2         4        38     9      180.000000       12.474377         2
        23         2         4        38     9        0.000000       -0.846987         3
        23         2         4        38     9      180.000000        0.375995         4
        24         3         5        25     9        0.000000       -0.218961         1
        24         3         5        25     9      180.000000       12.474377         2
        24         3         5        25     9        0.000000       -0.846987         3
        24         3         5        25     9      180.000000        0.375996         4
        25         5         6        39     9        0.000000        0.048200         1
        25         5         6        39     9      180.000000       11.852273         2
        25         5         6        39     9        0.000000       -0.325746         3
        25         5         6        39     9      180.000000        0.160682         4
        27         9        10        29     9        0.000000       -0.142542         1
        27         9        10        29     9      180.000000        0.095326         2
        27         9        10        29     9        0.000000        0.735648         3
        27         9        10        29     9      180.000000       -0.028866         4
        27         9        22        37     9        0.000000       -0.246940         1
        27         9        22        37     9      180.000000        0.072497         2
        27         9        22        37     9        0.000000        0.555471         3
        27         9        22        37     9      180.000000       -0.006327         4
        28         9        10        29     9        0.000000       -0.142542         1
        28         9        10        29     9      180.000000        0.095326         2
        28         9        10        29     9        0.000000        0.735648         3
        28         9        10        29     9      180.000000       -0.028866         4
        28         9        22        37     9        0.000000       -0.246940         1
        28         9        22        37     9      180.000000        0.072497         2
        28         9        22        37     9        0.000000        0.555471         3
        28         9        22        37     9      180.000000       -0.006327         4
        29        10        14        33     9        0.000000       -0.800852         1
        29        10        14        33     9      180.000000        0.505532         2
        29        10        14        33     9        0.000000        0.806455         3
        29        10        14        33     9      180.000000        0.051913         4
        30        11        12        31     9        0.000000       -0.100728         1
        30        11        12        31     9      180.000000       11.878502         2
        30        11        12        31     9        0.000000       -0.707350         3
        30        11        12        31     9      180.000000        0.299415         4
        30        11        17        35     9        0.000000       -0.090882         1
        30        11        17        35     9      180.000000       11.539986         2
        30        11        17        35     9        0.000000       -0.600996         3
        30        11        17        35     9      180.000000        0.271440         4
        32        13        18        36     9        0.000000       -0.100728         1
        32        13        18        36     9      180.000000       11.878502         2
        32        13        18        36     9        0.000000       -0.707350         3
        32        13        18        36     9      180.000000        0.299414         4
        35        17        18        36     9        0.000000       -0.090881         1
        35        17        18        36     9      180.000000       11.539987         2
        35        17        18        36     9        0.000000       -0.600996         3
        35        17        18        36     9      180.000000        0.271440         4
        38         4         6        39     9        0.000000        0.048199         1
        38         4         6        39     9      180.000000       11.852273         2
        38         4         6        39     9        0.000000       -0.325746         3
        38         4         6        39     9      180.000000        0.160683         4

[ dihedrals ] ; impropers
;       ai        aj        ak        al funct           phase               k        pn
         7         1         8        21     4      180.000000       10.749855         2
         7         8        21         1     4      180.000000       10.749855         2
         7        21         1         8     4      180.000000       10.749855         2
        11        12        17        30     4      180.000000        0.055645         2
        11        17        30        12     4      180.000000        0.055645         2
        11        30        12        17     4      180.000000        0.055645         2
        12        11        19        31     4      180.000000        0.085002         2
        12        19        31        11     4      180.000000        0.085002         2
        12        31        11        19     4      180.000000        0.085002         2
        13        18        19        32     4      180.000000        0.085002         2
        13        19        32        18     4      180.000000        0.085002         2
        13        32        18        19     4      180.000000        0.085002         2
        15         8        20        22     4      180.000000        5.688009         2
        15        20        22         8     4      180.000000        5.688009         2
        15        22         8        20     4      180.000000        5.688009         2
        16        20        21        34     4      180.000000       26.195376         2
        16        21        34        20     4      180.000000       26.195376         2
        16        34        20        21     4      180.000000       26.195376         2
        17        11        18        35     4      180.000000        0.298825         2
        17        18        35        11     4      180.000000        0.298825         2
        17        35        11        18     4      180.000000        0.298825         2
        18        13        17        36     4      180.000000        0.055645         2
        18        17        36        13     4      180.000000        0.055645         2
        18        36        13        17     4      180.000000        0.055645         2

[ pairs ]
;       ai        aj funct
         1         6     1
         1        15     1
         1        16     1
         1        25     1
         1        26     1
         1        38     1
         2         5     1
         2         8     1
         2        21     1
         2        24     1
         2        39     1
         3         4     1
         3         8     1
         3        21     1
         3        23     1
         3        39     1
         4         7     1
         4        25     1
         4        40     1
         4        41     1
         4        42     1
         5         7     1
         5        38     1
         5        40     1
         5        41     1
         5        42     1
         6        23     1
         6        24     1
         7        20     1
         7        22     1
         7        23     1
         7        24     1
         7        34     1
         8         9     1
         8        16     1
         8        37     1
         9        12     1
         9        13     1
         9        20     1
         9        33     1
        10        11     1
        10        15     1
        10        18     1
        10        31     1
        10        32     1
        10        37     1
        11        13     1
        11        36     1
        12        14     1
        12        18     1
        12        29     1
        12        32     1
        12        35     1
        13        14     1
        13        29     1
        13        31     1
        13        35     1
        14        22     1
        14        27     1
        14        28     1
        15        21     1
        15        27     1
        15        28     1
        15        34     1
        16        22     1
        17        19     1
        17        31     1
        17        32     1
        18        30     1
        19        22     1
        19        27     1
        19        28     1
        19        30     1
        19        33     1
        19        36     1
        20        26     1
        20        37     1
        21        26     1
        22        26     1
        22        29     1
        23        38     1
        24        25     1
        25        39     1
        27        29     1
        27        37     1
        28        29     1
        28        37     1
        29        33     1
        30        31     1
        30        35     1
        32        36     1
        35        36     1
        38        39     1
