; ITP file created by ByteFF-ML, 2025-12-06 07:53:43.547865

[ atomtypes ]
;name           bonded.type        at.num        mass        charge   ptype           sigma         epsilon
 c0bf                                   6      0.0000       0.00000       A     3.31473e-01     4.13063e-01
 c1bf                                   6      0.0000       0.00000       A     3.31479e-01     4.12191e-01
 c2bf                                   6      0.0000       0.00000       A     3.31487e-01     4.13015e-01
 c3bf                                   6      0.0000       0.00000       A     3.31473e-01     4.13063e-01
 c4bf                                   6      0.0000       0.00000       A     3.31479e-01     4.12191e-01
 c5bf                                   6      0.0000       0.00000       A     3.31348e-01     4.13864e-01
 c6bf                                   6      0.0000       0.00000       A     3.31589e-01     4.12145e-01
 n7bf                                   7      0.0000       0.00000       A     3.38432e-01     3.92071e-01
 n8bf                                   7      0.0000       0.00000       A     3.38509e-01     3.92962e-01
 c9bf                                   6      0.0000       0.00000       A     3.31533e-01     4.15302e-01
 n10bf                                  7      0.0000       0.00000       A     3.20829e-01     8.43103e-01
 c11bf                                  6      0.0000       0.00000       A     3.39844e-01     4.48152e-01
 c12bf                                  6      0.0000       0.00000       A     3.39915e-01     4.48540e-01
 o13bf                                  8      0.0000       0.00000       A     3.24549e-01     3.87420e-01
 c14bf                                  6      0.0000       0.00000       A     3.40020e-01     4.49999e-01
 o15bf                                  8      0.0000       0.00000       A     3.24320e-01     3.87708e-01
 c16bf                                  6      0.0000       0.00000       A     3.39647e-01     4.56832e-01
 c17bf                                  6      0.0000       0.00000       A     3.39820e-01     4.52529e-01
 o18bf                                  8      0.0000       0.00000       A     3.24359e-01     3.88520e-01
 o19bf                                  8      0.0000       0.00000       A     3.15681e-01     3.03220e-01
 c20bf                                  6      0.0000       0.00000       A     3.39902e-01     4.49017e-01
 s21bf                                 16      0.0000       0.00000       A     3.53471e-01     1.18027e+00
 c22bf                                  6      0.0000       0.00000       A     3.31440e-01     4.14040e-01
 c23bf                                  6      0.0000       0.00000       A     3.31442e-01     4.12547e-01
 c24bf                                  6      0.0000       0.00000       A     3.31490e-01     4.13165e-01
 c25bf                                  6      0.0000       0.00000       A     3.31485e-01     4.12621e-01
 c26bf                                  6      0.0000       0.00000       A     3.31490e-01     4.13165e-01
 c27bf                                  6      0.0000       0.00000       A     3.31442e-01     4.12547e-01
 h28bf                                  1      0.0000       0.00000       A     2.53818e-01     6.75058e-02
 h29bf                                  1      0.0000       0.00000       A     2.42787e-01     8.64894e-02
 h30bf                                  1      0.0000       0.00000       A     2.41856e-01     8.61239e-02
 h31bf                                  1      0.0000       0.00000       A     5.37872e-02     1.99573e-02
 h32bf                                  1      0.0000       0.00000       A     2.42193e-01     8.65469e-02
 h33bf                                  1      0.0000       0.00000       A     5.35538e-02     2.00387e-02
 h34bf                                  1      0.0000       0.00000       A     2.42310e-01     8.69235e-02
 h35bf                                  1      0.0000       0.00000       A     2.42100e-01     8.75827e-02
 h36bf                                  1      0.0000       0.00000       A     2.42100e-01     8.75827e-02
 h37bf                                  1      0.0000       0.00000       A     5.36851e-02     2.04855e-02
 h38bf                                  1      0.0000       0.00000       A     2.25673e-01     8.91197e-02
 h39bf                                  1      0.0000       0.00000       A     2.62590e-01     6.78345e-02
 h40bf                                  1      0.0000       0.00000       A     2.62482e-01     6.71674e-02
 h41bf                                  1      0.0000       0.00000       A     2.62482e-01     6.71674e-02
 h42bf                                  1      0.0000       0.00000       A     2.62590e-01     6.78345e-02
 c43bf                                  6      0.0000       0.00000       A     3.39812e-01     4.50526e-01
 h44bf                                  1      0.0000       0.00000       A     2.59993e-01     8.72348e-02
 h45bf                                  1      0.0000       0.00000       A     2.59993e-01     8.72348e-02
 h46bf                                  1      0.0000       0.00000       A     2.59993e-01     8.72348e-02
 h47bf                                  1      0.0000       0.00000       A     2.62462e-01     6.73892e-02
 h48bf                                  1      0.0000       0.00000       A     2.62535e-01     6.75153e-02
 h49bf                                  1      0.0000       0.00000       A     2.62462e-01     6.73892e-02
 h50bf                                  1      0.0000       0.00000       A     2.62535e-01     6.75153e-02
 h51bf                                  1      0.0000       0.00000       A     2.62457e-01     6.73477e-02

[ moleculetype ]
;name             nrexcl
 17a                   3

[ atoms ]
;       nr            type      resi   res      atom      cgnr      charge          mass ; qtot
         1            c0bf         1   UNL        c0         1    -0.11616       12.0110 ; qtot   -0.116
         2            c1bf         1   UNL        c1         2    -0.09186       12.0110 ; qtot   -0.208
         3            c2bf         1   UNL        c2         3    -0.10304       12.0110 ; qtot   -0.311
         4            c3bf         1   UNL        c3         4    -0.11616       12.0110 ; qtot   -0.427
         5            c4bf         1   UNL        c4         5    -0.09186       12.0110 ; qtot   -0.519
         6            c5bf         1   UNL        c5         6    -0.11614       12.0110 ; qtot   -0.635
         7            c6bf         1   UNL        c6         7     0.25539       12.0110 ; qtot   -0.380
         8            n7bf         1   UNL        n7         8    -0.34589       14.0070 ; qtot   -0.726
         9            n8bf         1   UNL        n8         9    -0.21228       14.0070 ; qtot   -0.938
        10            c9bf         1   UNL        c9        10    -0.17281       12.0110 ; qtot   -1.111
        11           n10bf         1   UNL       n10        11     0.12231       14.0070 ; qtot   -0.988
        12           c11bf         1   UNL       c11        12     0.06917       12.0110 ; qtot   -0.919
        13           c12bf         1   UNL       c12        13     0.18084       12.0110 ; qtot   -0.738
        14           o13bf         1   UNL       o13        14    -0.69248       15.9990 ; qtot   -1.431
        15           c14bf         1   UNL       c14        15     0.16597       12.0110 ; qtot   -1.265
        16           o15bf         1   UNL       o15        16    -0.69733       15.9990 ; qtot   -1.962
        17           c16bf         1   UNL       c16        17     0.12245       12.0110 ; qtot   -1.840
        18           c17bf         1   UNL       c17        18     0.15857       12.0110 ; qtot   -1.681
        19           o18bf         1   UNL       o18        19    -0.67968       15.9990 ; qtot   -2.361
        20           o19bf         1   UNL       o19        20    -0.43842       15.9990 ; qtot   -2.799
        21           c20bf         1   UNL       c20        21     0.30762       12.0110 ; qtot   -2.492
        22           s21bf         1   UNL       s21        22    -0.22319       32.0670 ; qtot   -2.715
        23           c22bf         1   UNL       c22        23    -0.11437       12.0110 ; qtot   -2.829
        24           c23bf         1   UNL       c23        24    -0.07085       12.0110 ; qtot   -2.900
        25           c24bf         1   UNL       c24        25    -0.11727       12.0110 ; qtot   -3.017
        26           c25bf         1   UNL       c25        26    -0.06564       12.0110 ; qtot   -3.083
        27           c26bf         1   UNL       c26        27    -0.11727       12.0110 ; qtot   -3.200
        28           c27bf         1   UNL       c27        28    -0.07085       12.0110 ; qtot   -3.271
        29           h28bf         1   UNL       h28        29     0.17611        1.0080 ; qtot   -3.095
        30           h29bf         1   UNL       h29        30     0.09610        1.0080 ; qtot   -2.999
        31           h30bf         1   UNL       h30        31     0.07453        1.0080 ; qtot   -2.924
        32           h31bf         1   UNL       h31        32     0.49318        1.0080 ; qtot   -2.431
        33           h32bf         1   UNL       h32        33     0.06676        1.0080 ; qtot   -2.365
        34           h33bf         1   UNL       h33        34     0.49179        1.0080 ; qtot   -1.873
        35           h34bf         1   UNL       h34        35     0.07347        1.0080 ; qtot   -1.799
        36           h35bf         1   UNL       h35        36     0.04981        1.0080 ; qtot   -1.749
        37           h36bf         1   UNL       h36        37     0.04981        1.0080 ; qtot   -1.700
        38           h37bf         1   UNL       h37        38     0.46110        1.0080 ; qtot   -1.239
        39           h38bf         1   UNL       h38        39     0.08799        1.0080 ; qtot   -1.151
        40           h39bf         1   UNL       h39        40     0.12284        1.0080 ; qtot   -1.028
        41           h40bf         1   UNL       h40        41     0.11553        1.0080 ; qtot   -0.912
        42           h41bf         1   UNL       h41        42     0.11553        1.0080 ; qtot   -0.797
        43           h42bf         1   UNL       h42        43     0.12284        1.0080 ; qtot   -0.674
        44           c43bf         1   UNL       c43        44    -0.04806       12.0110 ; qtot   -0.722
        45           h44bf         1   UNL       h44        45     0.04333        1.0080 ; qtot   -0.679
        46           h45bf         1   UNL       h45        46     0.04333        1.0080 ; qtot   -0.635
        47           h46bf         1   UNL       h46        47     0.04333        1.0080 ; qtot   -0.592
        48           h47bf         1   UNL       h47        48     0.11514        1.0080 ; qtot   -0.477
        49           h48bf         1   UNL       h48        49     0.12266        1.0080 ; qtot   -0.354
        50           h49bf         1   UNL       h49        50     0.11514        1.0080 ; qtot   -0.239
        51           h50bf         1   UNL       h50        51     0.12266        1.0080 ; qtot   -0.116
        52           h51bf         1   UNL       h51        52     0.11631        1.0080 ; qtot   -0.000

[ bonds ]
;       ai        aj funct               r               k
         1         2     1        0.139601   319124.768213
         1         3     1        0.139974   304831.622559
         1        48     1        0.108644   319000.249268
         2         6     1        0.140687   286777.345898
         2        49     1        0.108525   320819.921533
         3         4     1        0.139974   304831.622559
         3        52     1        0.108616   320706.562305
         4         5     1        0.139601   319124.768213
         4        50     1        0.108644   319000.249268
         5         6     1        0.140687   286777.345898
         5        51     1        0.108525   320819.921533
         6         7     1        0.146759   232216.392383
         7         8     1        0.137347   233884.272070
         7        10     1        0.138852   320604.030811
         8         9     1        0.130572   329626.189404
         9        11     1        0.135510   199180.298071
        10        11     1        0.135791   305009.692822
        10        29     1        0.107890   344754.985889
        11        12     1        0.146154   193615.583179
        12        13     1        0.154119   162583.360303
        12        15     1        0.154118   162576.490820
        12        30     1        0.109333   303022.241748
        13        14     1        0.142135   208733.015649
        13        21     1        0.154044   163767.720361
        13        31     1        0.109548   296027.244434
        14        32     1        0.097570   447174.499805
        15        16     1        0.142523   206605.059399
        15        17     1        0.154084   163172.399268
        15        33     1        0.109618   293622.695752
        16        34     1        0.097438   453206.160742
        17        18     1        0.152837   181609.400586
        17        20     1        0.144022   172846.456421
        17        35     1        0.109738   290579.974707
        18        19     1        0.142806   214851.821973
        18        36     1        0.109612   292209.548730
        18        37     1        0.109612   292209.548730
        19        38     1        0.097057   469375.645508
        20        21     1        0.141198   193409.651929
        21        22     1        0.185356    89023.537988
        21        39     1        0.109428   301568.618408
        22        23     1        0.179110   139046.521631
        23        24     1        0.140242   291728.429590
        23        28     1        0.140242   291728.429590
        24        25     1        0.139734   312067.690186
        24        40     1        0.108549   320360.228027
        25        26     1        0.140319   288269.019531
        25        41     1        0.108726   315373.979736
        26        27     1        0.140319   288269.045068
        26        44     1        0.151086   206426.018726
        27        28     1        0.139734   312067.690186
        27        42     1        0.108726   315373.954199
        28        43     1        0.108549   320360.202490
        44        45     1        0.109458   298881.910205
        44        46     1        0.109458   298881.910205
        44        47     1        0.109458   298881.910205

[ angles ]
;       ai        aj        ak funct           theta             cth
         1         2         6     1      120.513351      697.829988
         1         2        49     1      120.003075      429.014595
         1         3         4     1      119.541588      659.074360
         1         3        52     1      120.251282      428.633167
         2         1         3     1      120.297287      707.650538
         2         1        48     1      119.678635      440.969633
         2         6         5     1      118.699753      574.415011
         2         6         7     1      120.669662      522.878028
         3         1        48     1      120.076614      442.371748
         3         4         5     1      120.297287      707.650538
         3         4        50     1      120.076614      442.371748
         4         3        52     1      120.251282      428.633167
         4         5         6     1      120.513351      697.829988
         4         5        51     1      120.003075      429.014595
         5         4        50     1      119.678635      440.969633
         5         6         7     1      120.669662      522.878028
         6         2        49     1      119.526810      443.285562
         6         5        51     1      119.526810      443.285562
         6         7         8     1      122.007668      601.134042
         6         7        10     1      129.984787      463.735839
         7         8         9     1      109.577652      435.882386
         7        10        11     1      104.883301      170.945330
         7        10        29     1      133.191986      284.360373
         8         7        10     1      107.503372      282.098743
         8         9        11     1      107.807518      708.054535
         9        11        10     1      110.430679      167.360000
         9        11        12     1      120.120522      564.108362
        10        11        12     1      129.071411      460.983992
        11        10        29     1      122.307968      482.685140
        11        12        13     1      111.354050      622.802216
        11        12        15     1      111.512573      625.250458
        11        12        30     1      105.797218      565.058789
        12        13        14     1      110.389603      605.753067
        12        13        21     1      109.448044      623.979923
        12        13        31     1      108.625122      456.211585
        12        15        16     1      110.126266      598.858494
        12        15        17     1      109.662819      634.622258
        12        15        33     1      108.374062      461.169391
        13        12        15     1      111.091370      609.017795
        13        12        30     1      107.746902      473.995372
        13        14        32     1      107.001907      563.536714
        13        21        20     1      111.649391      530.812472
        13        21        22     1      111.121826      476.858434
        13        21        39     1      109.398842      459.056961
        14        13        21     1      110.632996      584.342052
        14        13        31     1      109.505226      454.566357
        15        12        30     1      107.909630      474.972518
        15        16        34     1      107.163124      571.830145
        15        17        18     1      113.952560      623.316980
        15        17        20     1      110.586624      537.401014
        15        17        35     1      107.974205      474.645483
        16        15        17     1      110.194969      604.101773
        16        15        33     1      109.353859      458.374450
        17        15        33     1      108.484055      460.689868
        17        18        19     1      111.065964      625.867882
        17        18        36     1      109.070946      478.304951
        17        18        37     1      109.070946      478.304951
        17        20        21     1      114.299454      561.641094
        18        17        20     1      107.501694      641.977776
        18        17        35     1      108.404587      488.419881
        18        19        38     1      107.524818      590.048638
        19        18        36     1      109.382347      473.459476
        19        18        37     1      109.382347      473.459476
        20        17        35     1      107.711388      457.078250
        20        21        22     1      109.595230      522.927794
        20        21        39     1      108.505630      449.403998
        21        13        31     1      108.186974      467.658722
        21        22        23     1      100.042709      754.237185
        22        21        39     1      107.190735      378.175222
        22        23        24     1      120.348312      387.060029
        22        23        28     1      120.348312      387.060029
        23        24        25     1      120.173141      641.204193
        23        24        40     1      119.877075      381.600770
        23        28        27     1      120.173141      641.204193
        23        28        43     1      119.877075      381.600770
        24        23        28     1      119.113083      679.871079
        24        25        26     1      121.290512      701.461811
        24        25        41     1      119.123268      429.501907
        25        24        40     1      119.993553      418.843388
        25        26        27     1      117.876991      697.308456
        25        26        44     1      121.020920      483.446433
        26        25        41     1      119.593529      395.778207
        26        27        28     1      121.290504      701.461748
        26        27        42     1      119.593529      395.778207
        26        44        45     1      111.248535      482.985073
        26        44        46     1      111.248535      482.985073
        26        44        47     1      111.248535      482.985073
        27        26        44     1      121.020920      483.446433
        27        28        43     1      119.993553      418.843388
        28        27        42     1      119.123268      429.501939
        36        18        37     1      108.155106      339.092304
        45        44        46     1      107.633995      359.456202
        45        44        47     1      107.633995      359.456202
        46        44        47     1      107.633995      359.456202

[ dihedrals ] ; propers for gromacs 4.5 or higher, use funct 9
;       ai        aj        ak        al funct           phase               k        pn
         1         2         6         5     9        0.000000       -0.107478         1
         1         2         6         5     9      180.000000       18.041836         2
         1         2         6         5     9        0.000000       -1.329662         3
         1         2         6         5     9      180.000000       -0.365698         4
         1         2         6         7     9        0.000000        0.203503         1
         1         2         6         7     9      180.000000       16.077138         2
         1         2         6         7     9        0.000000       -0.217822         3
         1         2         6         7     9      180.000000       -0.304197         4
         1         3         4         5     9        0.000000        0.007009         1
         1         3         4         5     9      180.000000       18.285354         2
         1         3         4         5     9        0.000000       -1.497808         3
         1         3         4         5     9      180.000000       -0.367587         4
         1         3         4        50     9        0.000000       -0.011950         1
         1         3         4        50     9      180.000000       14.386241         2
         1         3         4        50     9        0.000000       -0.714388         3
         1         3         4        50     9      180.000000        0.161851         4
         2         1         3         4     9        0.000000        0.007009         1
         2         1         3         4     9      180.000000       18.285354         2
         2         1         3         4     9        0.000000       -1.497808         3
         2         1         3         4     9      180.000000       -0.367587         4
         2         1         3        52     9        0.000000        0.013441         1
         2         1         3        52     9      180.000000       13.963729         2
         2         1         3        52     9        0.000000       -0.697173         3
         2         1         3        52     9      180.000000        0.142310         4
         2         6         5         4     9        0.000000       -0.107478         1
         2         6         5         4     9      180.000000       18.041836         2
         2         6         5         4     9        0.000000       -1.329662         3
         2         6         5         4     9      180.000000       -0.365698         4
         2         6         5        51     9        0.000000       -0.045955         1
         2         6         5        51     9      180.000000       13.768428         2
         2         6         5        51     9        0.000000       -0.571879         3
         2         6         5        51     9      180.000000        0.097070         4
         2         6         7         8     9        0.000000       -0.090113         1
         2         6         7         8     9      180.000000        3.125650         2
         2         6         7         8     9        0.000000       -0.088072         3
         2         6         7         8     9      180.000000        0.013432         4
         2         6         7        10     9        0.000000        0.017473         1
         2         6         7        10     9      180.000000        2.712141         2
         2         6         7        10     9        0.000000        0.218215         3
         2         6         7        10     9      180.000000       -0.309706         4
         3         1         2         6     9        0.000000       -0.052031         1
         3         1         2         6     9      180.000000       19.229358         2
         3         1         2         6     9        0.000000       -1.614744         3
         3         1         2         6     9      180.000000       -0.351194         4
         3         1         2        49     9        0.000000        0.011871         1
         3         1         2        49     9      180.000000       15.040154         2
         3         1         2        49     9        0.000000       -0.664846         3
         3         1         2        49     9      180.000000        0.162512         4
         3         4         5         6     9        0.000000       -0.052031         1
         3         4         5         6     9      180.000000       19.229358         2
         3         4         5         6     9        0.000000       -1.614744         3
         3         4         5         6     9      180.000000       -0.351194         4
         3         4         5        51     9        0.000000        0.011871         1
         3         4         5        51     9      180.000000       15.040154         2
         3         4         5        51     9        0.000000       -0.664846         3
         3         4         5        51     9      180.000000        0.162512         4
         4         3         1        48     9        0.000000       -0.011950         1
         4         3         1        48     9      180.000000       14.386241         2
         4         3         1        48     9        0.000000       -0.714388         3
         4         3         1        48     9      180.000000        0.161851         4
         4         5         6         7     9        0.000000        0.203503         1
         4         5         6         7     9      180.000000       16.077138         2
         4         5         6         7     9        0.000000       -0.217822         3
         4         5         6         7     9      180.000000       -0.304197         4
         5         4         3        52     9        0.000000        0.013441         1
         5         4         3        52     9      180.000000       13.963729         2
         5         4         3        52     9        0.000000       -0.697173         3
         5         4         3        52     9      180.000000        0.142310         4
         5         6         2        49     9        0.000000       -0.045955         1
         5         6         2        49     9      180.000000       13.768428         2
         5         6         2        49     9        0.000000       -0.571879         3
         5         6         2        49     9      180.000000        0.097070         4
         5         6         7         8     9        0.000000       -0.090113         1
         5         6         7         8     9      180.000000        3.125650         2
         5         6         7         8     9        0.000000       -0.088072         3
         5         6         7         8     9      180.000000        0.013432         4
         5         6         7        10     9        0.000000        0.017473         1
         5         6         7        10     9      180.000000        2.712141         2
         5         6         7        10     9        0.000000        0.218215         3
         5         6         7        10     9      180.000000       -0.309706         4
         6         2         1        48     9        0.000000       -0.068103         1
         6         2         1        48     9      180.000000       15.202539         2
         6         2         1        48     9        0.000000       -0.595139         3
         6         2         1        48     9      180.000000        0.096859         4
         6         5         4        50     9        0.000000       -0.068103         1
         6         5         4        50     9      180.000000       15.202539         2
         6         5         4        50     9        0.000000       -0.595139         3
         6         5         4        50     9      180.000000        0.096859         4
         6         7         8         9     9        0.000000        0.662522         1
         6         7         8         9     9      180.000000       24.404433         2
         6         7         8         9     9        0.000000        0.883432         3
         6         7         8         9     9      180.000000       -0.701196         4
         6         7        10        11     9        0.000000        0.380808         1
         6         7        10        11     9      180.000000       18.306357         2
         6         7        10        11     9        0.000000       -0.079288         3
         6         7        10        11     9      180.000000       -1.097789         4
         6         7        10        29     9        0.000000       -0.438888         1
         6         7        10        29     9      180.000000        9.879893         2
         6         7        10        29     9        0.000000       -0.057048         3
         6         7        10        29     9      180.000000        0.038780         4
         7         6         2        49     9        0.000000        0.014324         1
         7         6         2        49     9      180.000000       12.753813         2
         7         6         2        49     9        0.000000       -0.212721         3
         7         6         2        49     9      180.000000        0.199010         4
         7         6         5        51     9        0.000000        0.014324         1
         7         6         5        51     9      180.000000       12.753813         2
         7         6         5        51     9        0.000000       -0.212721         3
         7         6         5        51     9      180.000000        0.199010         4
         7         8         9        11     9        0.000000        0.164570         1
         7         8         9        11     9      180.000000       44.137231         2
         7         8         9        11     9        0.000000       -4.540948         3
         7         8         9        11     9      180.000000        0.243764         4
         7        10        11         9     9        0.000000        0.167343         1
         7        10        11         9     9      180.000000       28.082096         2
         7        10        11         9     9        0.000000       -7.171373         3
         7        10        11         9     9      180.000000       -0.286456         4
         7        10        11        12     9        0.000000        0.983626         1
         7        10        11        12     9      180.000000        6.454793         2
         7        10        11        12     9        0.000000        0.956868         3
         7        10        11        12     9      180.000000       -0.240801         4
         8         7        10        11     9        0.000000       -0.369793         1
         8         7        10        11     9      180.000000       33.332913         2
         8         7        10        11     9        0.000000       -8.557287         3
         8         7        10        11     9      180.000000        0.233055         4
         8         7        10        29     9        0.000000        0.483430         1
         8         7        10        29     9      180.000000       14.323353         2
         8         7        10        29     9        0.000000       -0.430771         3
         8         7        10        29     9      180.000000       -0.458680         4
         8         9        11        10     9        0.000000       -0.237936         1
         8         9        11        10     9      180.000000       35.356994         2
         8         9        11        10     9        0.000000       -5.585615         3
         8         9        11        10     9      180.000000       -0.169170         4
         8         9        11        12     9        0.000000        1.186084         1
         8         9        11        12     9      180.000000       14.567770         2
         8         9        11        12     9        0.000000        1.211127         3
         8         9        11        12     9      180.000000       -0.410480         4
         9         8         7        10     9        0.000000       -0.126927         1
         9         8         7        10     9      180.000000       36.150791         2
         9         8         7        10     9        0.000000       -6.289771         3
         9         8         7        10     9      180.000000        0.067851         4
         9        11        10        29     9        0.000000        1.151930         1
         9        11        10        29     9      180.000000       11.548645         2
         9        11        10        29     9        0.000000       -0.131534         3
         9        11        10        29     9      180.000000       -0.252845         4
         9        11        12        13     9        0.000000       -1.430817         1
         9        11        12        13     9      180.000000        0.102354         2
         9        11        12        13     9        0.000000        0.158706         3
         9        11        12        13     9      180.000000        0.123059         4
         9        11        12        15     9        0.000000       -1.362464         1
         9        11        12        15     9      180.000000       -0.005544         2
         9        11        12        15     9        0.000000        0.173684         3
         9        11        12        15     9      180.000000        0.124316         4
         9        11        12        30     9        0.000000        0.281416         1
         9        11        12        30     9      180.000000        0.284845         2
         9        11        12        30     9        0.000000        0.121793         3
         9        11        12        30     9      180.000000        0.147238         4
        10        11        12        13     9        0.000000       -0.465341         1
        10        11        12        13     9      180.000000       -0.065043         2
        10        11        12        13     9        0.000000        0.343835         3
        10        11        12        13     9      180.000000        0.048206         4
        10        11        12        15     9        0.000000       -0.312170         1
        10        11        12        15     9      180.000000       -0.087549         2
        10        11        12        15     9        0.000000        0.357613         3
        10        11        12        15     9      180.000000        0.068133         4
        10        11        12        30     9        0.000000       -0.232840         1
        10        11        12        30     9      180.000000        0.196606         2
        10        11        12        30     9        0.000000        0.373761         3
        10        11        12        30     9      180.000000        0.103526         4
        11        12        13        14     9        0.000000       -2.463697         1
        11        12        13        14     9      180.000000       -0.808068         2
        11        12        13        14     9        0.000000        0.521108         3
        11        12        13        14     9      180.000000        0.128341         4
        11        12        13        21     9        0.000000       -0.946293         1
        11        12        13        21     9      180.000000        0.064705         2
        11        12        13        21     9        0.000000        0.144956         3
        11        12        13        21     9      180.000000        0.074243         4
        11        12        13        31     9        0.000000        0.224747         1
        11        12        13        31     9      180.000000       -0.236548         2
        11        12        13        31     9        0.000000        0.515857         3
        11        12        13        31     9      180.000000       -0.015950         4
        11        12        15        16     9        0.000000       -2.413902         1
        11        12        15        16     9      180.000000       -1.075098         2
        11        12        15        16     9        0.000000        0.532202         3
        11        12        15        16     9      180.000000        0.117168         4
        11        12        15        17     9        0.000000       -1.070255         1
        11        12        15        17     9      180.000000        0.308457         2
        11        12        15        17     9        0.000000        0.196837         3
        11        12        15        17     9      180.000000        0.098929         4
        11        12        15        33     9        0.000000        0.363147         1
        11        12        15        33     9      180.000000       -0.221877         2
        11        12        15        33     9        0.000000        0.510290         3
        11        12        15        33     9      180.000000       -0.015168         4
        12        11        10        29     9        0.000000       -0.141631         1
        12        11        10        29     9      180.000000        4.403927         2
        12        11        10        29     9        0.000000        0.419636         3
        12        11        10        29     9      180.000000        0.096306         4
        12        13        14        32     9        0.000000        5.987333         1
        12        13        14        32     9      180.000000       -4.747754         2
        12        13        14        32     9        0.000000        1.129336         3
        12        13        14        32     9      180.000000        0.152684         4
        12        13        21        20     9        0.000000        1.404796         1
        12        13        21        20     9      180.000000       -0.533586         2
        12        13        21        20     9        0.000000        0.143473         3
        12        13        21        20     9      180.000000        0.076550         4
        12        13        21        22     9        0.000000        0.885682         1
        12        13        21        22     9      180.000000       -0.202842         2
        12        13        21        22     9        0.000000        0.400566         3
        12        13        21        22     9      180.000000        0.241703         4
        12        13        21        39     9        0.000000        0.104334         1
        12        13        21        39     9      180.000000        0.069537         2
        12        13        21        39     9        0.000000        0.323965         3
        12        13        21        39     9      180.000000        0.017968         4
        12        15        16        34     9        0.000000        6.080281         1
        12        15        16        34     9      180.000000       -4.822805         2
        12        15        16        34     9        0.000000        1.193464         3
        12        15        16        34     9      180.000000        0.201441         4
        12        15        17        18     9        0.000000       -0.954921         1
        12        15        17        18     9      180.000000        0.598739         2
        12        15        17        18     9        0.000000        0.085886         3
        12        15        17        18     9      180.000000        0.019592         4
        12        15        17        20     9        0.000000        1.787515         1
        12        15        17        20     9      180.000000       -0.719445         2
        12        15        17        20     9        0.000000       -0.027704         3
        12        15        17        20     9      180.000000        0.218562         4
        12        15        17        35     9        0.000000       -0.346586         1
        12        15        17        35     9      180.000000       -0.049500         2
        12        15        17        35     9        0.000000        0.225967         3
        12        15        17        35     9      180.000000        0.120881         4
        13        12        15        16     9        0.000000       -2.995139         1
        13        12        15        16     9      180.000000        0.870827         2
        13        12        15        16     9        0.000000        0.087350         3
        13        12        15        16     9      180.000000        0.206179         4
        13        12        15        17     9        0.000000        2.459158         1
        13        12        15        17     9      180.000000       -1.294981         2
        13        12        15        17     9        0.000000       -0.205708         3
        13        12        15        17     9      180.000000        0.051835         4
        13        12        15        33     9        0.000000       -0.313474         1
        13        12        15        33     9      180.000000        0.009833         2
        13        12        15        33     9        0.000000        0.171838         3
        13        12        15        33     9      180.000000        0.023640         4
        13        21        20        17     9        0.000000        4.426470         1
        13        21        20        17     9      180.000000       -1.814803         2
        13        21        20        17     9        0.000000       -0.132018         3
        13        21        20        17     9      180.000000        0.157704         4
        13        21        22        23     9        0.000000        0.288375         1
        13        21        22        23     9      180.000000       -0.479928         2
        13        21        22        23     9        0.000000        0.676080         3
        13        21        22        23     9      180.000000       -0.043483         4
        14        13        12        15     9        0.000000       -3.075579         1
        14        13        12        15     9      180.000000        0.844037         2
        14        13        12        15     9        0.000000        0.102254         3
        14        13        12        15     9      180.000000        0.211494         4
        14        13        12        30     9        0.000000       -0.221096         1
        14        13        12        30     9      180.000000        0.232592         2
        14        13        12        30     9        0.000000        0.374559         3
        14        13        12        30     9      180.000000       -0.064397         4
        14        13        21        20     9        0.000000       -0.853634         1
        14        13        21        20     9      180.000000       -0.261158         2
        14        13        21        20     9        0.000000        0.450676         3
        14        13        21        20     9      180.000000       -0.054142         4
        14        13        21        22     9        0.000000        1.136788         1
        14        13        21        22     9      180.000000        0.071958         2
        14        13        21        22     9        0.000000        0.753281         3
        14        13        21        22     9      180.000000        0.029231         4
        14        13        21        39     9        0.000000        0.505888         1
        14        13        21        39     9      180.000000        0.384251         2
        14        13        21        39     9        0.000000        0.478938         3
        14        13        21        39     9      180.000000       -0.092338         4
        15        12        13        21     9        0.000000        2.173779         1
        15        12        13        21     9      180.000000       -1.124245         2
        15        12        13        21     9        0.000000       -0.285708         3
        15        12        13        21     9      180.000000       -0.003598         4
        15        12        13        31     9        0.000000       -0.351313         1
        15        12        13        31     9      180.000000        0.007069         2
        15        12        13        31     9        0.000000        0.174709         3
        15        12        13        31     9      180.000000        0.033627         4
        15        17        18        19     9        0.000000       -0.227661         1
        15        17        18        19     9      180.000000        0.198709         2
        15        17        18        19     9        0.000000        0.575653         3
        15        17        18        19     9      180.000000        0.042898         4
        15        17        18        36     9        0.000000       -0.018814         1
        15        17        18        36     9      180.000000        0.048557         2
        15        17        18        36     9        0.000000        0.576120         3
        15        17        18        36     9      180.000000        0.074092         4
        15        17        18        37     9        0.000000       -0.018814         1
        15        17        18        37     9      180.000000        0.048557         2
        15        17        18        37     9        0.000000        0.576120         3
        15        17        18        37     9      180.000000        0.074092         4
        15        17        20        21     9        0.000000        4.352346         1
        15        17        20        21     9      180.000000       -2.206175         2
        15        17        20        21     9        0.000000       -0.003556         3
        15        17        20        21     9      180.000000        0.165333         4
        16        15        12        30     9        0.000000       -0.200581         1
        16        15        12        30     9      180.000000        0.220304         2
        16        15        12        30     9        0.000000        0.389118         3
        16        15        12        30     9      180.000000       -0.058463         4
        16        15        17        18     9        0.000000        0.016896         1
        16        15        17        18     9      180.000000        0.496116         2
        16        15        17        18     9        0.000000        0.448333         3
        16        15        17        18     9      180.000000       -0.009281         4
        16        15        17        20     9        0.000000       -0.545333         1
        16        15        17        20     9      180.000000       -0.637964         2
        16        15        17        20     9        0.000000        0.329188         3
        16        15        17        20     9      180.000000        0.018467         4
        16        15        17        35     9        0.000000        0.285187         1
        16        15        17        35     9      180.000000        0.379094         2
        16        15        17        35     9        0.000000        0.476484         3
        16        15        17        35     9      180.000000       -0.166707         4
        17        15        12        30     9        0.000000       -0.763999         1
        17        15        12        30     9      180.000000        0.074255         2
        17        15        12        30     9        0.000000        0.094457         3
        17        15        12        30     9      180.000000        0.111201         4
        17        15        16        34     9        0.000000        7.727266         1
        17        15        16        34     9      180.000000       -5.206494         2
        17        15        16        34     9        0.000000        1.323975         3
        17        15        16        34     9      180.000000        0.328749         4
        17        18        19        38     9        0.000000        4.007016         1
        17        18        19        38     9      180.000000       -3.320209         2
        17        18        19        38     9        0.000000        1.326460         3
        17        18        19        38     9      180.000000        0.255147         4
        17        20        21        22     9        0.000000       -0.375262         1
        17        20        21        22     9      180.000000       -3.083586         2
        17        20        21        22     9        0.000000        0.304677         3
        17        20        21        22     9      180.000000        0.420919         4
        17        20        21        39     9        0.000000        0.266636         1
        17        20        21        39     9      180.000000        0.330187         2
        17        20        21        39     9        0.000000        0.477844         3
        17        20        21        39     9      180.000000       -0.186567         4
        18        17        15        33     9        0.000000       -0.201523         1
        18        17        15        33     9      180.000000        0.092106         2
        18        17        15        33     9        0.000000        0.387143         3
        18        17        15        33     9      180.000000       -0.008226         4
        18        17        20        21     9        0.000000       -0.966881         1
        18        17        20        21     9      180.000000        0.096258         2
        18        17        20        21     9        0.000000        0.174197         3
        18        17        20        21     9      180.000000        0.002285         4
        19        18        17        20     9        0.000000        0.402627         1
        19        18        17        20     9      180.000000       -1.643645         2
        19        18        17        20     9        0.000000        0.640951         3
        19        18        17        20     9      180.000000       -0.056513         4
        19        18        17        35     9        0.000000        0.211518         1
        19        18        17        35     9      180.000000        0.462525         2
        19        18        17        35     9        0.000000        0.743999         3
        19        18        17        35     9      180.000000        0.005084         4
        20        17        15        33     9        0.000000       -0.462764         1
        20        17        15        33     9      180.000000        0.209772         2
        20        17        15        33     9        0.000000        0.208553         3
        20        17        15        33     9      180.000000        0.011047         4
        20        17        18        36     9        0.000000        0.093355         1
        20        17        18        36     9      180.000000        0.124033         2
        20        17        18        36     9        0.000000        0.565329         3
        20        17        18        36     9      180.000000        0.025602         4
        20        17        18        37     9        0.000000        0.093355         1
        20        17        18        37     9      180.000000        0.124033         2
        20        17        18        37     9        0.000000        0.565329         3
        20        17        18        37     9      180.000000        0.025602         4
        20        21        13        31     9        0.000000       -0.261393         1
        20        21        13        31     9      180.000000        0.249258         2
        20        21        13        31     9        0.000000        0.357451         3
        20        21        13        31     9      180.000000       -0.040922         4
        20        21        22        23     9        0.000000       -1.894297         1
        20        21        22        23     9      180.000000       -2.746319         2
        20        21        22        23     9        0.000000        0.615789         3
        20        21        22        23     9      180.000000        0.127890         4
        21        13        12        30     9        0.000000       -0.963254         1
        21        13        12        30     9      180.000000       -0.044985         2
        21        13        12        30     9        0.000000        0.041362         3
        21        13        12        30     9      180.000000        0.127888         4
        21        13        14        32     9        0.000000        8.623688         1
        21        13        14        32     9      180.000000       -5.226138         2
        21        13        14        32     9        0.000000        1.322936         3
        21        13        14        32     9      180.000000        0.245137         4
        21        20        17        35     9        0.000000       -0.287618         1
        21        20        17        35     9      180.000000       -0.309009         2
        21        20        17        35     9        0.000000        0.387380         3
        21        20        17        35     9      180.000000        0.045662         4
        21        22        23        24     9        0.000000        0.284689         1
        21        22        23        24     9      180.000000        2.064076         2
        21        22        23        24     9        0.000000        0.006933         3
        21        22        23        24     9      180.000000        0.354834         4
        21        22        23        28     9        0.000000        0.284689         1
        21        22        23        28     9      180.000000        2.064076         2
        21        22        23        28     9        0.000000        0.006934         3
        21        22        23        28     9      180.000000        0.354834         4
        22        21        13        31     9        0.000000        0.252548         1
        22        21        13        31     9      180.000000       -0.123767         2
        22        21        13        31     9        0.000000        0.596959         3
        22        21        13        31     9      180.000000       -0.099829         4
        22        23        24        25     9        0.000000        0.090767         1
        22        23        24        25     9      180.000000       14.906646         2
        22        23        24        25     9        0.000000        0.077297         3
        22        23        24        25     9      180.000000       -0.276970         4
        22        23        24        40     9        0.000000        0.034745         1
        22        23        24        40     9      180.000000       12.254993         2
        22        23        24        40     9        0.000000        0.012883         3
        22        23        24        40     9      180.000000        0.080875         4
        22        23        28        27     9        0.000000        0.090767         1
        22        23        28        27     9      180.000000       14.906646         2
        22        23        28        27     9        0.000000        0.077296         3
        22        23        28        27     9      180.000000       -0.276971         4
        22        23        28        43     9        0.000000        0.034744         1
        22        23        28        43     9      180.000000       12.254991         2
        22        23        28        43     9        0.000000        0.012883         3
        22        23        28        43     9      180.000000        0.080876         4
        23        22        21        39     9        0.000000        1.415589         1
        23        22        21        39     9      180.000000       -0.246318         2
        23        22        21        39     9        0.000000        0.951127         3
        23        22        21        39     9      180.000000       -0.121517         4
        23        24        25        26     9        0.000000        0.008502         1
        23        24        25        26     9      180.000000       18.033237         2
        23        24        25        26     9        0.000000       -1.503915         3
        23        24        25        26     9      180.000000       -0.413491         4
        23        24        25        41     9        0.000000        0.103564         1
        23        24        25        41     9      180.000000       14.220273         2
        23        24        25        41     9        0.000000       -0.516611         3
        23        24        25        41     9      180.000000        0.127951         4
        23        28        27        26     9        0.000000        0.008502         1
        23        28        27        26     9      180.000000       18.033237         2
        23        28        27        26     9        0.000000       -1.503914         3
        23        28        27        26     9      180.000000       -0.413491         4
        23        28        27        42     9        0.000000        0.103564         1
        23        28        27        42     9      180.000000       14.220274         2
        23        28        27        42     9        0.000000       -0.516611         3
        23        28        27        42     9      180.000000        0.127951         4
        24        23        28        27     9        0.000000        0.084359         1
        24        23        28        27     9      180.000000       18.238248         2
        24        23        28        27     9        0.000000       -1.324122         3
        24        23        28        27     9      180.000000       -0.437229         4
        24        23        28        43     9        0.000000        0.085492         1
        24        23        28        43     9      180.000000       13.243304         2
        24        23        28        43     9        0.000000       -0.540870         3
        24        23        28        43     9      180.000000        0.076148         4
        24        25        26        27     9        0.000000       -0.066714         1
        24        25        26        27     9      180.000000       18.829510         2
        24        25        26        27     9        0.000000       -1.336609         3
        24        25        26        27     9      180.000000       -0.462958         4
        24        25        26        44     9        0.000000        0.142438         1
        24        25        26        44     9      180.000000       15.590057         2
        24        25        26        44     9        0.000000       -0.174449         3
        24        25        26        44     9      180.000000       -0.113364         4
        25        24        23        28     9        0.000000        0.084359         1
        25        24        23        28     9      180.000000       18.238252         2
        25        24        23        28     9        0.000000       -1.324121         3
        25        24        23        28     9      180.000000       -0.437229         4
        25        26        27        28     9        0.000000       -0.066714         1
        25        26        27        28     9      180.000000       18.829510         2
        25        26        27        28     9        0.000000       -1.336610         3
        25        26        27        28     9      180.000000       -0.462957         4
        25        26        27        42     9        0.000000       -0.040103         1
        25        26        27        42     9      180.000000       14.335382         2
        25        26        27        42     9        0.000000       -0.542025         3
        25        26        27        42     9      180.000000        0.083422         4
        25        26        44        45     9        0.000000       -0.021448         1
        25        26        44        45     9      180.000000        0.013149         2
        25        26        44        45     9        0.000000       -0.015868         3
        25        26        44        45     9      180.000000        0.007989         4
        25        26        44        46     9        0.000000       -0.021448         1
        25        26        44        46     9      180.000000        0.013149         2
        25        26        44        46     9        0.000000       -0.015868         3
        25        26        44        46     9      180.000000        0.007989         4
        25        26        44        47     9        0.000000       -0.021448         1
        25        26        44        47     9      180.000000        0.013149         2
        25        26        44        47     9        0.000000       -0.015868         3
        25        26        44        47     9      180.000000        0.007989         4
        26        25        24        40     9        0.000000        0.140304         1
        26        25        24        40     9      180.000000       14.166239         2
        26        25        24        40     9        0.000000       -0.708833         3
        26        25        24        40     9      180.000000        0.143764         4
        26        27        28        43     9        0.000000        0.140305         1
        26        27        28        43     9      180.000000       14.166239         2
        26        27        28        43     9        0.000000       -0.708833         3
        26        27        28        43     9      180.000000        0.143764         4
        27        26        25        41     9        0.000000       -0.040103         1
        27        26        25        41     9      180.000000       14.335381         2
        27        26        25        41     9        0.000000       -0.542024         3
        27        26        25        41     9      180.000000        0.083423         4
        27        26        44        45     9        0.000000       -0.021448         1
        27        26        44        45     9      180.000000        0.013149         2
        27        26        44        45     9        0.000000       -0.015868         3
        27        26        44        45     9      180.000000        0.007989         4
        27        26        44        46     9        0.000000       -0.021448         1
        27        26        44        46     9      180.000000        0.013149         2
        27        26        44        46     9        0.000000       -0.015868         3
        27        26        44        46     9      180.000000        0.007989         4
        27        26        44        47     9        0.000000       -0.021448         1
        27        26        44        47     9      180.000000        0.013149         2
        27        26        44        47     9        0.000000       -0.015868         3
        27        26        44        47     9      180.000000        0.007989         4
        28        23        24        40     9        0.000000        0.085492         1
        28        23        24        40     9      180.000000       13.243304         2
        28        23        24        40     9        0.000000       -0.540870         3
        28        23        24        40     9      180.000000        0.076148         4
        28        27        26        44     9        0.000000        0.142438         1
        28        27        26        44     9      180.000000       15.590057         2
        28        27        26        44     9        0.000000       -0.174449         3
        28        27        26        44     9      180.000000       -0.113364         4
        30        12        13        31     9        0.000000        0.403592         1
        30        12        13        31     9      180.000000        0.247009         2
        30        12        13        31     9        0.000000        0.441818         3
        30        12        13        31     9      180.000000       -0.177686         4
        30        12        15        33     9        0.000000        0.451068         1
        30        12        15        33     9      180.000000        0.148263         2
        30        12        15        33     9        0.000000        0.447451         3
        30        12        15        33     9      180.000000       -0.170967         4
        31        13        14        32     9        0.000000        2.433431         1
        31        13        14        32     9      180.000000       -1.780002         2
        31        13        14        32     9        0.000000        0.608029         3
        31        13        14        32     9      180.000000        0.328178         4
        31        13        21        39     9        0.000000        0.109987         1
        31        13        21        39     9      180.000000        0.118905         2
        31        13        21        39     9        0.000000        0.596732         3
        31        13        21        39     9      180.000000       -0.114269         4
        33        15        16        34     9        0.000000        2.929974         1
        33        15        16        34     9      180.000000       -2.028959         2
        33        15        16        34     9        0.000000        0.666360         3
        33        15        16        34     9      180.000000        0.366349         4
        33        15        17        35     9        0.000000        0.364640         1
        33        15        17        35     9      180.000000        0.035578         2
        33        15        17        35     9        0.000000        0.640265         3
        33        15        17        35     9      180.000000       -0.194472         4
        35        17        18        36     9        0.000000        0.052025         1
        35        17        18        36     9      180.000000       -0.013893         2
        35        17        18        36     9        0.000000        0.749390         3
        35        17        18        36     9      180.000000       -0.067040         4
        35        17        18        37     9        0.000000        0.052025         1
        35        17        18        37     9      180.000000       -0.013893         2
        35        17        18        37     9        0.000000        0.749390         3
        35        17        18        37     9      180.000000       -0.067040         4
        36        18        19        38     9        0.000000        0.213708         1
        36        18        19        38     9      180.000000       -0.140067         2
        36        18        19        38     9        0.000000        0.920910         3
        36        18        19        38     9      180.000000        0.084170         4
        37        18        19        38     9        0.000000        0.213708         1
        37        18        19        38     9      180.000000       -0.140067         2
        37        18        19        38     9        0.000000        0.920910         3
        37        18        19        38     9      180.000000        0.084170         4
        40        24        25        41     9        0.000000       -0.061596         1
        40        24        25        41     9      180.000000       12.072529         2
        40        24        25        41     9        0.000000       -0.716058         3
        40        24        25        41     9      180.000000        0.281920         4
        41        25        26        44     9        0.000000       -0.150870         1
        41        25        26        44     9      180.000000       12.936878         2
        41        25        26        44     9        0.000000       -0.352460         3
        41        25        26        44     9      180.000000        0.224871         4
        42        27        26        44     9        0.000000       -0.150870         1
        42        27        26        44     9      180.000000       12.936876         2
        42        27        26        44     9        0.000000       -0.352460         3
        42        27        26        44     9      180.000000        0.224871         4
        42        27        28        43     9        0.000000       -0.061596         1
        42        27        28        43     9      180.000000       12.072528         2
        42        27        28        43     9        0.000000       -0.716058         3
        42        27        28        43     9      180.000000        0.281920         4
        48         1         2        49     9        0.000000       -0.213850         1
        48         1         2        49     9      180.000000       12.206650         2
        48         1         2        49     9        0.000000       -0.697006         3
        48         1         2        49     9      180.000000        0.349882         4
        48         1         3        52     9        0.000000       -0.094408         1
        48         1         3        52     9      180.000000       11.271616         2
        48         1         3        52     9        0.000000       -0.530700         3
        48         1         3        52     9      180.000000        0.253129         4
        50         4         3        52     9        0.000000       -0.094408         1
        50         4         3        52     9      180.000000       11.271616         2
        50         4         3        52     9        0.000000       -0.530700         3
        50         4         3        52     9      180.000000        0.253129         4
        50         4         5        51     9        0.000000       -0.213850         1
        50         4         5        51     9      180.000000       12.206650         2
        50         4         5        51     9        0.000000       -0.697006         3
        50         4         5        51     9      180.000000        0.349882         4

[ dihedrals ] ; impropers
;       ai        aj        ak        al funct           phase               k        pn
        24        23        25        40     4      180.000000        1.752813         2
        24        25        40        23     4      180.000000        1.752813         2
        24        40        23        25     4      180.000000        1.752813         2
        25        24        26        41     4      180.000000        2.505519         2
        25        26        41        24     4      180.000000        2.505519         2
        25        41        24        26     4      180.000000        2.505519         2
        27        26        28        42     4      180.000000        2.505519         2
        27        28        42        26     4      180.000000        2.505519         2
        27        42        26        28     4      180.000000        2.505519         2
        28        23        27        43     4      180.000000        1.752813         2
        28        27        43        23     4      180.000000        1.752813         2
        28        43        23        27     4      180.000000        1.752813         2

[ pairs ]
;       ai        aj funct
         1         5     1
         1         7     1
         1        50     1
         2         4     1
         2         8     1
         2        10     1
         2        51     1
         2        52     1
         3         6     1
         3        49     1
         3        51     1
         4         7     1
         4        48     1
         5         8     1
         5        10     1
         5        49     1
         5        52     1
         6         9     1
         6        11     1
         6        29     1
         6        48     1
         6        50     1
         7        12     1
         7        49     1
         7        51     1
         8        12     1
         8        29     1
         9        13     1
         9        15     1
         9        29     1
         9        30     1
        10        13     1
        10        15     1
        10        30     1
        11        14     1
        11        16     1
        11        17     1
        11        21     1
        11        31     1
        11        33     1
        12        18     1
        12        20     1
        12        22     1
        12        29     1
        12        32     1
        12        34     1
        12        35     1
        12        39     1
        13        16     1
        13        17     1
        13        23     1
        13        33     1
        14        15     1
        14        20     1
        14        22     1
        14        30     1
        14        39     1
        15        19     1
        15        21     1
        15        31     1
        15        36     1
        15        37     1
        16        18     1
        16        20     1
        16        30     1
        16        35     1
        17        22     1
        17        30     1
        17        34     1
        17        38     1
        17        39     1
        18        21     1
        18        33     1
        19        20     1
        19        35     1
        20        23     1
        20        31     1
        20        33     1
        20        36     1
        20        37     1
        21        24     1
        21        28     1
        21        30     1
        21        32     1
        21        35     1
        22        25     1
        22        27     1
        22        31     1
        22        40     1
        22        43     1
        23        26     1
        23        39     1
        23        41     1
        23        42     1
        24        27     1
        24        43     1
        24        44     1
        25        28     1
        25        42     1
        25        45     1
        25        46     1
        25        47     1
        26        40     1
        26        43     1
        27        41     1
        27        45     1
        27        46     1
        27        47     1
        28        40     1
        28        44     1
        30        31     1
        30        33     1
        31        32     1
        31        39     1
        33        34     1
        33        35     1
        35        36     1
        35        37     1
        36        38     1
        37        38     1
        40        41     1
        41        44     1
        42        43     1
        42        44     1
        48        49     1
        48        52     1
        50        51     1
        50        52     1
