; ITP file created by ByteFF-ML, 2025-12-06 07:52:43.946884

[ atomtypes ]
;name           bonded.type        at.num        mass        charge   ptype           sigma         epsilon
 c0bf                                   6      0.0000       0.00000       A     3.31510e-01     4.13870e-01
 c1bf                                   6      0.0000       0.00000       A     3.31572e-01     4.12844e-01
 c2bf                                   6      0.0000       0.00000       A     3.31576e-01     4.12648e-01
 c3bf                                   6      0.0000       0.00000       A     3.31510e-01     4.13870e-01
 c4bf                                   6      0.0000       0.00000       A     3.31572e-01     4.12844e-01
 c5bf                                   6      0.0000       0.00000       A     3.31440e-01     4.12464e-01
 c6bf                                   6      0.0000       0.00000       A     3.31610e-01     4.11224e-01
 n7bf                                   7      0.0000       0.00000       A     3.38432e-01     3.92071e-01
 n8bf                                   7      0.0000       0.00000       A     3.38509e-01     3.92962e-01
 c9bf                                   6      0.0000       0.00000       A     3.31533e-01     4.15302e-01
 n10bf                                  7      0.0000       0.00000       A     3.20829e-01     8.43103e-01
 c11bf                                  6      0.0000       0.00000       A     3.39844e-01     4.48152e-01
 c12bf                                  6      0.0000       0.00000       A     3.39915e-01     4.48540e-01
 o13bf                                  8      0.0000       0.00000       A     3.24549e-01     3.87420e-01
 c14bf                                  6      0.0000       0.00000       A     3.40020e-01     4.49999e-01
 o15bf                                  8      0.0000       0.00000       A     3.24320e-01     3.87708e-01
 c16bf                                  6      0.0000       0.00000       A     3.39647e-01     4.56832e-01
 c17bf                                  6      0.0000       0.00000       A     3.39820e-01     4.52529e-01
 o18bf                                  8      0.0000       0.00000       A     3.24359e-01     3.88520e-01
 o19bf                                  8      0.0000       0.00000       A     3.15681e-01     3.03220e-01
 c20bf                                  6      0.0000       0.00000       A     3.39902e-01     4.49017e-01
 s21bf                                 16      0.0000       0.00000       A     3.53471e-01     1.18027e+00
 c22bf                                  6      0.0000       0.00000       A     3.31440e-01     4.14040e-01
 c23bf                                  6      0.0000       0.00000       A     3.31442e-01     4.12547e-01
 c24bf                                  6      0.0000       0.00000       A     3.31490e-01     4.13165e-01
 c25bf                                  6      0.0000       0.00000       A     3.31485e-01     4.12621e-01
 c26bf                                  6      0.0000       0.00000       A     3.31490e-01     4.13165e-01
 c27bf                                  6      0.0000       0.00000       A     3.31442e-01     4.12547e-01
 h28bf                                  1      0.0000       0.00000       A     2.53818e-01     6.75058e-02
 h29bf                                  1      0.0000       0.00000       A     2.42787e-01     8.64894e-02
 h30bf                                  1      0.0000       0.00000       A     2.41856e-01     8.61239e-02
 h31bf                                  1      0.0000       0.00000       A     5.37872e-02     1.99573e-02
 h32bf                                  1      0.0000       0.00000       A     2.42193e-01     8.65469e-02
 h33bf                                  1      0.0000       0.00000       A     5.35538e-02     2.00387e-02
 h34bf                                  1      0.0000       0.00000       A     2.42310e-01     8.69235e-02
 h35bf                                  1      0.0000       0.00000       A     2.42100e-01     8.75827e-02
 h36bf                                  1      0.0000       0.00000       A     2.42100e-01     8.75827e-02
 h37bf                                  1      0.0000       0.00000       A     5.36851e-02     2.04855e-02
 h38bf                                  1      0.0000       0.00000       A     2.25673e-01     8.91197e-02
 h39bf                                  1      0.0000       0.00000       A     2.62590e-01     6.78345e-02
 h40bf                                  1      0.0000       0.00000       A     2.62482e-01     6.71674e-02
 h41bf                                  1      0.0000       0.00000       A     2.62482e-01     6.71674e-02
 h42bf                                  1      0.0000       0.00000       A     2.62590e-01     6.78345e-02
 f43bf                                  9      0.0000       0.00000       A     3.03476e-01     3.48476e-01
 f44bf                                  9      0.0000       0.00000       A     3.03476e-01     3.48476e-01
 c45bf                                  6      0.0000       0.00000       A     3.39812e-01     4.50526e-01
 h46bf                                  1      0.0000       0.00000       A     2.59993e-01     8.72348e-02
 h47bf                                  1      0.0000       0.00000       A     2.59993e-01     8.72348e-02
 h48bf                                  1      0.0000       0.00000       A     2.59993e-01     8.72348e-02
 h49bf                                  1      0.0000       0.00000       A     2.62500e-01     6.74419e-02
 h50bf                                  1      0.0000       0.00000       A     2.62457e-01     6.72600e-02
 h51bf                                  1      0.0000       0.00000       A     2.62500e-01     6.74419e-02

[ moleculetype ]
;name             nrexcl
 17f                   3

[ atoms ]
;       nr            type      resi   res      atom      cgnr      charge          mass ; qtot
         1            c0bf         1   UNL        c0         1     0.18981       12.0110 ; qtot    0.190
         2            c1bf         1   UNL        c1         2    -0.14515       12.0110 ; qtot    0.045
         3            c2bf         1   UNL        c2         3    -0.18050       12.0110 ; qtot   -0.136
         4            c3bf         1   UNL        c3         4     0.18981       12.0110 ; qtot    0.054
         5            c4bf         1   UNL        c4         5    -0.14515       12.0110 ; qtot   -0.091
         6            c5bf         1   UNL        c5         6    -0.05487       12.0110 ; qtot   -0.146
         7            c6bf         1   UNL        c6         7     0.24526       12.0110 ; qtot    0.099
         8            n7bf         1   UNL        n7         8    -0.34154       14.0070 ; qtot   -0.242
         9            n8bf         1   UNL        n8         9    -0.21228       14.0070 ; qtot   -0.455
        10            c9bf         1   UNL        c9        10    -0.16463       12.0110 ; qtot   -0.619
        11           n10bf         1   UNL       n10        11     0.12231       14.0070 ; qtot   -0.497
        12           c11bf         1   UNL       c11        12     0.06917       12.0110 ; qtot   -0.428
        13           c12bf         1   UNL       c12        13     0.18084       12.0110 ; qtot   -0.247
        14           o13bf         1   UNL       o13        14    -0.69248       15.9990 ; qtot   -0.939
        15           c14bf         1   UNL       c14        15     0.16597       12.0110 ; qtot   -0.773
        16           o15bf         1   UNL       o15        16    -0.69733       15.9990 ; qtot   -1.471
        17           c16bf         1   UNL       c16        17     0.12245       12.0110 ; qtot   -1.348
        18           c17bf         1   UNL       c17        18     0.15857       12.0110 ; qtot   -1.190
        19           o18bf         1   UNL       o18        19    -0.67968       15.9990 ; qtot   -1.869
        20           o19bf         1   UNL       o19        20    -0.43842       15.9990 ; qtot   -2.308
        21           c20bf         1   UNL       c20        21     0.30762       12.0110 ; qtot   -2.000
        22           s21bf         1   UNL       s21        22    -0.22319       32.0670 ; qtot   -2.223
        23           c22bf         1   UNL       c22        23    -0.11437       12.0110 ; qtot   -2.338
        24           c23bf         1   UNL       c23        24    -0.07085       12.0110 ; qtot   -2.409
        25           c24bf         1   UNL       c24        25    -0.11727       12.0110 ; qtot   -2.526
        26           c25bf         1   UNL       c25        26    -0.06564       12.0110 ; qtot   -2.592
        27           c26bf         1   UNL       c26        27    -0.11727       12.0110 ; qtot   -2.709
        28           c27bf         1   UNL       c27        28    -0.07085       12.0110 ; qtot   -2.780
        29           h28bf         1   UNL       h28        29     0.17611        1.0080 ; qtot   -2.604
        30           h29bf         1   UNL       h29        30     0.09610        1.0080 ; qtot   -2.507
        31           h30bf         1   UNL       h30        31     0.07453        1.0080 ; qtot   -2.433
        32           h31bf         1   UNL       h31        32     0.49318        1.0080 ; qtot   -1.940
        33           h32bf         1   UNL       h32        33     0.06676        1.0080 ; qtot   -1.873
        34           h33bf         1   UNL       h33        34     0.49179        1.0080 ; qtot   -1.381
        35           h34bf         1   UNL       h34        35     0.07347        1.0080 ; qtot   -1.308
        36           h35bf         1   UNL       h35        36     0.04981        1.0080 ; qtot   -1.258
        37           h36bf         1   UNL       h36        37     0.04981        1.0080 ; qtot   -1.208
        38           h37bf         1   UNL       h37        38     0.46110        1.0080 ; qtot   -0.747
        39           h38bf         1   UNL       h38        39     0.08799        1.0080 ; qtot   -0.659
        40           h39bf         1   UNL       h39        40     0.12284        1.0080 ; qtot   -0.536
        41           h40bf         1   UNL       h40        41     0.11553        1.0080 ; qtot   -0.421
        42           h41bf         1   UNL       h41        42     0.11553        1.0080 ; qtot   -0.305
        43           h42bf         1   UNL       h42        43     0.12284        1.0080 ; qtot   -0.182
        44           f43bf         1   UNL       f43        44    -0.17302       18.9980 ; qtot   -0.355
        45           f44bf         1   UNL       f44        45    -0.17302       18.9980 ; qtot   -0.528
        46           c45bf         1   UNL       c45        46    -0.04806       12.0110 ; qtot   -0.576
        47           h46bf         1   UNL       h46        47     0.04333        1.0080 ; qtot   -0.533
        48           h47bf         1   UNL       h47        48     0.04333        1.0080 ; qtot   -0.490
        49           h48bf         1   UNL       h48        49     0.04333        1.0080 ; qtot   -0.446
        50           h49bf         1   UNL       h49        50     0.14491        1.0080 ; qtot   -0.301
        51           h50bf         1   UNL       h50        51     0.15657        1.0080 ; qtot   -0.145
        52           h51bf         1   UNL       h51        52     0.14490        1.0080 ; qtot   -0.000

[ bonds ]
;       ai        aj funct               r               k
         1         2     1        0.138868   314665.580322
         1         3     1        0.139199   304848.885645
         1        44     1        0.135536   291387.458105
         2         6     1        0.140593   289916.060937
         2        50     1        0.108385   326239.917627
         3         4     1        0.139199   304848.885645
         3        51     1        0.108382   329760.335840
         4         5     1        0.138868   314665.580322
         4        45     1        0.135536   291387.458105
         5         6     1        0.140593   289916.060937
         5        52     1        0.108385   326239.917627
         6         7     1        0.146693   232750.296729
         7         8     1        0.137298   234965.998486
         7        10     1        0.138850   321006.597803
         8         9     1        0.130572   329626.189404
         9        11     1        0.135510   199180.298071
        10        11     1        0.135791   305009.692822
        10        29     1        0.107890   344754.985889
        11        12     1        0.146154   193615.583179
        12        13     1        0.154119   162583.360303
        12        15     1        0.154118   162576.490820
        12        30     1        0.109333   303022.241748
        13        14     1        0.142135   208733.015649
        13        21     1        0.154044   163767.720361
        13        31     1        0.109548   296027.244434
        14        32     1        0.097570   447174.499805
        15        16     1        0.142523   206605.059399
        15        17     1        0.154084   163172.399268
        15        33     1        0.109618   293622.695752
        16        34     1        0.097438   453206.160742
        17        18     1        0.152837   181609.400586
        17        20     1        0.144022   172846.456421
        17        35     1        0.109738   290579.974707
        18        19     1        0.142806   214851.821973
        18        36     1        0.109612   292209.548730
        18        37     1        0.109612   292209.548730
        19        38     1        0.097057   469375.645508
        20        21     1        0.141198   193409.651929
        21        22     1        0.185356    89023.537988
        21        39     1        0.109428   301568.618408
        22        23     1        0.179110   139046.521631
        23        24     1        0.140242   291728.429590
        23        28     1        0.140242   291728.429590
        24        25     1        0.139734   312067.690186
        24        40     1        0.108549   320360.228027
        25        26     1        0.140319   288269.019531
        25        41     1        0.108726   315373.979736
        26        27     1        0.140319   288269.045068
        26        46     1        0.151086   206426.018726
        27        28     1        0.139734   312067.690186
        27        42     1        0.108726   315373.954199
        28        43     1        0.108549   320360.202490
        46        47     1        0.109458   298881.910205
        46        48     1        0.109458   298881.910205
        46        49     1        0.109458   298881.910205

[ angles ]
;       ai        aj        ak funct           theta             cth
         1         2         6     1      118.781128      693.439073
         1         2        50     1      119.717262      436.496681
         1         3         4     1      116.334496      691.719468
         1         3        51     1      121.788513      420.852584
         2         1         3     1      123.157104      607.083614
         2         1        44     1      118.605789      538.978569
         2         6         5     1      119.355698      583.675087
         2         6         7     1      120.240372      512.664302
         3         1        44     1      118.197655      545.684806
         3         4         5     1      123.157104      607.083614
         3         4        45     1      118.197655      545.684806
         4         3        51     1      121.788513      420.852584
         4         5         6     1      118.781128      693.439073
         4         5        52     1      119.717262      436.496681
         5         4        45     1      118.605789      538.978569
         5         6         7     1      120.240372      512.664302
         6         2        50     1      121.362709      432.562051
         6         5        52     1      121.362709      432.562051
         6         7         8     1      121.696022      598.318959
         6         7        10     1      130.152542      460.139448
         7         8         9     1      109.520096      434.129263
         7        10        11     1      104.841599      169.112516
         7        10        29     1      133.234314      285.539964
         8         7        10     1      107.586685      268.477377
         8         9        11     1      107.807518      708.054535
         9        11        10     1      110.430679      167.360000
         9        11        12     1      120.120522      564.108362
        10        11        12     1      129.071411      460.983992
        11        10        29     1      122.307968      482.685140
        11        12        13     1      111.354050      622.802216
        11        12        15     1      111.512573      625.250458
        11        12        30     1      105.797218      565.058789
        12        13        14     1      110.389603      605.753067
        12        13        21     1      109.448044      623.979923
        12        13        31     1      108.625122      456.211585
        12        15        16     1      110.126266      598.858494
        12        15        17     1      109.662819      634.622258
        12        15        33     1      108.374062      461.169391
        13        12        15     1      111.091370      609.017795
        13        12        30     1      107.746902      473.995372
        13        14        32     1      107.001907      563.536714
        13        21        20     1      111.649391      530.812472
        13        21        22     1      111.121826      476.858434
        13        21        39     1      109.398842      459.056961
        14        13        21     1      110.632996      584.342052
        14        13        31     1      109.505226      454.566357
        15        12        30     1      107.909630      474.972518
        15        16        34     1      107.163124      571.830145
        15        17        18     1      113.952560      623.316980
        15        17        20     1      110.586624      537.401014
        15        17        35     1      107.974205      474.645483
        16        15        17     1      110.194969      604.101773
        16        15        33     1      109.353859      458.374450
        17        15        33     1      108.484055      460.689868
        17        18        19     1      111.065964      625.867882
        17        18        36     1      109.070946      478.304951
        17        18        37     1      109.070946      478.304951
        17        20        21     1      114.299454      561.641094
        18        17        20     1      107.501694      641.977776
        18        17        35     1      108.404587      488.419881
        18        19        38     1      107.524818      590.048638
        19        18        36     1      109.382347      473.459476
        19        18        37     1      109.382347      473.459476
        20        17        35     1      107.711388      457.078250
        20        21        22     1      109.595230      522.927794
        20        21        39     1      108.505630      449.403998
        21        13        31     1      108.186974      467.658722
        21        22        23     1      100.042709      754.237185
        22        21        39     1      107.190735      378.175222
        22        23        24     1      120.348312      387.060029
        22        23        28     1      120.348312      387.060029
        23        24        25     1      120.173141      641.204193
        23        24        40     1      119.877075      381.600770
        23        28        27     1      120.173141      641.204193
        23        28        43     1      119.877075      381.600770
        24        23        28     1      119.113083      679.871079
        24        25        26     1      121.290512      701.461811
        24        25        41     1      119.123268      429.501907
        25        24        40     1      119.993553      418.843388
        25        26        27     1      117.876991      697.308456
        25        26        46     1      121.020920      483.446433
        26        25        41     1      119.593529      395.778207
        26        27        28     1      121.290504      701.461748
        26        27        42     1      119.593529      395.778207
        26        46        47     1      111.248535      482.985073
        26        46        48     1      111.248535      482.985073
        26        46        49     1      111.248535      482.985073
        27        26        46     1      121.020920      483.446433
        27        28        43     1      119.993553      418.843388
        28        27        42     1      119.123268      429.501939
        36        18        37     1      108.155106      339.092304
        47        46        48     1      107.633995      359.456202
        47        46        49     1      107.633995      359.456202
        48        46        49     1      107.633995      359.456202

[ dihedrals ] ; propers for gromacs 4.5 or higher, use funct 9
;       ai        aj        ak        al funct           phase               k        pn
         1         2         6         5     9        0.000000       -0.283180         1
         1         2         6         5     9      180.000000       18.232048         2
         1         2         6         5     9        0.000000       -1.527494         3
         1         2         6         5     9      180.000000       -0.367177         4
         1         2         6         7     9        0.000000        0.353595         1
         1         2         6         7     9      180.000000       16.516902         2
         1         2         6         7     9        0.000000       -0.034400         3
         1         2         6         7     9      180.000000       -0.531383         4
         1         3         4         5     9        0.000000       -0.172819         1
         1         3         4         5     9      180.000000       17.125032         2
         1         3         4         5     9        0.000000       -1.163966         3
         1         3         4         5     9      180.000000       -0.385974         4
         1         3         4        45     9        0.000000        0.338449         1
         1         3         4        45     9      180.000000       23.472867         2
         1         3         4        45     9        0.000000        0.625411         3
         1         3         4        45     9      180.000000       -0.823695         4
         2         1         3         4     9        0.000000       -0.172819         1
         2         1         3         4     9      180.000000       17.125032         2
         2         1         3         4     9        0.000000       -1.163966         3
         2         1         3         4     9      180.000000       -0.385974         4
         2         1         3        51     9        0.000000        0.099264         1
         2         1         3        51     9      180.000000       12.420356         2
         2         1         3        51     9        0.000000       -0.445642         3
         2         1         3        51     9      180.000000        0.130458         4
         2         6         5         4     9        0.000000       -0.283180         1
         2         6         5         4     9      180.000000       18.232048         2
         2         6         5         4     9        0.000000       -1.527494         3
         2         6         5         4     9      180.000000       -0.367177         4
         2         6         5        52     9        0.000000       -0.012424         1
         2         6         5        52     9      180.000000       13.604268         2
         2         6         5        52     9        0.000000       -0.512540         3
         2         6         5        52     9      180.000000        0.099622         4
         2         6         7         8     9        0.000000       -0.443824         1
         2         6         7         8     9      180.000000        3.205790         2
         2         6         7         8     9        0.000000       -0.098778         3
         2         6         7         8     9      180.000000        0.034146         4
         2         6         7        10     9        0.000000        0.221787         1
         2         6         7        10     9      180.000000        2.797712         2
         2         6         7        10     9        0.000000        0.254399         3
         2         6         7        10     9      180.000000       -0.299564         4
         3         1         2         6     9        0.000000        0.018501         1
         3         1         2         6     9      180.000000       17.635461         2
         3         1         2         6     9        0.000000       -1.249306         3
         3         1         2         6     9      180.000000       -0.358846         4
         3         1         2        50     9        0.000000        0.109511         1
         3         1         2        50     9      180.000000       13.477023         2
         3         1         2        50     9        0.000000       -0.561159         3
         3         1         2        50     9      180.000000        0.117795         4
         3         4         5         6     9        0.000000        0.018501         1
         3         4         5         6     9      180.000000       17.635461         2
         3         4         5         6     9        0.000000       -1.249306         3
         3         4         5         6     9      180.000000       -0.358846         4
         3         4         5        52     9        0.000000        0.109511         1
         3         4         5        52     9      180.000000       13.477023         2
         3         4         5        52     9        0.000000       -0.561159         3
         3         4         5        52     9      180.000000        0.117795         4
         4         3         1        44     9        0.000000        0.338449         1
         4         3         1        44     9      180.000000       23.472867         2
         4         3         1        44     9        0.000000        0.625411         3
         4         3         1        44     9      180.000000       -0.823695         4
         4         5         6         7     9        0.000000        0.353595         1
         4         5         6         7     9      180.000000       16.516902         2
         4         5         6         7     9        0.000000       -0.034400         3
         4         5         6         7     9      180.000000       -0.531383         4
         5         4         3        51     9        0.000000        0.099264         1
         5         4         3        51     9      180.000000       12.420356         2
         5         4         3        51     9        0.000000       -0.445642         3
         5         4         3        51     9      180.000000        0.130458         4
         5         6         2        50     9        0.000000       -0.012424         1
         5         6         2        50     9      180.000000       13.604268         2
         5         6         2        50     9        0.000000       -0.512540         3
         5         6         2        50     9      180.000000        0.099622         4
         5         6         7         8     9        0.000000       -0.443824         1
         5         6         7         8     9      180.000000        3.205790         2
         5         6         7         8     9        0.000000       -0.098778         3
         5         6         7         8     9      180.000000        0.034146         4
         5         6         7        10     9        0.000000        0.221787         1
         5         6         7        10     9      180.000000        2.797712         2
         5         6         7        10     9        0.000000        0.254399         3
         5         6         7        10     9      180.000000       -0.299564         4
         6         2         1        44     9        0.000000        0.476357         1
         6         2         1        44     9      180.000000       23.322663         2
         6         2         1        44     9        0.000000        0.664318         3
         6         2         1        44     9      180.000000       -0.829712         4
         6         5         4        45     9        0.000000        0.476357         1
         6         5         4        45     9      180.000000       23.322663         2
         6         5         4        45     9        0.000000        0.664318         3
         6         5         4        45     9      180.000000       -0.829712         4
         6         7         8         9     9        0.000000        0.707543         1
         6         7         8         9     9      180.000000       23.786736         2
         6         7         8         9     9        0.000000        0.782894         3
         6         7         8         9     9      180.000000       -0.611057         4
         6         7        10        11     9        0.000000        0.351746         1
         6         7        10        11     9      180.000000       17.858821         2
         6         7        10        11     9        0.000000       -0.136669         3
         6         7        10        11     9      180.000000       -1.053525         4
         6         7        10        29     9        0.000000       -0.399175         1
         6         7        10        29     9      180.000000        9.849980         2
         6         7        10        29     9        0.000000       -0.085758         3
         6         7        10        29     9      180.000000        0.045915         4
         7         6         2        50     9        0.000000        0.017140         1
         7         6         2        50     9      180.000000       13.027357         2
         7         6         2        50     9        0.000000       -0.258346         3
         7         6         2        50     9      180.000000        0.191810         4
         7         6         5        52     9        0.000000        0.017140         1
         7         6         5        52     9      180.000000       13.027357         2
         7         6         5        52     9        0.000000       -0.258346         3
         7         6         5        52     9      180.000000        0.191810         4
         7         8         9        11     9        0.000000        0.174136         1
         7         8         9        11     9      180.000000       44.224859         2
         7         8         9        11     9        0.000000       -4.572675         3
         7         8         9        11     9      180.000000        0.238242         4
         7        10        11         9     9        0.000000        0.154667         1
         7        10        11         9     9      180.000000       28.274213         2
         7        10        11         9     9        0.000000       -7.217341         3
         7        10        11         9     9      180.000000       -0.274852         4
         7        10        11        12     9        0.000000        0.946693         1
         7        10        11        12     9      180.000000        6.496791         2
         7        10        11        12     9        0.000000        0.973245         3
         7        10        11        12     9      180.000000       -0.234772         4
         8         7        10        11     9        0.000000       -0.402977         1
         8         7        10        11     9      180.000000       33.350316         2
         8         7        10        11     9        0.000000       -8.639453         3
         8         7        10        11     9      180.000000        0.246327         4
         8         7        10        29     9        0.000000        0.478315         1
         8         7        10        29     9      180.000000       14.532030         2
         8         7        10        29     9        0.000000       -0.440186         3
         8         7        10        29     9      180.000000       -0.487332         4
         8         9        11        10     9        0.000000       -0.237936         1
         8         9        11        10     9      180.000000       35.356994         2
         8         9        11        10     9        0.000000       -5.585615         3
         8         9        11        10     9      180.000000       -0.169170         4
         8         9        11        12     9        0.000000        1.186084         1
         8         9        11        12     9      180.000000       14.567770         2
         8         9        11        12     9        0.000000        1.211127         3
         8         9        11        12     9      180.000000       -0.410480         4
         9         8         7        10     9        0.000000       -0.117032         1
         9         8         7        10     9      180.000000       36.271290         2
         9         8         7        10     9        0.000000       -6.351072         3
         9         8         7        10     9      180.000000        0.068556         4
         9        11        10        29     9        0.000000        1.151930         1
         9        11        10        29     9      180.000000       11.548645         2
         9        11        10        29     9        0.000000       -0.131534         3
         9        11        10        29     9      180.000000       -0.252845         4
         9        11        12        13     9        0.000000       -1.430817         1
         9        11        12        13     9      180.000000        0.102354         2
         9        11        12        13     9        0.000000        0.158706         3
         9        11        12        13     9      180.000000        0.123059         4
         9        11        12        15     9        0.000000       -1.362464         1
         9        11        12        15     9      180.000000       -0.005544         2
         9        11        12        15     9        0.000000        0.173684         3
         9        11        12        15     9      180.000000        0.124316         4
         9        11        12        30     9        0.000000        0.281416         1
         9        11        12        30     9      180.000000        0.284845         2
         9        11        12        30     9        0.000000        0.121793         3
         9        11        12        30     9      180.000000        0.147238         4
        10        11        12        13     9        0.000000       -0.465341         1
        10        11        12        13     9      180.000000       -0.065043         2
        10        11        12        13     9        0.000000        0.343835         3
        10        11        12        13     9      180.000000        0.048206         4
        10        11        12        15     9        0.000000       -0.312170         1
        10        11        12        15     9      180.000000       -0.087549         2
        10        11        12        15     9        0.000000        0.357613         3
        10        11        12        15     9      180.000000        0.068133         4
        10        11        12        30     9        0.000000       -0.232840         1
        10        11        12        30     9      180.000000        0.196606         2
        10        11        12        30     9        0.000000        0.373761         3
        10        11        12        30     9      180.000000        0.103526         4
        11        12        13        14     9        0.000000       -2.463697         1
        11        12        13        14     9      180.000000       -0.808068         2
        11        12        13        14     9        0.000000        0.521108         3
        11        12        13        14     9      180.000000        0.128341         4
        11        12        13        21     9        0.000000       -0.946293         1
        11        12        13        21     9      180.000000        0.064705         2
        11        12        13        21     9        0.000000        0.144956         3
        11        12        13        21     9      180.000000        0.074243         4
        11        12        13        31     9        0.000000        0.224747         1
        11        12        13        31     9      180.000000       -0.236548         2
        11        12        13        31     9        0.000000        0.515857         3
        11        12        13        31     9      180.000000       -0.015950         4
        11        12        15        16     9        0.000000       -2.413902         1
        11        12        15        16     9      180.000000       -1.075098         2
        11        12        15        16     9        0.000000        0.532202         3
        11        12        15        16     9      180.000000        0.117168         4
        11        12        15        17     9        0.000000       -1.070255         1
        11        12        15        17     9      180.000000        0.308457         2
        11        12        15        17     9        0.000000        0.196837         3
        11        12        15        17     9      180.000000        0.098929         4
        11        12        15        33     9        0.000000        0.363147         1
        11        12        15        33     9      180.000000       -0.221877         2
        11        12        15        33     9        0.000000        0.510290         3
        11        12        15        33     9      180.000000       -0.015168         4
        12        11        10        29     9        0.000000       -0.141631         1
        12        11        10        29     9      180.000000        4.403927         2
        12        11        10        29     9        0.000000        0.419636         3
        12        11        10        29     9      180.000000        0.096306         4
        12        13        14        32     9        0.000000        5.987333         1
        12        13        14        32     9      180.000000       -4.747754         2
        12        13        14        32     9        0.000000        1.129336         3
        12        13        14        32     9      180.000000        0.152684         4
        12        13        21        20     9        0.000000        1.404796         1
        12        13        21        20     9      180.000000       -0.533586         2
        12        13        21        20     9        0.000000        0.143473         3
        12        13        21        20     9      180.000000        0.076550         4
        12        13        21        22     9        0.000000        0.885682         1
        12        13        21        22     9      180.000000       -0.202842         2
        12        13        21        22     9        0.000000        0.400566         3
        12        13        21        22     9      180.000000        0.241703         4
        12        13        21        39     9        0.000000        0.104334         1
        12        13        21        39     9      180.000000        0.069537         2
        12        13        21        39     9        0.000000        0.323965         3
        12        13        21        39     9      180.000000        0.017968         4
        12        15        16        34     9        0.000000        6.080281         1
        12        15        16        34     9      180.000000       -4.822805         2
        12        15        16        34     9        0.000000        1.193464         3
        12        15        16        34     9      180.000000        0.201441         4
        12        15        17        18     9        0.000000       -0.954921         1
        12        15        17        18     9      180.000000        0.598739         2
        12        15        17        18     9        0.000000        0.085886         3
        12        15        17        18     9      180.000000        0.019592         4
        12        15        17        20     9        0.000000        1.787515         1
        12        15        17        20     9      180.000000       -0.719445         2
        12        15        17        20     9        0.000000       -0.027704         3
        12        15        17        20     9      180.000000        0.218562         4
        12        15        17        35     9        0.000000       -0.346586         1
        12        15        17        35     9      180.000000       -0.049500         2
        12        15        17        35     9        0.000000        0.225967         3
        12        15        17        35     9      180.000000        0.120881         4
        13        12        15        16     9        0.000000       -2.995139         1
        13        12        15        16     9      180.000000        0.870827         2
        13        12        15        16     9        0.000000        0.087350         3
        13        12        15        16     9      180.000000        0.206179         4
        13        12        15        17     9        0.000000        2.459158         1
        13        12        15        17     9      180.000000       -1.294981         2
        13        12        15        17     9        0.000000       -0.205708         3
        13        12        15        17     9      180.000000        0.051835         4
        13        12        15        33     9        0.000000       -0.313474         1
        13        12        15        33     9      180.000000        0.009833         2
        13        12        15        33     9        0.000000        0.171838         3
        13        12        15        33     9      180.000000        0.023640         4
        13        21        20        17     9        0.000000        4.426470         1
        13        21        20        17     9      180.000000       -1.814803         2
        13        21        20        17     9        0.000000       -0.132018         3
        13        21        20        17     9      180.000000        0.157704         4
        13        21        22        23     9        0.000000        0.288375         1
        13        21        22        23     9      180.000000       -0.479928         2
        13        21        22        23     9        0.000000        0.676080         3
        13        21        22        23     9      180.000000       -0.043483         4
        14        13        12        15     9        0.000000       -3.075579         1
        14        13        12        15     9      180.000000        0.844037         2
        14        13        12        15     9        0.000000        0.102254         3
        14        13        12        15     9      180.000000        0.211494         4
        14        13        12        30     9        0.000000       -0.221096         1
        14        13        12        30     9      180.000000        0.232592         2
        14        13        12        30     9        0.000000        0.374559         3
        14        13        12        30     9      180.000000       -0.064397         4
        14        13        21        20     9        0.000000       -0.853634         1
        14        13        21        20     9      180.000000       -0.261158         2
        14        13        21        20     9        0.000000        0.450676         3
        14        13        21        20     9      180.000000       -0.054142         4
        14        13        21        22     9        0.000000        1.136788         1
        14        13        21        22     9      180.000000        0.071958         2
        14        13        21        22     9        0.000000        0.753281         3
        14        13        21        22     9      180.000000        0.029231         4
        14        13        21        39     9        0.000000        0.505888         1
        14        13        21        39     9      180.000000        0.384251         2
        14        13        21        39     9        0.000000        0.478938         3
        14        13        21        39     9      180.000000       -0.092338         4
        15        12        13        21     9        0.000000        2.173779         1
        15        12        13        21     9      180.000000       -1.124245         2
        15        12        13        21     9        0.000000       -0.285708         3
        15        12        13        21     9      180.000000       -0.003598         4
        15        12        13        31     9        0.000000       -0.351313         1
        15        12        13        31     9      180.000000        0.007069         2
        15        12        13        31     9        0.000000        0.174709         3
        15        12        13        31     9      180.000000        0.033627         4
        15        17        18        19     9        0.000000       -0.227661         1
        15        17        18        19     9      180.000000        0.198709         2
        15        17        18        19     9        0.000000        0.575653         3
        15        17        18        19     9      180.000000        0.042898         4
        15        17        18        36     9        0.000000       -0.018814         1
        15        17        18        36     9      180.000000        0.048557         2
        15        17        18        36     9        0.000000        0.576120         3
        15        17        18        36     9      180.000000        0.074092         4
        15        17        18        37     9        0.000000       -0.018814         1
        15        17        18        37     9      180.000000        0.048557         2
        15        17        18        37     9        0.000000        0.576120         3
        15        17        18        37     9      180.000000        0.074092         4
        15        17        20        21     9        0.000000        4.352346         1
        15        17        20        21     9      180.000000       -2.206175         2
        15        17        20        21     9        0.000000       -0.003556         3
        15        17        20        21     9      180.000000        0.165333         4
        16        15        12        30     9        0.000000       -0.200581         1
        16        15        12        30     9      180.000000        0.220304         2
        16        15        12        30     9        0.000000        0.389118         3
        16        15        12        30     9      180.000000       -0.058463         4
        16        15        17        18     9        0.000000        0.016896         1
        16        15        17        18     9      180.000000        0.496116         2
        16        15        17        18     9        0.000000        0.448333         3
        16        15        17        18     9      180.000000       -0.009281         4
        16        15        17        20     9        0.000000       -0.545333         1
        16        15        17        20     9      180.000000       -0.637964         2
        16        15        17        20     9        0.000000        0.329188         3
        16        15        17        20     9      180.000000        0.018467         4
        16        15        17        35     9        0.000000        0.285187         1
        16        15        17        35     9      180.000000        0.379094         2
        16        15        17        35     9        0.000000        0.476484         3
        16        15        17        35     9      180.000000       -0.166707         4
        17        15        12        30     9        0.000000       -0.763999         1
        17        15        12        30     9      180.000000        0.074255         2
        17        15        12        30     9        0.000000        0.094457         3
        17        15        12        30     9      180.000000        0.111201         4
        17        15        16        34     9        0.000000        7.727266         1
        17        15        16        34     9      180.000000       -5.206494         2
        17        15        16        34     9        0.000000        1.323975         3
        17        15        16        34     9      180.000000        0.328749         4
        17        18        19        38     9        0.000000        4.007016         1
        17        18        19        38     9      180.000000       -3.320209         2
        17        18        19        38     9        0.000000        1.326460         3
        17        18        19        38     9      180.000000        0.255147         4
        17        20        21        22     9        0.000000       -0.375262         1
        17        20        21        22     9      180.000000       -3.083586         2
        17        20        21        22     9        0.000000        0.304677         3
        17        20        21        22     9      180.000000        0.420919         4
        17        20        21        39     9        0.000000        0.266636         1
        17        20        21        39     9      180.000000        0.330187         2
        17        20        21        39     9        0.000000        0.477844         3
        17        20        21        39     9      180.000000       -0.186567         4
        18        17        15        33     9        0.000000       -0.201523         1
        18        17        15        33     9      180.000000        0.092106         2
        18        17        15        33     9        0.000000        0.387143         3
        18        17        15        33     9      180.000000       -0.008226         4
        18        17        20        21     9        0.000000       -0.966881         1
        18        17        20        21     9      180.000000        0.096258         2
        18        17        20        21     9        0.000000        0.174197         3
        18        17        20        21     9      180.000000        0.002285         4
        19        18        17        20     9        0.000000        0.402627         1
        19        18        17        20     9      180.000000       -1.643645         2
        19        18        17        20     9        0.000000        0.640951         3
        19        18        17        20     9      180.000000       -0.056513         4
        19        18        17        35     9        0.000000        0.211518         1
        19        18        17        35     9      180.000000        0.462525         2
        19        18        17        35     9        0.000000        0.743999         3
        19        18        17        35     9      180.000000        0.005084         4
        20        17        15        33     9        0.000000       -0.462764         1
        20        17        15        33     9      180.000000        0.209772         2
        20        17        15        33     9        0.000000        0.208553         3
        20        17        15        33     9      180.000000        0.011047         4
        20        17        18        36     9        0.000000        0.093355         1
        20        17        18        36     9      180.000000        0.124033         2
        20        17        18        36     9        0.000000        0.565329         3
        20        17        18        36     9      180.000000        0.025602         4
        20        17        18        37     9        0.000000        0.093355         1
        20        17        18        37     9      180.000000        0.124033         2
        20        17        18        37     9        0.000000        0.565329         3
        20        17        18        37     9      180.000000        0.025602         4
        20        21        13        31     9        0.000000       -0.261393         1
        20        21        13        31     9      180.000000        0.249258         2
        20        21        13        31     9        0.000000        0.357451         3
        20        21        13        31     9      180.000000       -0.040922         4
        20        21        22        23     9        0.000000       -1.894297         1
        20        21        22        23     9      180.000000       -2.746319         2
        20        21        22        23     9        0.000000        0.615789         3
        20        21        22        23     9      180.000000        0.127890         4
        21        13        12        30     9        0.000000       -0.963254         1
        21        13        12        30     9      180.000000       -0.044985         2
        21        13        12        30     9        0.000000        0.041362         3
        21        13        12        30     9      180.000000        0.127888         4
        21        13        14        32     9        0.000000        8.623688         1
        21        13        14        32     9      180.000000       -5.226138         2
        21        13        14        32     9        0.000000        1.322936         3
        21        13        14        32     9      180.000000        0.245137         4
        21        20        17        35     9        0.000000       -0.287618         1
        21        20        17        35     9      180.000000       -0.309009         2
        21        20        17        35     9        0.000000        0.387380         3
        21        20        17        35     9      180.000000        0.045662         4
        21        22        23        24     9        0.000000        0.284689         1
        21        22        23        24     9      180.000000        2.064076         2
        21        22        23        24     9        0.000000        0.006933         3
        21        22        23        24     9      180.000000        0.354834         4
        21        22        23        28     9        0.000000        0.284689         1
        21        22        23        28     9      180.000000        2.064076         2
        21        22        23        28     9        0.000000        0.006934         3
        21        22        23        28     9      180.000000        0.354834         4
        22        21        13        31     9        0.000000        0.252548         1
        22        21        13        31     9      180.000000       -0.123767         2
        22        21        13        31     9        0.000000        0.596959         3
        22        21        13        31     9      180.000000       -0.099829         4
        22        23        24        25     9        0.000000        0.090767         1
        22        23        24        25     9      180.000000       14.906646         2
        22        23        24        25     9        0.000000        0.077297         3
        22        23        24        25     9      180.000000       -0.276970         4
        22        23        24        40     9        0.000000        0.034745         1
        22        23        24        40     9      180.000000       12.254993         2
        22        23        24        40     9        0.000000        0.012883         3
        22        23        24        40     9      180.000000        0.080875         4
        22        23        28        27     9        0.000000        0.090767         1
        22        23        28        27     9      180.000000       14.906646         2
        22        23        28        27     9        0.000000        0.077296         3
        22        23        28        27     9      180.000000       -0.276971         4
        22        23        28        43     9        0.000000        0.034744         1
        22        23        28        43     9      180.000000       12.254991         2
        22        23        28        43     9        0.000000        0.012883         3
        22        23        28        43     9      180.000000        0.080876         4
        23        22        21        39     9        0.000000        1.415589         1
        23        22        21        39     9      180.000000       -0.246318         2
        23        22        21        39     9        0.000000        0.951127         3
        23        22        21        39     9      180.000000       -0.121517         4
        23        24        25        26     9        0.000000        0.008502         1
        23        24        25        26     9      180.000000       18.033237         2
        23        24        25        26     9        0.000000       -1.503915         3
        23        24        25        26     9      180.000000       -0.413491         4
        23        24        25        41     9        0.000000        0.103564         1
        23        24        25        41     9      180.000000       14.220273         2
        23        24        25        41     9        0.000000       -0.516611         3
        23        24        25        41     9      180.000000        0.127951         4
        23        28        27        26     9        0.000000        0.008502         1
        23        28        27        26     9      180.000000       18.033237         2
        23        28        27        26     9        0.000000       -1.503914         3
        23        28        27        26     9      180.000000       -0.413491         4
        23        28        27        42     9        0.000000        0.103564         1
        23        28        27        42     9      180.000000       14.220274         2
        23        28        27        42     9        0.000000       -0.516611         3
        23        28        27        42     9      180.000000        0.127951         4
        24        23        28        27     9        0.000000        0.084359         1
        24        23        28        27     9      180.000000       18.238248         2
        24        23        28        27     9        0.000000       -1.324122         3
        24        23        28        27     9      180.000000       -0.437229         4
        24        23        28        43     9        0.000000        0.085492         1
        24        23        28        43     9      180.000000       13.243304         2
        24        23        28        43     9        0.000000       -0.540870         3
        24        23        28        43     9      180.000000        0.076148         4
        24        25        26        27     9        0.000000       -0.066714         1
        24        25        26        27     9      180.000000       18.829510         2
        24        25        26        27     9        0.000000       -1.336609         3
        24        25        26        27     9      180.000000       -0.462958         4
        24        25        26        46     9        0.000000        0.142438         1
        24        25        26        46     9      180.000000       15.590057         2
        24        25        26        46     9        0.000000       -0.174449         3
        24        25        26        46     9      180.000000       -0.113364         4
        25        24        23        28     9        0.000000        0.084359         1
        25        24        23        28     9      180.000000       18.238252         2
        25        24        23        28     9        0.000000       -1.324121         3
        25        24        23        28     9      180.000000       -0.437229         4
        25        26        27        28     9        0.000000       -0.066714         1
        25        26        27        28     9      180.000000       18.829510         2
        25        26        27        28     9        0.000000       -1.336610         3
        25        26        27        28     9      180.000000       -0.462957         4
        25        26        27        42     9        0.000000       -0.040103         1
        25        26        27        42     9      180.000000       14.335382         2
        25        26        27        42     9        0.000000       -0.542025         3
        25        26        27        42     9      180.000000        0.083422         4
        25        26        46        47     9        0.000000       -0.021448         1
        25        26        46        47     9      180.000000        0.013149         2
        25        26        46        47     9        0.000000       -0.015868         3
        25        26        46        47     9      180.000000        0.007989         4
        25        26        46        48     9        0.000000       -0.021448         1
        25        26        46        48     9      180.000000        0.013149         2
        25        26        46        48     9        0.000000       -0.015868         3
        25        26        46        48     9      180.000000        0.007989         4
        25        26        46        49     9        0.000000       -0.021448         1
        25        26        46        49     9      180.000000        0.013149         2
        25        26        46        49     9        0.000000       -0.015868         3
        25        26        46        49     9      180.000000        0.007989         4
        26        25        24        40     9        0.000000        0.140304         1
        26        25        24        40     9      180.000000       14.166239         2
        26        25        24        40     9        0.000000       -0.708833         3
        26        25        24        40     9      180.000000        0.143764         4
        26        27        28        43     9        0.000000        0.140305         1
        26        27        28        43     9      180.000000       14.166239         2
        26        27        28        43     9        0.000000       -0.708833         3
        26        27        28        43     9      180.000000        0.143764         4
        27        26        25        41     9        0.000000       -0.040103         1
        27        26        25        41     9      180.000000       14.335381         2
        27        26        25        41     9        0.000000       -0.542024         3
        27        26        25        41     9      180.000000        0.083423         4
        27        26        46        47     9        0.000000       -0.021448         1
        27        26        46        47     9      180.000000        0.013149         2
        27        26        46        47     9        0.000000       -0.015868         3
        27        26        46        47     9      180.000000        0.007989         4
        27        26        46        48     9        0.000000       -0.021448         1
        27        26        46        48     9      180.000000        0.013149         2
        27        26        46        48     9        0.000000       -0.015868         3
        27        26        46        48     9      180.000000        0.007989         4
        27        26        46        49     9        0.000000       -0.021448         1
        27        26        46        49     9      180.000000        0.013149         2
        27        26        46        49     9        0.000000       -0.015868         3
        27        26        46        49     9      180.000000        0.007989         4
        28        23        24        40     9        0.000000        0.085492         1
        28        23        24        40     9      180.000000       13.243304         2
        28        23        24        40     9        0.000000       -0.540870         3
        28        23        24        40     9      180.000000        0.076148         4
        28        27        26        46     9        0.000000        0.142438         1
        28        27        26        46     9      180.000000       15.590057         2
        28        27        26        46     9        0.000000       -0.174449         3
        28        27        26        46     9      180.000000       -0.113364         4
        30        12        13        31     9        0.000000        0.403592         1
        30        12        13        31     9      180.000000        0.247009         2
        30        12        13        31     9        0.000000        0.441818         3
        30        12        13        31     9      180.000000       -0.177686         4
        30        12        15        33     9        0.000000        0.451068         1
        30        12        15        33     9      180.000000        0.148263         2
        30        12        15        33     9        0.000000        0.447451         3
        30        12        15        33     9      180.000000       -0.170967         4
        31        13        14        32     9        0.000000        2.433431         1
        31        13        14        32     9      180.000000       -1.780002         2
        31        13        14        32     9        0.000000        0.608029         3
        31        13        14        32     9      180.000000        0.328178         4
        31        13        21        39     9        0.000000        0.109987         1
        31        13        21        39     9      180.000000        0.118905         2
        31        13        21        39     9        0.000000        0.596732         3
        31        13        21        39     9      180.000000       -0.114269         4
        33        15        16        34     9        0.000000        2.929974         1
        33        15        16        34     9      180.000000       -2.028959         2
        33        15        16        34     9        0.000000        0.666360         3
        33        15        16        34     9      180.000000        0.366349         4
        33        15        17        35     9        0.000000        0.364640         1
        33        15        17        35     9      180.000000        0.035578         2
        33        15        17        35     9        0.000000        0.640265         3
        33        15        17        35     9      180.000000       -0.194472         4
        35        17        18        36     9        0.000000        0.052025         1
        35        17        18        36     9      180.000000       -0.013893         2
        35        17        18        36     9        0.000000        0.749390         3
        35        17        18        36     9      180.000000       -0.067040         4
        35        17        18        37     9        0.000000        0.052025         1
        35        17        18        37     9      180.000000       -0.013893         2
        35        17        18        37     9        0.000000        0.749390         3
        35        17        18        37     9      180.000000       -0.067040         4
        36        18        19        38     9        0.000000        0.213708         1
        36        18        19        38     9      180.000000       -0.140067         2
        36        18        19        38     9        0.000000        0.920910         3
        36        18        19        38     9      180.000000        0.084170         4
        37        18        19        38     9        0.000000        0.213708         1
        37        18        19        38     9      180.000000       -0.140067         2
        37        18        19        38     9        0.000000        0.920910         3
        37        18        19        38     9      180.000000        0.084170         4
        40        24        25        41     9        0.000000       -0.061596         1
        40        24        25        41     9      180.000000       12.072529         2
        40        24        25        41     9        0.000000       -0.716058         3
        40        24        25        41     9      180.000000        0.281920         4
        41        25        26        46     9        0.000000       -0.150870         1
        41        25        26        46     9      180.000000       12.936878         2
        41        25        26        46     9        0.000000       -0.352460         3
        41        25        26        46     9      180.000000        0.224871         4
        42        27        26        46     9        0.000000       -0.150870         1
        42        27        26        46     9      180.000000       12.936876         2
        42        27        26        46     9        0.000000       -0.352460         3
        42        27        26        46     9      180.000000        0.224871         4
        42        27        28        43     9        0.000000       -0.061596         1
        42        27        28        43     9      180.000000       12.072528         2
        42        27        28        43     9        0.000000       -0.716058         3
        42        27        28        43     9      180.000000        0.281920         4
        44         1         2        50     9        0.000000        0.310907         1
        44         1         2        50     9      180.000000       16.513300         2
        44         1         2        50     9        0.000000        0.293426         3
        44         1         2        50     9      180.000000        0.116175         4
        44         1         3        51     9        0.000000        0.300272         1
        44         1         3        51     9      180.000000       15.173485         2
        44         1         3        51     9        0.000000        0.234406         3
        44         1         3        51     9      180.000000        0.213312         4
        45         4         3        51     9        0.000000        0.300272         1
        45         4         3        51     9      180.000000       15.173485         2
        45         4         3        51     9        0.000000        0.234406         3
        45         4         3        51     9      180.000000        0.213312         4
        45         4         5        52     9        0.000000        0.310907         1
        45         4         5        52     9      180.000000       16.513300         2
        45         4         5        52     9        0.000000        0.293426         3
        45         4         5        52     9      180.000000        0.116175         4

[ dihedrals ] ; impropers
;       ai        aj        ak        al funct           phase               k        pn
         1         2         3        44     4      180.000000        1.613529         2
         1         3        44         2     4      180.000000        1.613529         2
         1        44         2         3     4      180.000000        1.613529         2
         4         3         5        45     4      180.000000        1.613529         2
         4         5        45         3     4      180.000000        1.613529         2
         4        45         3         5     4      180.000000        1.613529         2
        24        23        25        40     4      180.000000        1.752813         2
        24        25        40        23     4      180.000000        1.752813         2
        24        40        23        25     4      180.000000        1.752813         2
        25        24        26        41     4      180.000000        2.505519         2
        25        26        41        24     4      180.000000        2.505519         2
        25        41        24        26     4      180.000000        2.505519         2
        27        26        28        42     4      180.000000        2.505519         2
        27        28        42        26     4      180.000000        2.505519         2
        27        42        26        28     4      180.000000        2.505519         2
        28        23        27        43     4      180.000000        1.752813         2
        28        27        43        23     4      180.000000        1.752813         2
        28        43        23        27     4      180.000000        1.752813         2

[ pairs ]
;       ai        aj funct
         1         5     1
         1         7     1
         1        45     1
         2         4     1
         2         8     1
         2        10     1
         2        51     1
         2        52     1
         3         6     1
         3        50     1
         3        52     1
         4         7     1
         4        44     1
         5         8     1
         5        10     1
         5        50     1
         5        51     1
         6         9     1
         6        11     1
         6        29     1
         6        44     1
         6        45     1
         7        12     1
         7        50     1
         7        52     1
         8        12     1
         8        29     1
         9        13     1
         9        15     1
         9        29     1
         9        30     1
        10        13     1
        10        15     1
        10        30     1
        11        14     1
        11        16     1
        11        17     1
        11        21     1
        11        31     1
        11        33     1
        12        18     1
        12        20     1
        12        22     1
        12        29     1
        12        32     1
        12        34     1
        12        35     1
        12        39     1
        13        16     1
        13        17     1
        13        23     1
        13        33     1
        14        15     1
        14        20     1
        14        22     1
        14        30     1
        14        39     1
        15        19     1
        15        21     1
        15        31     1
        15        36     1
        15        37     1
        16        18     1
        16        20     1
        16        30     1
        16        35     1
        17        22     1
        17        30     1
        17        34     1
        17        38     1
        17        39     1
        18        21     1
        18        33     1
        19        20     1
        19        35     1
        20        23     1
        20        31     1
        20        33     1
        20        36     1
        20        37     1
        21        24     1
        21        28     1
        21        30     1
        21        32     1
        21        35     1
        22        25     1
        22        27     1
        22        31     1
        22        40     1
        22        43     1
        23        26     1
        23        39     1
        23        41     1
        23        42     1
        24        27     1
        24        43     1
        24        46     1
        25        28     1
        25        42     1
        25        47     1
        25        48     1
        25        49     1
        26        40     1
        26        43     1
        27        41     1
        27        47     1
        27        48     1
        27        49     1
        28        40     1
        28        46     1
        30        31     1
        30        33     1
        31        32     1
        31        39     1
        33        34     1
        33        35     1
        35        36     1
        35        37     1
        36        38     1
        37        38     1
        40        41     1
        41        46     1
        42        43     1
        42        46     1
        44        50     1
        44        51     1
        45        51     1
        45        52     1
