; ITP file created by ByteFF-ML, 2025-12-06 07:53:04.040554

[ atomtypes ]
;name           bonded.type        at.num        mass        charge   ptype           sigma         epsilon
 c0bf                                   6      0.0000       0.00000       A     3.31532e-01     4.12603e-01
 n1bf                                   7      0.0000       0.00000       A     3.38396e-01     3.92639e-01
 n2bf                                   7      0.0000       0.00000       A     3.38467e-01     3.92442e-01
 c3bf                                   6      0.0000       0.00000       A     3.31484e-01     4.15698e-01
 n4bf                                   7      0.0000       0.00000       A     3.20862e-01     8.44536e-01
 c5bf                                   6      0.0000       0.00000       A     3.39846e-01     4.47977e-01
 c6bf                                   6      0.0000       0.00000       A     3.39915e-01     4.48540e-01
 o7bf                                   8      0.0000       0.00000       A     3.24549e-01     3.87420e-01
 c8bf                                   6      0.0000       0.00000       A     3.40020e-01     4.49999e-01
 o9bf                                   8      0.0000       0.00000       A     3.24320e-01     3.87708e-01
 c10bf                                  6      0.0000       0.00000       A     3.39647e-01     4.56832e-01
 c11bf                                  6      0.0000       0.00000       A     3.39820e-01     4.52529e-01
 o12bf                                  8      0.0000       0.00000       A     3.24359e-01     3.88520e-01
 o13bf                                  8      0.0000       0.00000       A     3.15681e-01     3.03220e-01
 c14bf                                  6      0.0000       0.00000       A     3.39902e-01     4.49017e-01
 s15bf                                 16      0.0000       0.00000       A     3.53471e-01     1.18027e+00
 c16bf                                  6      0.0000       0.00000       A     3.31440e-01     4.14040e-01
 c17bf                                  6      0.0000       0.00000       A     3.31442e-01     4.12547e-01
 c18bf                                  6      0.0000       0.00000       A     3.31490e-01     4.13165e-01
 c19bf                                  6      0.0000       0.00000       A     3.31485e-01     4.12621e-01
 c20bf                                  6      0.0000       0.00000       A     3.31490e-01     4.13165e-01
 c21bf                                  6      0.0000       0.00000       A     3.31442e-01     4.12547e-01
 h22bf                                  1      0.0000       0.00000       A     2.53831e-01     6.72791e-02
 h23bf                                  1      0.0000       0.00000       A     2.42787e-01     8.64894e-02
 h24bf                                  1      0.0000       0.00000       A     2.41856e-01     8.61239e-02
 h25bf                                  1      0.0000       0.00000       A     5.37872e-02     1.99573e-02
 h26bf                                  1      0.0000       0.00000       A     2.42193e-01     8.65469e-02
 h27bf                                  1      0.0000       0.00000       A     5.35538e-02     2.00387e-02
 h28bf                                  1      0.0000       0.00000       A     2.42310e-01     8.69235e-02
 h29bf                                  1      0.0000       0.00000       A     2.42100e-01     8.75827e-02
 h30bf                                  1      0.0000       0.00000       A     2.42100e-01     8.75827e-02
 h31bf                                  1      0.0000       0.00000       A     5.36851e-02     2.04855e-02
 h32bf                                  1      0.0000       0.00000       A     2.25673e-01     8.91197e-02
 h33bf                                  1      0.0000       0.00000       A     2.62590e-01     6.78345e-02
 h34bf                                  1      0.0000       0.00000       A     2.62482e-01     6.71674e-02
 h35bf                                  1      0.0000       0.00000       A     2.62482e-01     6.71674e-02
 h36bf                                  1      0.0000       0.00000       A     2.62590e-01     6.78345e-02
 c37bf                                  6      0.0000       0.00000       A     3.39812e-01     4.50524e-01
 h38bf                                  1      0.0000       0.00000       A     2.59993e-01     8.72348e-02
 h39bf                                  1      0.0000       0.00000       A     2.59993e-01     8.72348e-02
 h40bf                                  1      0.0000       0.00000       A     2.59993e-01     8.72348e-02
 h41bf                                  1      0.0000       0.00000       A     2.59955e-01     8.67735e-02
 c42bf                                  6      0.0000       0.00000       A     3.39685e-01     4.50436e-01
 c43bf                                  6      0.0000       0.00000       A     3.39686e-01     4.50430e-01
 c44bf                                  6      0.0000       0.00000       A     3.39808e-01     4.50419e-01
 c45bf                                  6      0.0000       0.00000       A     3.39808e-01     4.50419e-01
 c46bf                                  6      0.0000       0.00000       A     3.39686e-01     4.50430e-01
 h47bf                                  1      0.0000       0.00000       A     2.60009e-01     8.65900e-02
 h48bf                                  1      0.0000       0.00000       A     2.60009e-01     8.65900e-02
 h49bf                                  1      0.0000       0.00000       A     2.60209e-01     8.68852e-02
 h50bf                                  1      0.0000       0.00000       A     2.60209e-01     8.68852e-02
 h51bf                                  1      0.0000       0.00000       A     2.60209e-01     8.68852e-02
 h52bf                                  1      0.0000       0.00000       A     2.60209e-01     8.68852e-02
 h53bf                                  1      0.0000       0.00000       A     2.60009e-01     8.65900e-02
 h54bf                                  1      0.0000       0.00000       A     2.60009e-01     8.65900e-02

[ moleculetype ]
;name             nrexcl
 17m                   3

[ atoms ]
;       nr            type      resi   res      atom      cgnr      charge          mass ; qtot
         1            c0bf         1   UNL        c0         1     0.19928       12.0110 ; qtot    0.199
         2            n1bf         1   UNL        n1         2    -0.35192       14.0070 ; qtot   -0.153
         3            n2bf         1   UNL        n2         3    -0.21409       14.0070 ; qtot   -0.367
         4            c3bf         1   UNL        c3         4    -0.17414       12.0110 ; qtot   -0.541
         5            n4bf         1   UNL        n4         5     0.12117       14.0070 ; qtot   -0.420
         6            c5bf         1   UNL        c5         6     0.06980       12.0110 ; qtot   -0.350
         7            c6bf         1   UNL        c6         7     0.18072       12.0110 ; qtot   -0.169
         8            o7bf         1   UNL        o7         8    -0.69248       15.9990 ; qtot   -0.862
         9            c8bf         1   UNL        c8         9     0.16583       12.0110 ; qtot   -0.696
        10            o9bf         1   UNL        o9        10    -0.69733       15.9990 ; qtot   -1.393
        11           c10bf         1   UNL       c10        11     0.12245       12.0110 ; qtot   -1.271
        12           c11bf         1   UNL       c11        12     0.15857       12.0110 ; qtot   -1.112
        13           o12bf         1   UNL       o12        13    -0.67968       15.9990 ; qtot   -1.792
        14           o13bf         1   UNL       o13        14    -0.43842       15.9990 ; qtot   -2.230
        15           c14bf         1   UNL       c14        15     0.30762       12.0110 ; qtot   -1.923
        16           s15bf         1   UNL       s15        16    -0.22319       32.0670 ; qtot   -2.146
        17           c16bf         1   UNL       c16        17    -0.11437       12.0110 ; qtot   -2.260
        18           c17bf         1   UNL       c17        18    -0.07085       12.0110 ; qtot   -2.331
        19           c18bf         1   UNL       c18        19    -0.11727       12.0110 ; qtot   -2.448
        20           c19bf         1   UNL       c19        20    -0.06564       12.0110 ; qtot   -2.514
        21           c20bf         1   UNL       c20        21    -0.11727       12.0110 ; qtot   -2.631
        22           c21bf         1   UNL       c21        22    -0.07085       12.0110 ; qtot   -2.702
        23           h22bf         1   UNL       h22        23     0.17420        1.0080 ; qtot   -2.528
        24           h23bf         1   UNL       h23        24     0.09539        1.0080 ; qtot   -2.432
        25           h24bf         1   UNL       h24        25     0.07453        1.0080 ; qtot   -2.358
        26           h25bf         1   UNL       h25        26     0.49318        1.0080 ; qtot   -1.865
        27           h26bf         1   UNL       h26        27     0.06676        1.0080 ; qtot   -1.798
        28           h27bf         1   UNL       h27        28     0.49179        1.0080 ; qtot   -1.306
        29           h28bf         1   UNL       h28        29     0.07347        1.0080 ; qtot   -1.233
        30           h29bf         1   UNL       h29        30     0.04981        1.0080 ; qtot   -1.183
        31           h30bf         1   UNL       h30        31     0.04981        1.0080 ; qtot   -1.133
        32           h31bf         1   UNL       h31        32     0.46110        1.0080 ; qtot   -0.672
        33           h32bf         1   UNL       h32        33     0.08799        1.0080 ; qtot   -0.584
        34           h33bf         1   UNL       h33        34     0.12284        1.0080 ; qtot   -0.461
        35           h34bf         1   UNL       h34        35     0.11553        1.0080 ; qtot   -0.346
        36           h35bf         1   UNL       h35        36     0.11553        1.0080 ; qtot   -0.230
        37           h36bf         1   UNL       h36        37     0.12284        1.0080 ; qtot   -0.107
        38           c37bf         1   UNL       c37        38    -0.04806       12.0110 ; qtot   -0.155
        39           h38bf         1   UNL       h38        39     0.04333        1.0080 ; qtot   -0.112
        40           h39bf         1   UNL       h39        40     0.04333        1.0080 ; qtot   -0.069
        41           h40bf         1   UNL       h40        41     0.04333        1.0080 ; qtot   -0.025
        42           h41bf         1   UNL       h41        42     0.06167        1.0080 ; qtot    0.036
        43           c42bf         1   UNL       c42        43    -0.09126       12.0110 ; qtot   -0.055
        44           c43bf         1   UNL       c43        44    -0.07719       12.0110 ; qtot   -0.132
        45           c44bf         1   UNL       c44        45    -0.07997       12.0110 ; qtot   -0.212
        46           c45bf         1   UNL       c45        46    -0.07997       12.0110 ; qtot   -0.292
        47           c46bf         1   UNL       c46        47    -0.07719       12.0110 ; qtot   -0.369
        48           h47bf         1   UNL       h47        48     0.04896        1.0080 ; qtot   -0.320
        49           h48bf         1   UNL       h48        49     0.04896        1.0080 ; qtot   -0.271
        50           h49bf         1   UNL       h49        50     0.04336        1.0080 ; qtot   -0.228
        51           h50bf         1   UNL       h50        51     0.04336        1.0080 ; qtot   -0.185
        52           h51bf         1   UNL       h51        52     0.04336        1.0080 ; qtot   -0.141
        53           h52bf         1   UNL       h52        53     0.04336        1.0080 ; qtot   -0.098
        54           h53bf         1   UNL       h53        54     0.04896        1.0080 ; qtot   -0.049
        55           h54bf         1   UNL       h54        55     0.04895        1.0080 ; qtot   -0.000

[ bonds ]
;       ai        aj funct               r               k
         1         2     1        0.136841   247726.534521
         1         4     1        0.138375   335712.372070
         1        43     1        0.149921   214671.427832
         2         3     1        0.130837   324385.795801
         3         5     1        0.135385   202638.558960
         4         5     1        0.136070   298644.032031
         4        23     1        0.107943   343334.024512
         5         6     1        0.146096   194564.759229
         6         7     1        0.154120   162558.691455
         6         9     1        0.154118   162560.989795
         6        24     1        0.109341   302769.858496
         7         8     1        0.142135   208733.015649
         7        15     1        0.154044   163767.720361
         7        25     1        0.109548   296027.244434
         8        26     1        0.097570   447174.448730
         9        10     1        0.142523   206605.059399
         9        11     1        0.154084   163172.399268
         9        27     1        0.109618   293622.695752
        10        28     1        0.097438   453206.211816
        11        12     1        0.152837   181609.400586
        11        14     1        0.144022   172846.469189
        11        29     1        0.109738   290579.974707
        12        13     1        0.142806   214851.821973
        12        30     1        0.109612   292209.548730
        12        31     1        0.109612   292209.548730
        13        32     1        0.097057   469375.594434
        14        15     1        0.141198   193409.651929
        15        16     1        0.185356    89023.550757
        15        33     1        0.109428   301568.618408
        16        17     1        0.179110   139046.521631
        17        18     1        0.140242   291728.429590
        17        22     1        0.140242   291728.429590
        18        19     1        0.139734   312067.690186
        18        34     1        0.108549   320360.202490
        19        20     1        0.140319   288269.045068
        19        35     1        0.108726   315373.954199
        20        21     1        0.140319   288269.045068
        20        38     1        0.151086   206426.018726
        21        22     1        0.139734   312067.690186
        21        36     1        0.108726   315373.954199
        22        37     1        0.108549   320360.202490
        38        39     1        0.109458   298881.910205
        38        40     1        0.109458   298881.910205
        38        41     1        0.109458   298881.910205
        42        43     1        0.109482   299603.205859
        43        44     1        0.155028   151996.530249
        43        47     1        0.155028   151996.530249
        44        45     1        0.154496   165738.125415
        44        48     1        0.109363   303258.332324
        44        49     1        0.109363   303258.332324
        45        46     1        0.155024   161248.727124
        45        50     1        0.109398   302767.304785
        45        51     1        0.109398   302767.304785
        46        47     1        0.154496   165738.125415
        46        52     1        0.109398   302767.304785
        46        53     1        0.109398   302767.304785
        47        54     1        0.109363   303258.332324
        47        55     1        0.109363   303258.332324

[ angles ]
;       ai        aj        ak funct           theta             cth
         1         2         3     1      109.525131      433.885512
         1         4         5     1      104.852051      185.865514
         1         4        23     1      132.890839      295.700765
         1        43        42     1      107.574051      534.166037
         1        43        44     1      113.631393      568.143097
         1        43        47     1      113.631393      568.143097
         2         1         4     1      107.895752      292.735651
         2         1        43     1      122.323853      537.919801
         2         3         5     1      107.732506      712.207827
         3         5         4     1      110.385727      167.360000
         3         5         6     1      120.218872      558.881745
         4         1        43     1      130.147537      456.184962
         4         5         6     1      129.048889      465.765113
         5         4        23     1      122.453079      477.087438
         5         6         7     1      111.370682      621.069459
         5         6         9     1      111.528954      623.588631
         5         6        24     1      105.846291      565.148105
         6         7         8     1      110.431847      605.852917
         6         7        15     1      109.455276      623.923359
         6         7        25     1      108.620262      456.180525
         6         9        10     1      110.173424      598.889522
         6         9        11     1      109.667458      634.713490
         6         9        27     1      108.370445      461.172264
         7         6         9     1      111.091080      609.154418
         7         6        24     1      107.739822      474.428865
         7         8        26     1      107.001907      563.536714
         7        15        14     1      111.649391      530.812472
         7        15        16     1      111.121826      476.858434
         7        15        33     1      109.398842      459.056961
         8         7        15     1      110.632996      584.342052
         8         7        25     1      109.505226      454.566357
         9         6        24     1      107.902328      475.414980
         9        10        28     1      107.163124      571.830145
         9        11        12     1      113.952560      623.316980
         9        11        14     1      110.586624      537.401014
         9        11        29     1      107.974205      474.645483
        10         9        11     1      110.194969      604.101773
        10         9        27     1      109.353859      458.374450
        11         9        27     1      108.484055      460.689868
        11        12        13     1      111.065964      625.867882
        11        12        30     1      109.070946      478.304951
        11        12        31     1      109.070946      478.304951
        11        14        15     1      114.299454      561.641094
        12        11        14     1      107.501694      641.977776
        12        11        29     1      108.404587      488.419881
        12        13        32     1      107.524818      590.048638
        13        12        30     1      109.382347      473.459476
        13        12        31     1      109.382347      473.459476
        14        11        29     1      107.711388      457.078250
        14        15        16     1      109.595230      522.927826
        14        15        33     1      108.505638      449.403998
        15         7        25     1      108.186974      467.658722
        15        16        17     1      100.042709      754.237185
        16        15        33     1      107.190735      378.175222
        16        17        18     1      120.348305      387.060029
        16        17        22     1      120.348305      387.060029
        17        18        19     1      120.173157      641.204193
        17        18        34     1      119.877075      381.600770
        17        22        21     1      120.173157      641.204193
        17        22        37     1      119.877075      381.600770
        18        17        22     1      119.113083      679.871079
        18        19        20     1      121.290512      701.461811
        18        19        35     1      119.123253      429.501939
        19        18        34     1      119.993553      418.843388
        19        20        21     1      117.876991      697.308456
        19        20        38     1      121.020912      483.446401
        20        19        35     1      119.593529      395.778239
        20        21        22     1      121.290512      701.461811
        20        21        36     1      119.593529      395.778239
        20        38        39     1      111.248535      482.985073
        20        38        40     1      111.248535      482.985073
        20        38        41     1      111.248535      482.985073
        21        20        38     1      121.020912      483.446401
        21        22        37     1      119.993553      418.843388
        22        21        36     1      119.123253      429.501939
        30        12        31     1      108.155106      339.092304
        39        38        40     1      107.633987      359.456202
        39        38        41     1      107.633987      359.456202
        40        38        41     1      107.633987      359.456202
        42        43        44     1      109.462303      457.776371
        42        43        47     1      109.462303      457.776371
        43        44        45     1      104.765335      474.082709
        43        44        48     1      110.490585      470.653937
        43        44        49     1      110.490585      470.653937
        43        47        46     1      104.765335      474.082709
        43        47        54     1      110.490585      470.653937
        43        47        55     1      110.490585      470.653937
        44        43        47     1      102.871750      407.408126
        44        45        46     1      105.141968      496.695181
        44        45        50     1      111.009460      477.398224
        44        45        51     1      111.009460      477.398224
        45        44        48     1      111.634628      468.652945
        45        44        49     1      111.634628      468.652945
        45        46        47     1      105.141968      496.695181
        45        46        52     1      111.276100      464.488609
        45        46        53     1      111.276100      464.488609
        46        45        50     1      111.276100      464.488609
        46        45        51     1      111.276100      464.488609
        46        47        54     1      111.634628      468.652945
        46        47        55     1      111.634628      468.652945
        47        46        52     1      111.009460      477.398224
        47        46        53     1      111.009460      477.398224
        48        44        49     1      107.326920      359.917913
        50        45        51     1      106.990250      359.886757
        52        46        53     1      106.990250      359.886757
        54        47        55     1      107.326920      359.917913

[ dihedrals ] ; propers for gromacs 4.5 or higher, use funct 9
;       ai        aj        ak        al funct           phase               k        pn
         1         2         3         5     9        0.000000        0.200543         1
         1         2         3         5     9      180.000000       43.316404         2
         1         2         3         5     9        0.000000       -4.411231         3
         1         2         3         5     9      180.000000        0.381074         4
         1         4         5         3     9        0.000000        0.202326         1
         1         4         5         3     9      180.000000       28.587792         2
         1         4         5         3     9        0.000000       -7.417392         3
         1         4         5         3     9      180.000000       -0.256998         4
         1         4         5         6     9        0.000000        1.075438         1
         1         4         5         6     9      180.000000        6.092681         2
         1         4         5         6     9        0.000000        0.952018         3
         1         4         5         6     9      180.000000       -0.148652         4
         1        43        44        45     9        0.000000       -0.612963         1
         1        43        44        45     9      180.000000       -0.168179         2
         1        43        44        45     9        0.000000        0.359212         3
         1        43        44        45     9      180.000000        0.069311         4
         1        43        44        48     9        0.000000        0.068068         1
         1        43        44        48     9      180.000000        0.002397         2
         1        43        44        48     9        0.000000        0.525095         3
         1        43        44        48     9      180.000000       -0.055479         4
         1        43        44        49     9        0.000000        0.068068         1
         1        43        44        49     9      180.000000        0.002397         2
         1        43        44        49     9        0.000000        0.525095         3
         1        43        44        49     9      180.000000       -0.055479         4
         1        43        47        46     9        0.000000       -0.612963         1
         1        43        47        46     9      180.000000       -0.168179         2
         1        43        47        46     9        0.000000        0.359212         3
         1        43        47        46     9      180.000000        0.069311         4
         1        43        47        54     9        0.000000        0.068068         1
         1        43        47        54     9      180.000000        0.002397         2
         1        43        47        54     9        0.000000        0.525095         3
         1        43        47        54     9      180.000000       -0.055479         4
         1        43        47        55     9        0.000000        0.068068         1
         1        43        47        55     9      180.000000        0.002397         2
         1        43        47        55     9        0.000000        0.525095         3
         1        43        47        55     9      180.000000       -0.055479         4
         2         1         4         5     9        0.000000       -0.353049         1
         2         1         4         5     9      180.000000       33.356630         2
         2         1         4         5     9        0.000000       -8.646447         3
         2         1         4         5     9      180.000000        0.103530         4
         2         1         4        23     9        0.000000        0.842276         1
         2         1         4        23     9      180.000000       14.070290         2
         2         1         4        23     9        0.000000       -0.326122         3
         2         1         4        23     9      180.000000       -0.566709         4
         2         1        43        42     9        0.000000        0.925414         1
         2         1        43        42     9      180.000000        0.300292         2
         2         1        43        42     9        0.000000        0.162985         3
         2         1        43        42     9      180.000000       -0.008340         4
         2         1        43        44     9        0.000000       -0.881375         1
         2         1        43        44     9      180.000000        0.030555         2
         2         1        43        44     9        0.000000        0.239770         3
         2         1        43        44     9      180.000000        0.011594         4
         2         1        43        47     9        0.000000       -0.881375         1
         2         1        43        47     9      180.000000        0.030555         2
         2         1        43        47     9        0.000000        0.239770         3
         2         1        43        47     9      180.000000        0.011594         4
         2         3         5         4     9        0.000000       -0.159664         1
         2         3         5         4     9      180.000000       36.119344         2
         2         3         5         4     9        0.000000       -5.854635         3
         2         3         5         4     9      180.000000       -0.128591         4
         2         3         5         6     9        0.000000        1.268294         1
         2         3         5         6     9      180.000000       15.109416         2
         2         3         5         6     9        0.000000        1.214699         3
         2         3         5         6     9      180.000000       -0.514619         4
         3         2         1         4     9        0.000000       -0.136497         1
         3         2         1         4     9      180.000000       38.769362         2
         3         2         1         4     9        0.000000       -6.843057         3
         3         2         1         4     9      180.000000       -0.020398         4
         3         2         1        43     9        0.000000        0.632419         1
         3         2         1        43     9      180.000000       25.608799         2
         3         2         1        43     9        0.000000        0.837015         3
         3         2         1        43     9      180.000000       -0.777118         4
         3         5         4        23     9        0.000000        1.084193         1
         3         5         4        23     9      180.000000       11.141006         2
         3         5         4        23     9        0.000000       -0.055376         3
         3         5         4        23     9      180.000000       -0.227891         4
         3         5         6         7     9        0.000000       -1.417863         1
         3         5         6         7     9      180.000000        0.113872         2
         3         5         6         7     9        0.000000        0.150238         3
         3         5         6         7     9      180.000000        0.109732         4
         3         5         6         9     9        0.000000       -1.383473         1
         3         5         6         9     9      180.000000        0.024611         2
         3         5         6         9     9        0.000000        0.165473         3
         3         5         6         9     9      180.000000        0.105144         4
         3         5         6        24     9        0.000000        0.242586         1
         3         5         6        24     9      180.000000        0.305021         2
         3         5         6        24     9        0.000000        0.125978         3
         3         5         6        24     9      180.000000        0.139087         4
         4         1        43        42     9        0.000000       -0.166257         1
         4         1        43        42     9      180.000000        0.195771         2
         4         1        43        42     9        0.000000        0.035490         3
         4         1        43        42     9      180.000000       -0.038200         4
         4         1        43        44     9        0.000000        0.301566         1
         4         1        43        44     9      180.000000        0.118717         2
         4         1        43        44     9        0.000000       -0.033934         3
         4         1        43        44     9      180.000000        0.021416         4
         4         1        43        47     9        0.000000        0.301566         1
         4         1        43        47     9      180.000000        0.118717         2
         4         1        43        47     9        0.000000       -0.033934         3
         4         1        43        47     9      180.000000        0.021416         4
         4         5         6         7     9        0.000000       -0.310026         1
         4         5         6         7     9      180.000000       -0.111309         2
         4         5         6         7     9        0.000000        0.364426         3
         4         5         6         7     9      180.000000        0.070315         4
         4         5         6         9     9        0.000000       -0.145179         1
         4         5         6         9     9      180.000000       -0.123296         2
         4         5         6         9     9        0.000000        0.375878         3
         4         5         6         9     9      180.000000        0.091664         4
         4         5         6        24     9        0.000000       -0.146004         1
         4         5         6        24     9      180.000000        0.166767         2
         4         5         6        24     9        0.000000        0.410172         3
         4         5         6        24     9      180.000000        0.096553         4
         5         4         1        43     9        0.000000        0.605445         1
         5         4         1        43     9      180.000000       16.843264         2
         5         4         1        43     9        0.000000        0.074360         3
         5         4         1        43     9      180.000000       -0.910919         4
         5         6         7         8     9        0.000000       -2.527402         1
         5         6         7         8     9      180.000000       -0.786434         2
         5         6         7         8     9        0.000000        0.517142         3
         5         6         7         8     9      180.000000        0.137580         4
         5         6         7        15     9        0.000000       -0.981095         1
         5         6         7        15     9      180.000000        0.085520         2
         5         6         7        15     9        0.000000        0.136816         3
         5         6         7        15     9      180.000000        0.077107         4
         5         6         7        25     9        0.000000        0.245058         1
         5         6         7        25     9      180.000000       -0.233280         2
         5         6         7        25     9        0.000000        0.513644         3
         5         6         7        25     9      180.000000       -0.016041         4
         5         6         9        10     9        0.000000       -2.416890         1
         5         6         9        10     9      180.000000       -1.064447         2
         5         6         9        10     9        0.000000        0.524959         3
         5         6         9        10     9      180.000000        0.124722         4
         5         6         9        11     9        0.000000       -1.119214         1
         5         6         9        11     9      180.000000        0.338062         2
         5         6         9        11     9        0.000000        0.188409         3
         5         6         9        11     9      180.000000        0.095537         4
         5         6         9        27     9        0.000000        0.391621         1
         5         6         9        27     9      180.000000       -0.218475         2
         5         6         9        27     9        0.000000        0.503925         3
         5         6         9        27     9      180.000000       -0.016418         4
         6         5         4        23     9        0.000000       -0.218229         1
         6         5         4        23     9      180.000000        4.229774         2
         6         5         4        23     9        0.000000        0.400538         3
         6         5         4        23     9      180.000000        0.087306         4
         6         7         8        26     9        0.000000        6.165866         1
         6         7         8        26     9      180.000000       -4.739345         2
         6         7         8        26     9        0.000000        1.138757         3
         6         7         8        26     9      180.000000        0.153601         4
         6         7        15        14     9        0.000000        1.315291         1
         6         7        15        14     9      180.000000       -0.553588         2
         6         7        15        14     9        0.000000        0.141904         3
         6         7        15        14     9      180.000000        0.077078         4
         6         7        15        16     9        0.000000        0.796038         1
         6         7        15        16     9      180.000000       -0.197140         2
         6         7        15        16     9        0.000000        0.399183         3
         6         7        15        16     9      180.000000        0.240059         4
         6         7        15        33     9        0.000000        0.101679         1
         6         7        15        33     9      180.000000        0.059819         2
         6         7        15        33     9        0.000000        0.323127         3
         6         7        15        33     9      180.000000        0.019420         4
         6         9        10        28     9        0.000000        6.240249         1
         6         9        10        28     9      180.000000       -4.822070         2
         6         9        10        28     9        0.000000        1.202931         3
         6         9        10        28     9      180.000000        0.198885         4
         6         9        11        12     9        0.000000       -0.928848         1
         6         9        11        12     9      180.000000        0.595874         2
         6         9        11        12     9        0.000000        0.087110         3
         6         9        11        12     9      180.000000        0.015614         4
         6         9        11        14     9        0.000000        1.726047         1
         6         9        11        14     9      180.000000       -0.732142         2
         6         9        11        14     9        0.000000       -0.028589         3
         6         9        11        14     9      180.000000        0.219448         4
         6         9        11        29     9        0.000000       -0.331510         1
         6         9        11        29     9      180.000000       -0.055730         2
         6         9        11        29     9        0.000000        0.225641         3
         6         9        11        29     9      180.000000        0.120240         4
         7         6         9        10     9        0.000000       -2.916682         1
         7         6         9        10     9      180.000000        0.849942         2
         7         6         9        10     9        0.000000        0.097216         3
         7         6         9        10     9      180.000000        0.202607         4
         7         6         9        11     9        0.000000        2.471155         1
         7         6         9        11     9      180.000000       -1.293413         2
         7         6         9        11     9        0.000000       -0.209088         3
         7         6         9        11     9      180.000000        0.054985         4
         7         6         9        27     9        0.000000       -0.301314         1
         7         6         9        27     9      180.000000        0.004473         2
         7         6         9        27     9        0.000000        0.174143         3
         7         6         9        27     9      180.000000        0.025498         4
         7        15        14        11     9        0.000000        4.426470         1
         7        15        14        11     9      180.000000       -1.814803         2
         7        15        14        11     9        0.000000       -0.132018         3
         7        15        14        11     9      180.000000        0.157704         4
         7        15        16        17     9        0.000000        0.288375         1
         7        15        16        17     9      180.000000       -0.479928         2
         7        15        16        17     9        0.000000        0.676080         3
         7        15        16        17     9      180.000000       -0.043483         4
         8         7         6         9     9        0.000000       -3.002341         1
         8         7         6         9     9      180.000000        0.819554         2
         8         7         6         9     9        0.000000        0.109287         3
         8         7         6         9     9      180.000000        0.211768         4
         8         7         6        24     9        0.000000       -0.228067         1
         8         7         6        24     9      180.000000        0.227382         2
         8         7         6        24     9        0.000000        0.376294         3
         8         7         6        24     9      180.000000       -0.065428         4
         8         7        15        14     9        0.000000       -0.853634         1
         8         7        15        14     9      180.000000       -0.261158         2
         8         7        15        14     9        0.000000        0.450676         3
         8         7        15        14     9      180.000000       -0.054142         4
         8         7        15        16     9        0.000000        1.136788         1
         8         7        15        16     9      180.000000        0.071958         2
         8         7        15        16     9        0.000000        0.753281         3
         8         7        15        16     9      180.000000        0.029231         4
         8         7        15        33     9        0.000000        0.505888         1
         8         7        15        33     9      180.000000        0.384251         2
         8         7        15        33     9        0.000000        0.478938         3
         8         7        15        33     9      180.000000       -0.092338         4
         9         6         7        15     9        0.000000        2.220544         1
         9         6         7        15     9      180.000000       -1.122103         2
         9         6         7        15     9        0.000000       -0.291788         3
         9         6         7        15     9      180.000000       -0.000133         4
         9         6         7        25     9        0.000000       -0.337731         1
         9         6         7        25     9      180.000000       -0.002383         2
         9         6         7        25     9        0.000000        0.178471         3
         9         6         7        25     9      180.000000        0.036308         4
         9        11        12        13     9        0.000000       -0.227661         1
         9        11        12        13     9      180.000000        0.198709         2
         9        11        12        13     9        0.000000        0.575653         3
         9        11        12        13     9      180.000000        0.042898         4
         9        11        12        30     9        0.000000       -0.018814         1
         9        11        12        30     9      180.000000        0.048557         2
         9        11        12        30     9        0.000000        0.576120         3
         9        11        12        30     9      180.000000        0.074092         4
         9        11        12        31     9        0.000000       -0.018814         1
         9        11        12        31     9      180.000000        0.048557         2
         9        11        12        31     9        0.000000        0.576120         3
         9        11        12        31     9      180.000000        0.074092         4
         9        11        14        15     9        0.000000        4.352346         1
         9        11        14        15     9      180.000000       -2.206175         2
         9        11        14        15     9        0.000000       -0.003556         3
         9        11        14        15     9      180.000000        0.165333         4
        10         9         6        24     9        0.000000       -0.195559         1
        10         9         6        24     9      180.000000        0.212182         2
        10         9         6        24     9        0.000000        0.389390         3
        10         9         6        24     9      180.000000       -0.059420         4
        10         9        11        12     9        0.000000        0.016896         1
        10         9        11        12     9      180.000000        0.496116         2
        10         9        11        12     9        0.000000        0.448333         3
        10         9        11        12     9      180.000000       -0.009281         4
        10         9        11        14     9        0.000000       -0.545333         1
        10         9        11        14     9      180.000000       -0.637964         2
        10         9        11        14     9        0.000000        0.329188         3
        10         9        11        14     9      180.000000        0.018467         4
        10         9        11        29     9        0.000000        0.285187         1
        10         9        11        29     9      180.000000        0.379094         2
        10         9        11        29     9        0.000000        0.476484         3
        10         9        11        29     9      180.000000       -0.166707         4
        11         9         6        24     9        0.000000       -0.768158         1
        11         9         6        24     9      180.000000        0.069404         2
        11         9         6        24     9        0.000000        0.093354         3
        11         9         6        24     9      180.000000        0.111715         4
        11         9        10        28     9        0.000000        7.727264         1
        11         9        10        28     9      180.000000       -5.206492         2
        11         9        10        28     9        0.000000        1.323976         3
        11         9        10        28     9      180.000000        0.328748         4
        11        12        13        32     9        0.000000        4.007016         1
        11        12        13        32     9      180.000000       -3.320209         2
        11        12        13        32     9        0.000000        1.326460         3
        11        12        13        32     9      180.000000        0.255147         4
        11        14        15        16     9        0.000000       -0.375262         1
        11        14        15        16     9      180.000000       -3.083586         2
        11        14        15        16     9        0.000000        0.304677         3
        11        14        15        16     9      180.000000        0.420919         4
        11        14        15        33     9        0.000000        0.266636         1
        11        14        15        33     9      180.000000        0.330187         2
        11        14        15        33     9        0.000000        0.477844         3
        11        14        15        33     9      180.000000       -0.186567         4
        12        11         9        27     9        0.000000       -0.201523         1
        12        11         9        27     9      180.000000        0.092106         2
        12        11         9        27     9        0.000000        0.387143         3
        12        11         9        27     9      180.000000       -0.008225         4
        12        11        14        15     9        0.000000       -0.966881         1
        12        11        14        15     9      180.000000        0.096258         2
        12        11        14        15     9        0.000000        0.174197         3
        12        11        14        15     9      180.000000        0.002285         4
        13        12        11        14     9        0.000000        0.402627         1
        13        12        11        14     9      180.000000       -1.643645         2
        13        12        11        14     9        0.000000        0.640951         3
        13        12        11        14     9      180.000000       -0.056513         4
        13        12        11        29     9        0.000000        0.211518         1
        13        12        11        29     9      180.000000        0.462525         2
        13        12        11        29     9        0.000000        0.743999         3
        13        12        11        29     9      180.000000        0.005084         4
        14        11         9        27     9        0.000000       -0.462763         1
        14        11         9        27     9      180.000000        0.209771         2
        14        11         9        27     9        0.000000        0.208553         3
        14        11         9        27     9      180.000000        0.011047         4
        14        11        12        30     9        0.000000        0.093355         1
        14        11        12        30     9      180.000000        0.124033         2
        14        11        12        30     9        0.000000        0.565329         3
        14        11        12        30     9      180.000000        0.025602         4
        14        11        12        31     9        0.000000        0.093355         1
        14        11        12        31     9      180.000000        0.124033         2
        14        11        12        31     9        0.000000        0.565329         3
        14        11        12        31     9      180.000000        0.025602         4
        14        15         7        25     9        0.000000       -0.261393         1
        14        15         7        25     9      180.000000        0.249258         2
        14        15         7        25     9        0.000000        0.357451         3
        14        15         7        25     9      180.000000       -0.040922         4
        14        15        16        17     9        0.000000       -1.894297         1
        14        15        16        17     9      180.000000       -2.746319         2
        14        15        16        17     9        0.000000        0.615789         3
        14        15        16        17     9      180.000000        0.127890         4
        15         7         6        24     9        0.000000       -0.951542         1
        15         7         6        24     9      180.000000       -0.050375         2
        15         7         6        24     9        0.000000        0.041696         3
        15         7         6        24     9      180.000000        0.129090         4
        15         7         8        26     9        0.000000        8.623690         1
        15         7         8        26     9      180.000000       -5.226139         2
        15         7         8        26     9        0.000000        1.322936         3
        15         7         8        26     9      180.000000        0.245137         4
        15        14        11        29     9        0.000000       -0.287618         1
        15        14        11        29     9      180.000000       -0.309009         2
        15        14        11        29     9        0.000000        0.387380         3
        15        14        11        29     9      180.000000        0.045662         4
        15        16        17        18     9        0.000000        0.284689         1
        15        16        17        18     9      180.000000        2.064076         2
        15        16        17        18     9        0.000000        0.006933         3
        15        16        17        18     9      180.000000        0.354834         4
        15        16        17        22     9        0.000000        0.284689         1
        15        16        17        22     9      180.000000        2.064076         2
        15        16        17        22     9        0.000000        0.006933         3
        15        16        17        22     9      180.000000        0.354834         4
        16        15         7        25     9        0.000000        0.252547         1
        16        15         7        25     9      180.000000       -0.123767         2
        16        15         7        25     9        0.000000        0.596959         3
        16        15         7        25     9      180.000000       -0.099829         4
        16        17        18        19     9        0.000000        0.090767         1
        16        17        18        19     9      180.000000       14.906646         2
        16        17        18        19     9        0.000000        0.077297         3
        16        17        18        19     9      180.000000       -0.276970         4
        16        17        18        34     9        0.000000        0.034744         1
        16        17        18        34     9      180.000000       12.254992         2
        16        17        18        34     9        0.000000        0.012883         3
        16        17        18        34     9      180.000000        0.080876         4
        16        17        22        21     9        0.000000        0.090767         1
        16        17        22        21     9      180.000000       14.906646         2
        16        17        22        21     9        0.000000        0.077297         3
        16        17        22        21     9      180.000000       -0.276970         4
        16        17        22        37     9        0.000000        0.034744         1
        16        17        22        37     9      180.000000       12.254992         2
        16        17        22        37     9        0.000000        0.012883         3
        16        17        22        37     9      180.000000        0.080876         4
        17        16        15        33     9        0.000000        1.415589         1
        17        16        15        33     9      180.000000       -0.246318         2
        17        16        15        33     9        0.000000        0.951127         3
        17        16        15        33     9      180.000000       -0.121517         4
        17        18        19        20     9        0.000000        0.008502         1
        17        18        19        20     9      180.000000       18.033237         2
        17        18        19        20     9        0.000000       -1.503915         3
        17        18        19        20     9      180.000000       -0.413491         4
        17        18        19        35     9        0.000000        0.103565         1
        17        18        19        35     9      180.000000       14.220273         2
        17        18        19        35     9        0.000000       -0.516611         3
        17        18        19        35     9      180.000000        0.127951         4
        17        22        21        20     9        0.000000        0.008502         1
        17        22        21        20     9      180.000000       18.033237         2
        17        22        21        20     9        0.000000       -1.503915         3
        17        22        21        20     9      180.000000       -0.413491         4
        17        22        21        36     9        0.000000        0.103565         1
        17        22        21        36     9      180.000000       14.220273         2
        17        22        21        36     9        0.000000       -0.516611         3
        17        22        21        36     9      180.000000        0.127951         4
        18        17        22        21     9        0.000000        0.084359         1
        18        17        22        21     9      180.000000       18.238250         2
        18        17        22        21     9        0.000000       -1.324121         3
        18        17        22        21     9      180.000000       -0.437229         4
        18        17        22        37     9        0.000000        0.085492         1
        18        17        22        37     9      180.000000       13.243304         2
        18        17        22        37     9        0.000000       -0.540870         3
        18        17        22        37     9      180.000000        0.076148         4
        18        19        20        21     9        0.000000       -0.066714         1
        18        19        20        21     9      180.000000       18.829512         2
        18        19        20        21     9        0.000000       -1.336610         3
        18        19        20        21     9      180.000000       -0.462957         4
        18        19        20        38     9        0.000000        0.142439         1
        18        19        20        38     9      180.000000       15.590057         2
        18        19        20        38     9        0.000000       -0.174449         3
        18        19        20        38     9      180.000000       -0.113364         4
        19        18        17        22     9        0.000000        0.084359         1
        19        18        17        22     9      180.000000       18.238250         2
        19        18        17        22     9        0.000000       -1.324121         3
        19        18        17        22     9      180.000000       -0.437229         4
        19        20        21        22     9        0.000000       -0.066714         1
        19        20        21        22     9      180.000000       18.829512         2
        19        20        21        22     9        0.000000       -1.336610         3
        19        20        21        22     9      180.000000       -0.462957         4
        19        20        21        36     9        0.000000       -0.040104         1
        19        20        21        36     9      180.000000       14.335381         2
        19        20        21        36     9        0.000000       -0.542025         3
        19        20        21        36     9      180.000000        0.083423         4
        19        20        38        39     9        0.000000       -0.021447         1
        19        20        38        39     9      180.000000        0.013148         2
        19        20        38        39     9        0.000000       -0.015868         3
        19        20        38        39     9      180.000000        0.007989         4
        19        20        38        40     9        0.000000       -0.021447         1
        19        20        38        40     9      180.000000        0.013148         2
        19        20        38        40     9        0.000000       -0.015868         3
        19        20        38        40     9      180.000000        0.007989         4
        19        20        38        41     9        0.000000       -0.021447         1
        19        20        38        41     9      180.000000        0.013148         2
        19        20        38        41     9        0.000000       -0.015868         3
        19        20        38        41     9      180.000000        0.007989         4
        20        19        18        34     9        0.000000        0.140304         1
        20        19        18        34     9      180.000000       14.166239         2
        20        19        18        34     9        0.000000       -0.708834         3
        20        19        18        34     9      180.000000        0.143764         4
        20        21        22        37     9        0.000000        0.140304         1
        20        21        22        37     9      180.000000       14.166239         2
        20        21        22        37     9        0.000000       -0.708834         3
        20        21        22        37     9      180.000000        0.143764         4
        21        20        19        35     9        0.000000       -0.040104         1
        21        20        19        35     9      180.000000       14.335381         2
        21        20        19        35     9        0.000000       -0.542025         3
        21        20        19        35     9      180.000000        0.083423         4
        21        20        38        39     9        0.000000       -0.021447         1
        21        20        38        39     9      180.000000        0.013148         2
        21        20        38        39     9        0.000000       -0.015868         3
        21        20        38        39     9      180.000000        0.007989         4
        21        20        38        40     9        0.000000       -0.021447         1
        21        20        38        40     9      180.000000        0.013148         2
        21        20        38        40     9        0.000000       -0.015868         3
        21        20        38        40     9      180.000000        0.007989         4
        21        20        38        41     9        0.000000       -0.021447         1
        21        20        38        41     9      180.000000        0.013148         2
        21        20        38        41     9        0.000000       -0.015868         3
        21        20        38        41     9      180.000000        0.007989         4
        22        17        18        34     9        0.000000        0.085492         1
        22        17        18        34     9      180.000000       13.243304         2
        22        17        18        34     9        0.000000       -0.540870         3
        22        17        18        34     9      180.000000        0.076148         4
        22        21        20        38     9        0.000000        0.142439         1
        22        21        20        38     9      180.000000       15.590057         2
        22        21        20        38     9        0.000000       -0.174449         3
        22        21        20        38     9      180.000000       -0.113364         4
        23         4         1        43     9        0.000000       -0.407928         1
        23         4         1        43     9      180.000000        9.969707         2
        23         4         1        43     9        0.000000       -0.267245         3
        23         4         1        43     9      180.000000        0.047241         4
        24         6         7        25     9        0.000000        0.408642         1
        24         6         7        25     9      180.000000        0.246965         2
        24         6         7        25     9        0.000000        0.442464         3
        24         6         7        25     9      180.000000       -0.181646         4
        24         6         9        27     9        0.000000        0.458100         1
        24         6         9        27     9      180.000000        0.149375         2
        24         6         9        27     9        0.000000        0.447761         3
        24         6         9        27     9      180.000000       -0.175013         4
        25         7         8        26     9        0.000000        2.433432         1
        25         7         8        26     9      180.000000       -1.780002         2
        25         7         8        26     9        0.000000        0.608029         3
        25         7         8        26     9      180.000000        0.328179         4
        25         7        15        33     9        0.000000        0.109986         1
        25         7        15        33     9      180.000000        0.118905         2
        25         7        15        33     9        0.000000        0.596732         3
        25         7        15        33     9      180.000000       -0.114269         4
        27         9        10        28     9        0.000000        2.929972         1
        27         9        10        28     9      180.000000       -2.028960         2
        27         9        10        28     9        0.000000        0.666360         3
        27         9        10        28     9      180.000000        0.366349         4
        27         9        11        29     9        0.000000        0.364640         1
        27         9        11        29     9      180.000000        0.035578         2
        27         9        11        29     9        0.000000        0.640265         3
        27         9        11        29     9      180.000000       -0.194472         4
        29        11        12        30     9        0.000000        0.052025         1
        29        11        12        30     9      180.000000       -0.013893         2
        29        11        12        30     9        0.000000        0.749390         3
        29        11        12        30     9      180.000000       -0.067040         4
        29        11        12        31     9        0.000000        0.052025         1
        29        11        12        31     9      180.000000       -0.013893         2
        29        11        12        31     9        0.000000        0.749390         3
        29        11        12        31     9      180.000000       -0.067040         4
        30        12        13        32     9        0.000000        0.213708         1
        30        12        13        32     9      180.000000       -0.140067         2
        30        12        13        32     9        0.000000        0.920910         3
        30        12        13        32     9      180.000000        0.084170         4
        31        12        13        32     9        0.000000        0.213708         1
        31        12        13        32     9      180.000000       -0.140067         2
        31        12        13        32     9        0.000000        0.920910         3
        31        12        13        32     9      180.000000        0.084170         4
        34        18        19        35     9        0.000000       -0.061596         1
        34        18        19        35     9      180.000000       12.072527         2
        34        18        19        35     9        0.000000       -0.716058         3
        34        18        19        35     9      180.000000        0.281920         4
        35        19        20        38     9        0.000000       -0.150870         1
        35        19        20        38     9      180.000000       12.936876         2
        35        19        20        38     9        0.000000       -0.352460         3
        35        19        20        38     9      180.000000        0.224872         4
        36        21        20        38     9        0.000000       -0.150870         1
        36        21        20        38     9      180.000000       12.936876         2
        36        21        20        38     9        0.000000       -0.352460         3
        36        21        20        38     9      180.000000        0.224872         4
        36        21        22        37     9        0.000000       -0.061596         1
        36        21        22        37     9      180.000000       12.072527         2
        36        21        22        37     9        0.000000       -0.716058         3
        36        21        22        37     9      180.000000        0.281920         4
        42        43        44        45     9        0.000000       -0.045484         1
        42        43        44        45     9      180.000000        0.015890         2
        42        43        44        45     9        0.000000        0.260561         3
        42        43        44        45     9      180.000000        0.038624         4
        42        43        44        48     9        0.000000       -0.064182         1
        42        43        44        48     9      180.000000        0.005202         2
        42        43        44        48     9        0.000000        0.425997         3
        42        43        44        48     9      180.000000       -0.025859         4
        42        43        44        49     9        0.000000       -0.064182         1
        42        43        44        49     9      180.000000        0.005202         2
        42        43        44        49     9        0.000000        0.425997         3
        42        43        44        49     9      180.000000       -0.025859         4
        42        43        47        46     9        0.000000       -0.045484         1
        42        43        47        46     9      180.000000        0.015890         2
        42        43        47        46     9        0.000000        0.260561         3
        42        43        47        46     9      180.000000        0.038624         4
        42        43        47        54     9        0.000000       -0.064182         1
        42        43        47        54     9      180.000000        0.005202         2
        42        43        47        54     9        0.000000        0.425997         3
        42        43        47        54     9      180.000000       -0.025859         4
        42        43        47        55     9        0.000000       -0.064182         1
        42        43        47        55     9      180.000000        0.005202         2
        42        43        47        55     9        0.000000        0.425997         3
        42        43        47        55     9      180.000000       -0.025859         4
        43        44        45        46     9        0.000000       -0.175220         1
        43        44        45        46     9      180.000000        0.298826         2
        43        44        45        46     9        0.000000        0.182498         3
        43        44        45        46     9      180.000000       -0.666453         4
        43        44        45        50     9        0.000000       -0.017214         1
        43        44        45        50     9      180.000000       -0.010792         2
        43        44        45        50     9        0.000000        0.168757         3
        43        44        45        50     9      180.000000        0.044828         4
        43        44        45        51     9        0.000000       -0.017214         1
        43        44        45        51     9      180.000000       -0.010792         2
        43        44        45        51     9        0.000000        0.168757         3
        43        44        45        51     9      180.000000        0.044828         4
        43        47        46        45     9        0.000000       -0.175220         1
        43        47        46        45     9      180.000000        0.298826         2
        43        47        46        45     9        0.000000        0.182498         3
        43        47        46        45     9      180.000000       -0.666453         4
        43        47        46        52     9        0.000000       -0.017214         1
        43        47        46        52     9      180.000000       -0.010792         2
        43        47        46        52     9        0.000000        0.168757         3
        43        47        46        52     9      180.000000        0.044828         4
        43        47        46        53     9        0.000000       -0.017214         1
        43        47        46        53     9      180.000000       -0.010792         2
        43        47        46        53     9        0.000000        0.168757         3
        43        47        46        53     9      180.000000        0.044828         4
        44        43        47        46     9        0.000000       -0.454932         1
        44        43        47        46     9      180.000000        4.915695         2
        44        43        47        46     9        0.000000       -0.214929         3
        44        43        47        46     9      180.000000       -2.297586         4
        44        43        47        54     9        0.000000        0.024994         1
        44        43        47        54     9      180.000000       -0.017315         2
        44        43        47        54     9        0.000000        0.114436         3
        44        43        47        54     9      180.000000        0.061644         4
        44        43        47        55     9        0.000000        0.024994         1
        44        43        47        55     9      180.000000       -0.017315         2
        44        43        47        55     9        0.000000        0.114436         3
        44        43        47        55     9      180.000000        0.061644         4
        44        45        46        47     9        0.000000        0.144676         1
        44        45        46        47     9      180.000000       -0.245595         2
        44        45        46        47     9        0.000000        0.150971         3
        44        45        46        47     9      180.000000       -0.125590         4
        44        45        46        52     9        0.000000       -0.017088         1
        44        45        46        52     9      180.000000        0.023678         2
        44        45        46        52     9        0.000000        0.175412         3
        44        45        46        52     9      180.000000        0.015680         4
        44        45        46        53     9        0.000000       -0.017088         1
        44        45        46        53     9      180.000000        0.023678         2
        44        45        46        53     9        0.000000        0.175412         3
        44        45        46        53     9      180.000000        0.015680         4
        45        44        43        47     9        0.000000       -0.454932         1
        45        44        43        47     9      180.000000        4.915695         2
        45        44        43        47     9        0.000000       -0.214929         3
        45        44        43        47     9      180.000000       -2.297586         4
        45        46        47        54     9        0.000000       -0.018189         1
        45        46        47        54     9      180.000000        0.004371         2
        45        46        47        54     9        0.000000        0.176928         3
        45        46        47        54     9      180.000000        0.061507         4
        45        46        47        55     9        0.000000       -0.018189         1
        45        46        47        55     9      180.000000        0.004371         2
        45        46        47        55     9        0.000000        0.176928         3
        45        46        47        55     9      180.000000        0.061507         4
        46        45        44        48     9        0.000000       -0.018189         1
        46        45        44        48     9      180.000000        0.004371         2
        46        45        44        48     9        0.000000        0.176928         3
        46        45        44        48     9      180.000000        0.061507         4
        46        45        44        49     9        0.000000       -0.018189         1
        46        45        44        49     9      180.000000        0.004371         2
        46        45        44        49     9        0.000000        0.176928         3
        46        45        44        49     9      180.000000        0.061507         4
        47        43        44        48     9        0.000000        0.024994         1
        47        43        44        48     9      180.000000       -0.017315         2
        47        43        44        48     9        0.000000        0.114436         3
        47        43        44        48     9      180.000000        0.061644         4
        47        43        44        49     9        0.000000        0.024994         1
        47        43        44        49     9      180.000000       -0.017315         2
        47        43        44        49     9        0.000000        0.114436         3
        47        43        44        49     9      180.000000        0.061644         4
        47        46        45        50     9        0.000000       -0.017088         1
        47        46        45        50     9      180.000000        0.023678         2
        47        46        45        50     9        0.000000        0.175412         3
        47        46        45        50     9      180.000000        0.015680         4
        47        46        45        51     9        0.000000       -0.017088         1
        47        46        45        51     9      180.000000        0.023678         2
        47        46        45        51     9        0.000000        0.175412         3
        47        46        45        51     9      180.000000        0.015680         4
        48        44        45        50     9        0.000000       -0.031094         1
        48        44        45        50     9      180.000000        0.016305         2
        48        44        45        50     9        0.000000        0.350535         3
        48        44        45        50     9      180.000000       -0.025901         4
        48        44        45        51     9        0.000000       -0.031094         1
        48        44        45        51     9      180.000000        0.016305         2
        48        44        45        51     9        0.000000        0.350535         3
        48        44        45        51     9      180.000000       -0.025901         4
        49        44        45        50     9        0.000000       -0.031094         1
        49        44        45        50     9      180.000000        0.016305         2
        49        44        45        50     9        0.000000        0.350535         3
        49        44        45        50     9      180.000000       -0.025901         4
        49        44        45        51     9        0.000000       -0.031094         1
        49        44        45        51     9      180.000000        0.016305         2
        49        44        45        51     9        0.000000        0.350535         3
        49        44        45        51     9      180.000000       -0.025901         4
        50        45        46        52     9        0.000000       -0.016178         1
        50        45        46        52     9      180.000000        0.012333         2
        50        45        46        52     9        0.000000        0.310106         3
        50        45        46        52     9      180.000000       -0.009798         4
        50        45        46        53     9        0.000000       -0.016178         1
        50        45        46        53     9      180.000000        0.012333         2
        50        45        46        53     9        0.000000        0.310106         3
        50        45        46        53     9      180.000000       -0.009798         4
        51        45        46        52     9        0.000000       -0.016178         1
        51        45        46        52     9      180.000000        0.012333         2
        51        45        46        52     9        0.000000        0.310106         3
        51        45        46        52     9      180.000000       -0.009798         4
        51        45        46        53     9        0.000000       -0.016178         1
        51        45        46        53     9      180.000000        0.012333         2
        51        45        46        53     9        0.000000        0.310106         3
        51        45        46        53     9      180.000000       -0.009798         4
        52        46        47        54     9        0.000000       -0.031094         1
        52        46        47        54     9      180.000000        0.016305         2
        52        46        47        54     9        0.000000        0.350535         3
        52        46        47        54     9      180.000000       -0.025901         4
        52        46        47        55     9        0.000000       -0.031094         1
        52        46        47        55     9      180.000000        0.016305         2
        52        46        47        55     9        0.000000        0.350535         3
        52        46        47        55     9      180.000000       -0.025901         4
        53        46        47        54     9        0.000000       -0.031094         1
        53        46        47        54     9      180.000000        0.016305         2
        53        46        47        54     9        0.000000        0.350535         3
        53        46        47        54     9      180.000000       -0.025901         4
        53        46        47        55     9        0.000000       -0.031094         1
        53        46        47        55     9      180.000000        0.016305         2
        53        46        47        55     9        0.000000        0.350535         3
        53        46        47        55     9      180.000000       -0.025901         4

[ dihedrals ] ; impropers
;       ai        aj        ak        al funct           phase               k        pn
        18        17        19        34     4      180.000000        1.752813         2
        18        19        34        17     4      180.000000        1.752813         2
        18        34        17        19     4      180.000000        1.752813         2
        19        18        20        35     4      180.000000        2.505519         2
        19        20        35        18     4      180.000000        2.505519         2
        19        35        18        20     4      180.000000        2.505519         2
        21        20        22        36     4      180.000000        2.505519         2
        21        22        36        20     4      180.000000        2.505519         2
        21        36        20        22     4      180.000000        2.505519         2
        22        17        21        37     4      180.000000        1.752813         2
        22        21        37        17     4      180.000000        1.752813         2
        22        37        17        21     4      180.000000        1.752813         2

[ pairs ]
;       ai        aj funct
         1         6     1
         1        45     1
         1        46     1
         1        48     1
         1        49     1
         1        54     1
         1        55     1
         2         6     1
         2        23     1
         2        42     1
         2        44     1
         2        47     1
         3         7     1
         3         9     1
         3        23     1
         3        24     1
         3        43     1
         4         7     1
         4         9     1
         4        24     1
         4        42     1
         4        44     1
         4        47     1
         5         8     1
         5        10     1
         5        11     1
         5        15     1
         5        25     1
         5        27     1
         5        43     1
         6        12     1
         6        14     1
         6        16     1
         6        23     1
         6        26     1
         6        28     1
         6        29     1
         6        33     1
         7        10     1
         7        11     1
         7        17     1
         7        27     1
         8         9     1
         8        14     1
         8        16     1
         8        24     1
         8        33     1
         9        13     1
         9        15     1
         9        25     1
         9        30     1
         9        31     1
        10        12     1
        10        14     1
        10        24     1
        10        29     1
        11        16     1
        11        24     1
        11        28     1
        11        32     1
        11        33     1
        12        15     1
        12        27     1
        13        14     1
        13        29     1
        14        17     1
        14        25     1
        14        27     1
        14        30     1
        14        31     1
        15        18     1
        15        22     1
        15        24     1
        15        26     1
        15        29     1
        16        19     1
        16        21     1
        16        25     1
        16        34     1
        16        37     1
        17        20     1
        17        33     1
        17        35     1
        17        36     1
        18        21     1
        18        37     1
        18        38     1
        19        22     1
        19        36     1
        19        39     1
        19        40     1
        19        41     1
        20        34     1
        20        37     1
        21        35     1
        21        39     1
        21        40     1
        21        41     1
        22        34     1
        22        38     1
        23        43     1
        24        25     1
        24        27     1
        25        26     1
        25        33     1
        27        28     1
        27        29     1
        29        30     1
        29        31     1
        30        32     1
        31        32     1
        34        35     1
        35        38     1
        36        37     1
        36        38     1
        42        45     1
        42        46     1
        42        48     1
        42        49     1
        42        54     1
        42        55     1
        43        50     1
        43        51     1
        43        52     1
        43        53     1
        44        52     1
        44        53     1
        44        54     1
        44        55     1
        45        54     1
        45        55     1
        46        48     1
        46        49     1
        47        48     1
        47        49     1
        47        50     1
        47        51     1
        48        50     1
        48        51     1
        49        50     1
        49        51     1
        50        52     1
        50        53     1
        51        52     1
        51        53     1
        52        54     1
        52        55     1
        53        54     1
        53        55     1
